/*--------------------------------*- C++ -*----------------------------------*\
| =========                 |                                                 |
| \\      /  F ield         | OpenFOAM: The Open Source CFD Toolbox           |
|  \\    /   O peration     | Version:  2406                                  |
|   \\  /    A nd           | Website:  www.openfoam.com                      |
|    \\/     M anipulation  |                                                 |
\*---------------------------------------------------------------------------*/
FoamFile
{
    version     2.0;
    format      ascii;
    arch        "LSB;label=32;scalar=64";
    class       volScalarField;
    location    "190";
    object      gradTy;
}
// * * * * * * * * * * * * * * * * * * * * * * * * * * * * * * * * * * * * * //

dimensions      [0 -1 0 1 0 0 0];

internalField   nonuniform List<scalar> 
20000
(
-146.947
-141.652
-135.989
-130.028
-123.831
-117.458
-110.961
-104.388
-97.7828
-91.1863
-84.6336
-78.1561
-71.7819
-65.5359
-59.4397
-53.5121
-47.769
-42.2236
-36.8869
-31.7677
-26.8727
-22.2068
-17.7733
-13.5738
-9.60885
-5.8774
-2.37746
0.893977
3.9408
6.76766
9.37988
11.7834
13.9845
15.9901
17.8073
19.4434
20.906
22.2029
23.3418
24.3306
25.1772
25.8892
26.4745
26.9406
27.295
27.545
27.6976
27.7599
27.7385
27.6398
27.4701
27.2354
26.9415
26.5936
26.1972
25.7572
25.2781
24.7646
24.2206
23.6503
23.0572
22.4447
21.8161
21.1744
20.5223
19.8622
19.1966
18.5276
17.8569
17.1865
16.5178
15.8522
15.191
14.5352
13.8858
13.2434
12.6089
11.9826
11.3651
10.7566
10.1573
9.56738
8.98676
8.41542
7.8532
7.29989
6.7552
6.21878
5.69024
5.16913
4.65494
4.14713
3.64514
3.14835
2.65612
2.16779
1.68269
1.20011
0.719338
0.239658
-146.911
-141.617
-135.956
-129.996
-123.801
-117.429
-110.933
-104.362
-97.7588
-91.1639
-84.6127
-78.1368
-71.7642
-65.5197
-59.4251
-53.4989
-47.7572
-42.2132
-36.8778
-31.7599
-26.8661
-22.2013
-17.7689
-13.5705
-9.60648
-5.87595
-2.37687
0.893758
3.93982
6.76599
9.37757
11.7805
13.9811
15.9862
17.8029
19.4386
20.9009
22.1974
23.3361
24.3246
25.171
25.8829
26.468
26.934
27.2883
27.5382
27.6908
27.7531
27.7316
27.633
27.4634
27.2287
26.9348
26.5871
26.1908
25.7508
25.2719
24.7584
24.2147
23.6444
23.0515
22.4392
21.8108
21.1692
20.5172
19.8573
19.1919
18.523
17.8525
17.1822
16.5137
15.8483
15.1873
14.5316
13.8823
13.2402
12.6058
11.9797
11.3623
10.754
10.1548
9.56502
8.98455
8.41334
7.85126
7.29809
6.75353
6.21725
5.68884
5.16785
4.65379
4.14611
3.64424
3.14757
2.65546
2.16726
1.68227
1.19981
0.719161
0.239599
-146.838
-141.547
-135.889
-129.932
-123.74
-117.371
-110.878
-104.31
-97.7106
-91.119
-84.571
-78.0982
-71.7287
-65.4873
-59.3957
-53.4726
-47.7337
-42.1924
-36.8597
-31.7442
-26.8528
-22.1904
-17.7601
-13.5638
-9.60174
-5.87305
-2.3757
0.893318
3.93788
6.76265
9.37294
11.7747
13.9742
15.9783
17.7941
19.429
20.8905
22.1865
23.3246
24.3126
25.1586
25.8701
26.4549
26.9207
27.2748
27.5246
27.6771
27.7394
27.7179
27.6193
27.4498
27.2153
26.9215
26.574
26.1778
25.7381
25.2594
24.7462
24.2027
23.6328
23.0401
22.4281
21.8
21.1588
20.5071
19.8475
19.1824
18.5138
17.8437
17.1738
16.5056
15.8405
15.1798
14.5245
13.8755
13.2336
12.5995
11.9738
11.3567
10.7486
10.1498
9.5603
8.98011
8.40919
7.84739
7.29449
6.7502
6.21418
5.68603
5.1653
4.65149
4.14406
3.64244
3.14602
2.65415
2.16619
1.68144
1.19922
0.718806
0.239481
-146.73
-141.442
-135.788
-129.836
-123.648
-117.284
-110.796
-104.233
-97.6383
-91.0515
-84.5083
-78.0403
-71.6755
-65.4388
-59.3517
-53.433
-47.6984
-42.1612
-36.8324
-31.7207
-26.8329
-22.1739
-17.747
-13.5538
-9.59463
-5.86869
-2.37393
0.892661
3.93497
6.75765
9.36601
11.7659
13.9638
15.9665
17.7809
19.4146
20.8751
22.17
23.3073
24.2946
25.1399
25.8509
26.4353
26.9008
27.2546
27.5042
27.6566
27.7188
27.6974
27.5989
27.4295
27.1951
26.9016
26.5543
26.1585
25.719
25.2407
24.7279
24.1848
23.6153
23.023
22.4115
21.7839
21.1431
20.4919
19.8328
19.1682
18.5001
17.8305
17.161
16.4933
15.8288
15.1685
14.5137
13.8652
13.2238
12.5902
11.9649
11.3483
10.7407
10.1423
9.55322
8.97346
8.40296
7.84158
7.28908
6.7452
6.20958
5.68182
5.16148
4.64805
4.14099
3.63974
3.14369
2.65219
2.16458
1.6802
1.19833
0.718274
0.239303
-146.585
-141.303
-135.654
-129.707
-123.526
-117.168
-110.687
-104.13
-97.5418
-90.9616
-84.4248
-77.9632
-71.6047
-65.3742
-59.2931
-53.3802
-47.6513
-42.1196
-36.796
-31.6894
-26.8064
-22.152
-17.7294
-13.5404
-9.58515
-5.86289
-2.37158
0.891783
3.93109
6.75097
9.35676
11.7543
13.95
15.9507
17.7634
19.3954
20.8545
22.1481
23.2843
24.2706
25.1151
25.8254
26.4092
26.8742
27.2277
27.477
27.6293
27.6914
27.6701
27.5716
27.4024
27.1683
26.875
26.5281
26.1326
25.6936
25.2158
24.7035
24.1609
23.5919
23.0003
22.3894
21.7623
21.1222
20.4717
19.8133
19.1493
18.4819
17.8129
17.1441
16.477
15.8131
15.1535
14.4994
13.8515
13.2108
12.5778
11.9531
11.3371
10.7301
10.1323
9.54378
8.9646
8.39466
7.83383
7.28188
6.73854
6.20344
5.67621
5.15638
4.64345
4.1369
3.63615
3.14058
2.64957
2.16245
1.67854
1.19715
0.717564
0.239067
-146.404
-141.128
-135.486
-129.547
-123.373
-117.024
-110.55
-104.001
-97.4213
-90.8492
-84.3205
-77.8668
-71.5162
-65.2934
-59.2199
-53.3143
-47.5924
-42.0675
-36.7506
-31.6503
-26.7733
-22.1247
-17.7075
-13.5236
-9.5733
-5.85565
-2.36865
0.890683
3.92623
6.74263
9.3452
11.7398
13.9328
15.931
17.7414
19.3715
20.8287
22.1208
23.2555
24.2407
25.0841
25.7935
26.3766
26.841
27.1941
27.4431
27.5952
27.6572
27.6359
27.5376
27.3685
27.1347
26.8418
26.4953
26.1003
25.6619
25.1846
24.6729
24.131
23.5628
22.9719
22.3617
21.7354
21.0961
20.4464
19.7888
19.1256
18.459
17.7909
17.1229
16.4567
15.7936
15.1348
14.4814
13.8344
13.1944
12.5622
11.9383
11.3231
10.7168
10.1198
9.53199
8.95352
8.38429
7.82415
7.27289
6.73021
6.19578
5.66919
5.15001
4.63772
4.13179
3.63165
3.1367
2.64629
2.15977
1.67647
1.19567
0.716677
0.238772
-146.187
-140.919
-135.285
-129.355
-123.19
-116.85
-110.386
-103.847
-97.2768
-90.7144
-84.1954
-77.7513
-71.4101
-65.1965
-59.132
-53.2352
-47.5218
-42.0051
-36.696
-31.6033
-26.7336
-22.0918
-17.6813
-13.5036
-9.5591
-5.84695
-2.36513
0.889366
3.92041
6.73263
9.33134
11.7224
13.9121
15.9073
17.7151
19.3427
20.7978
22.088
23.221
24.2047
25.0468
25.7552
26.3375
26.8012
27.1537
27.4024
27.5542
27.6162
27.5949
27.4967
27.3279
27.0944
26.802
26.456
26.0616
25.6238
25.1473
24.6363
24.0952
23.5278
22.9378
22.3285
21.7032
21.0648
20.416
19.7594
19.0972
18.4316
17.7645
17.0975
16.4323
15.7701
15.1124
14.46
13.8139
13.1749
12.5436
11.9206
11.3063
10.7009
10.1047
9.51784
8.94023
8.37185
7.81254
7.26209
6.72022
6.18659
5.66078
5.14236
4.63084
4.12566
3.62627
3.13205
2.64237
2.15657
1.67398
1.1939
0.715614
0.238417
-145.933
-140.674
-135.051
-129.131
-122.977
-116.647
-110.195
-103.667
-97.1082
-90.5572
-84.0495
-77.6166
-71.2864
-65.0836
-59.0296
-53.143
-47.4395
-41.9324
-36.6325
-31.5485
-26.6873
-22.0536
-17.6506
-13.4802
-9.54253
-5.83682
-2.36103
0.887828
3.91362
6.72097
9.31517
11.7021
13.888
15.8798
17.6844
19.3092
20.7618
22.0497
23.1808
24.1627
25.0034
25.7106
26.2918
26.7547
27.1067
27.3549
27.5065
27.5683
27.547
27.4491
27.2806
27.0475
26.7555
26.4101
26.0164
25.5794
25.1037
24.5936
24.0535
23.4871
22.898
22.2898
21.6656
21.0283
20.3807
19.7252
19.0641
18.3997
17.7337
17.0679
16.4038
15.7428
15.0862
14.4349
13.7899
13.152
12.5219
11.8999
11.2867
10.6824
10.0872
9.50135
8.92474
8.35734
7.799
7.24951
6.70858
6.17587
5.65097
5.13345
4.62281
4.11851
3.61998
3.12662
2.63779
2.15283
1.67108
1.19183
0.714374
0.238004
-145.644
-140.396
-134.783
-128.875
-122.733
-116.416
-109.976
-103.462
-96.9157
-90.3777
-83.8829
-77.4627
-71.1451
-64.9546
-58.9126
-53.0376
-47.3454
-41.8492
-36.5599
-31.486
-26.6344
-22.0098
-17.6156
-13.4534
-9.52361
-5.82525
-2.35635
0.886071
3.90587
6.70765
9.29671
11.6789
13.8605
15.8483
17.6493
19.2709
20.7206
22.006
23.1348
24.1148
24.9539
25.6596
26.2397
26.7017
27.0529
27.3007
27.452
27.5137
27.4924
27.3946
27.2265
26.9939
26.7025
26.3578
25.9649
25.5287
25.0539
24.5449
24.0058
23.4405
22.8526
22.2456
21.6226
20.9866
20.3402
19.6861
19.0264
18.3632
17.6985
17.034
16.3713
15.7116
15.0563
14.4063
13.7626
13.126
12.497
11.8763
11.2643
10.6612
10.0672
9.48251
8.90705
8.34077
7.78354
7.23514
6.69528
6.16362
5.63977
5.12328
4.61365
4.11035
3.61281
3.12042
2.63256
2.14856
1.66776
1.18946
0.712958
0.237532
-145.319
-140.082
-134.482
-128.587
-122.459
-116.156
-109.731
-103.231
-96.6992
-90.1758
-83.6955
-77.2897
-70.9862
-64.8095
-58.781
-52.9192
-47.2397
-41.7558
-36.4782
-31.4157
-26.5749
-21.9607
-17.5763
-13.4234
-9.50234
-5.81223
-2.35108
0.884096
3.89715
6.69267
9.27595
11.6528
13.8296
15.8129
17.6099
19.2279
20.6743
21.9568
23.0831
24.061
24.8982
25.6023
26.1811
26.642
26.9925
27.2397
27.3907
27.4522
27.431
27.3335
27.1657
26.9336
26.6429
26.2989
25.9069
25.4717
24.998
24.4901
23.9522
23.3881
22.8016
22.1959
21.5743
20.9397
20.2948
19.6421
18.9839
18.3222
17.659
16.996
16.3347
15.6765
15.0226
14.3741
13.7319
13.0966
12.4691
11.8498
11.2391
10.6374
10.0448
9.46134
8.88716
8.32215
7.76616
7.21898
6.68033
6.14986
5.62718
5.11184
4.60334
4.10117
3.60474
3.11345
2.62668
2.14377
1.66404
1.18681
0.711366
0.237002
-144.958
-139.734
-134.148
-128.267
-122.155
-115.868
-109.458
-102.974
-96.459
-89.9518
-83.4876
-77.0977
-70.8098
-64.6485
-58.635
-52.7877
-47.1223
-41.652
-36.3876
-31.3376
-26.5089
-21.9061
-17.5326
-13.39
-9.47872
-5.79779
-2.34524
0.881903
3.88747
6.67605
9.2529
11.6239
13.7952
15.7736
17.5662
19.1801
20.623
21.9023
23.0258
24.0012
24.8363
25.5387
26.1161
26.5758
26.9254
27.172
27.3226
27.384
27.3629
27.2655
27.0982
26.8666
26.5766
26.2335
25.8425
25.4084
24.9358
24.4292
23.8927
23.33
22.7449
22.1408
21.5207
20.8877
20.2444
19.5933
18.9367
18.2767
17.6151
16.9538
16.2941
15.6376
14.9853
14.3384
13.6977
13.0641
12.4381
11.8204
11.2112
10.611
10.0198
9.43783
8.86507
8.30147
7.74686
7.20104
6.66373
6.13458
5.61319
5.09913
4.5919
4.09098
3.59578
3.10571
2.62015
2.13844
1.6599
1.18386
0.709598
0.236413
-144.561
-139.351
-133.781
-127.916
-121.82
-115.55
-109.158
-102.692
-96.1949
-89.7055
-83.259
-76.8866
-70.616
-64.4715
-58.4745
-52.6432
-46.9933
-41.538
-36.288
-31.2518
-26.4363
-21.8461
-17.4846
-13.3534
-9.45277
-5.78191
-2.33881
0.879492
3.87683
6.65777
9.22757
11.592
13.7574
15.7304
17.5181
19.1276
20.5665
21.8423
22.9627
23.9355
24.7683
25.4688
26.0446
26.5031
26.8517
27.0976
27.2478
27.309
27.288
27.1909
27.024
26.7931
26.5039
26.1617
25.7717
25.3388
24.8676
24.3623
23.8272
23.2661
22.6827
22.0802
21.4618
20.8305
20.189
19.5396
18.8848
18.2266
17.5669
16.9073
16.2495
15.5948
14.9443
14.2991
13.6602
13.0283
12.4041
11.788
11.1805
10.5819
9.99236
9.41199
8.8408
8.27874
7.72565
7.18133
6.64548
6.11778
5.59782
5.08517
4.57933
4.07978
3.58593
3.09721
2.61298
2.13258
1.65536
1.18062
0.707655
0.235766
-144.128
-138.934
-133.38
-127.533
-121.456
-115.205
-108.832
-102.385
-95.9071
-89.4371
-83.0099
-76.6566
-70.4047
-64.2786
-58.2995
-52.4857
-46.8527
-41.4137
-36.1794
-31.1583
-26.3572
-21.7808
-17.4323
-13.3134
-9.42448
-5.76461
-2.33181
0.876863
3.86523
6.63786
9.19997
11.5573
13.7163
15.6834
17.4657
19.0704
20.505
21.777
22.894
23.8639
24.6942
25.3926
25.9666
26.4238
26.7714
27.0165
27.1663
27.2273
27.2063
27.1095
26.9431
26.7129
26.4246
26.0834
25.6946
25.263
24.7932
24.2894
23.7559
23.1965
22.6148
22.0141
21.3976
20.7682
20.1286
19.4812
18.8283
18.1721
17.5143
16.8568
16.2009
15.5481
14.8996
14.2563
13.6194
12.9893
12.367
11.7527
11.1471
10.5502
9.96246
9.38382
8.81435
8.25397
7.70254
7.15984
6.6256
6.09947
5.58107
5.06996
4.56563
4.06757
3.57521
3.08794
2.60516
2.1262
1.65041
1.17708
0.705538
0.23506
-143.66
-138.483
-132.947
-127.119
-121.061
-114.83
-108.478
-102.052
-95.5956
-89.1466
-82.7403
-76.4076
-70.1761
-64.0699
-58.1102
-52.3152
-46.7006
-41.2792
-36.0619
-31.0571
-26.2716
-21.71
-17.3757
-13.2702
-9.39387
-5.74589
-2.32424
0.874017
3.85268
6.6163
9.17009
11.5198
13.6717
15.6324
17.4089
19.0085
20.4384
21.7062
22.8197
23.7864
24.614
25.3101
25.8823
26.338
26.6844
26.9288
27.078
27.1389
27.1179
27.0215
26.8556
26.6262
26.3388
25.9987
25.6112
25.181
24.7126
24.2106
23.6788
23.1212
22.5413
21.9426
21.3281
20.7007
20.0632
19.4179
18.7672
18.1131
17.4574
16.802
16.1483
15.4976
14.8512
14.21
13.5751
12.9472
12.3268
11.7146
11.1109
10.516
9.9301
9.35335
8.78572
8.22716
7.67752
7.13658
6.60408
6.07966
5.56295
5.05349
4.5508
4.05436
3.56359
3.07791
2.5967
2.1193
1.64505
1.17326
0.703246
0.234297
-143.157
-137.998
-132.481
-126.674
-120.637
-114.428
-108.098
-101.695
-95.2605
-88.8342
-82.4503
-76.1398
-69.9301
-63.8453
-57.9065
-52.1319
-46.5369
-41.1345
-35.9355
-30.9483
-26.1795
-21.6339
-17.3148
-13.2237
-9.36095
-5.72574
-2.31609
0.870955
3.83918
6.59311
9.13795
11.4794
13.6238
15.5777
17.3479
18.9418
20.3667
21.6302
22.7397
23.703
24.5277
25.2214
25.7916
26.2456
26.5909
26.8344
26.9831
27.0438
27.0229
26.9268
26.7615
26.5328
26.2464
25.9076
25.5214
25.0927
24.626
24.1257
23.5958
23.0401
22.4623
21.8657
21.2533
20.6282
19.9929
19.3498
18.7014
18.0496
17.3963
16.7431
16.0917
15.4433
14.7991
14.1602
13.5275
12.9018
12.2836
11.6735
11.0719
10.4791
9.8953
9.32056
8.75493
8.19832
7.65061
7.11157
6.58093
6.05835
5.54345
5.03578
4.53485
4.04015
3.5511
3.06713
2.5876
2.11187
1.63928
1.16915
0.700781
0.233476
-142.618
-137.478
-131.983
-126.197
-120.183
-113.997
-107.691
-101.312
-94.902
-88.4998
-82.14
-75.8532
-69.6669
-63.605
-57.6885
-51.9356
-46.3617
-40.9797
-35.8002
-30.8318
-26.081
-21.5525
-17.2496
-13.1739
-9.32571
-5.70419
-2.30737
0.867679
3.82473
6.56829
9.10355
11.4362
13.5725
15.519
17.2826
18.8705
20.2901
21.5487
22.6541
23.6138
24.4354
25.1265
25.6945
26.1469
26.4908
26.7334
26.8815
26.942
26.9212
26.8254
26.6607
26.433
26.1476
25.8101
25.4253
24.9982
24.5333
24.0349
23.507
22.9534
22.3778
21.7834
21.1733
20.5505
19.9176
19.277
18.631
17.9816
17.3308
16.6801
16.0311
15.3851
14.7434
14.1069
13.4766
12.8532
12.2374
11.6296
11.0302
10.4397
9.85805
9.28548
8.72197
8.16746
7.62181
7.0848
6.55616
6.03555
5.52258
5.01682
4.51778
4.02494
3.53774
3.05558
2.57786
2.10392
1.63311
1.16475
0.698143
0.232597
-142.044
-136.925
-131.451
-125.689
-119.699
-113.538
-107.258
-100.904
-94.52
-88.1436
-81.8094
-75.5479
-69.3865
-63.349
-57.4563
-51.7266
-46.1751
-40.8148
-35.6561
-30.7077
-25.976
-21.4658
-17.1802
-13.1209
-9.28817
-5.68123
-2.29808
0.864188
3.80933
6.54186
9.06691
11.3902
13.5179
15.4565
17.2131
18.7946
20.2084
21.462
22.5629
23.5187
24.337
25.0253
25.5911
26.0416
26.3842
26.6258
26.7733
26.8335
26.8128
26.7174
26.5534
26.3266
26.0424
25.7062
25.323
24.8976
24.4346
23.9381
23.4124
22.861
22.2877
21.6957
21.0881
20.4678
19.8374
19.1994
18.556
17.9093
17.261
16.6129
15.9666
15.3232
14.6841
14.0502
13.4224
12.8015
12.1881
11.5828
10.9858
10.3976
9.81837
9.2481
8.68686
8.13459
7.59113
7.05628
6.52977
6.01125
5.50035
4.99663
4.4996
4.00874
3.5235
3.04328
2.56748
2.09545
1.62654
1.16006
0.695333
0.23166
-141.435
-136.338
-130.888
-125.15
-119.186
-113.052
-106.798
-100.472
-94.1147
-87.7656
-81.4585
-75.224
-69.0889
-63.0773
-57.2099
-51.5048
-45.9771
-40.6397
-35.5032
-30.576
-25.8646
-21.3737
-17.1065
-13.0646
-9.24834
-5.65686
-2.28822
0.860483
3.793
6.51381
9.02803
11.3414
13.4599
15.3903
17.1393
18.714
20.1217
21.37
22.4662
23.4179
24.2327
24.918
25.4813
25.9299
26.271
26.5116
26.6585
26.7185
26.6978
26.6029
26.4396
26.2137
25.9307
25.596
25.2144
24.7908
24.3298
23.8355
23.312
22.763
22.1921
21.6027
20.9977
20.38
19.7524
19.1171
18.4764
17.8325
17.187
16.5417
15.8981
15.2575
14.6211
13.9899
13.3648
12.7466
12.1358
11.5331
10.9387
10.3531
9.77626
9.20844
8.64961
8.0997
7.55858
7.02602
6.50177
5.98548
5.47677
4.9752
4.4803
3.99155
3.50839
3.03023
2.55647
2.08647
1.61956
1.15509
0.692351
0.230667
-140.791
-135.717
-130.292
-124.58
-118.643
-112.537
-106.312
-100.014
-93.6862
-87.366
-81.0876
-74.8814
-68.7743
-62.7901
-56.9495
-51.2703
-45.7677
-40.4547
-35.3416
-30.4368
-25.7468
-21.2764
-17.0286
-13.0051
-9.20623
-5.63111
-2.2778
0.856566
3.77573
6.48415
8.98692
11.2897
13.3986
15.3202
17.0612
18.6288
20.0301
21.2727
22.3639
23.3112
24.1223
24.8045
25.3653
25.8119
26.1514
26.3909
26.5371
26.5968
26.5763
26.4817
26.3192
26.0943
25.8126
25.4794
25.0996
24.678
24.219
23.7269
23.2058
22.6593
22.0911
21.5043
20.9021
20.2872
19.6624
19.03
18.3923
17.7513
17.1087
16.4664
15.8257
15.188
14.5545
13.9262
13.304
12.6885
12.0806
11.4806
10.8889
10.3059
9.73175
9.16651
8.61023
8.06282
7.52416
6.99403
6.47216
5.95822
5.45183
4.95255
4.4599
3.97337
3.49241
3.01643
2.54483
2.07697
1.61219
1.14983
0.689199
0.229617
-140.112
-135.063
-129.664
-123.98
-118.071
-111.994
-105.799
-99.5319
-93.2345
-86.9448
-80.6967
-74.5204
-68.4428
-62.4874
-56.6749
-51.0231
-45.5471
-40.2597
-35.1712
-30.29
-25.6227
-21.1738
-16.9465
-12.9424
-9.16184
-5.60396
-2.26682
0.852437
3.75753
6.45289
8.9436
11.2353
13.334
15.2463
16.979
18.539
19.9335
21.1701
22.256
23.1989
24.006
24.685
25.243
25.6874
26.0253
26.2637
26.4092
26.4686
26.4481
26.3541
26.1923
25.9685
25.6882
25.3566
24.9786
24.559
24.1022
23.6126
23.0939
22.5501
21.9846
21.4006
20.8013
20.1894
19.5676
18.9383
18.3036
17.6657
17.0263
16.387
15.7494
15.1148
14.4844
13.8591
13.2398
12.6274
12.0223
11.4252
10.8364
10.2562
9.68483
9.12232
8.56872
8.02395
7.48789
6.96031
6.44096
5.9295
5.42555
4.92867
4.4384
3.95422
3.47557
3.00189
2.53256
2.06695
1.60441
1.14428
0.685876
0.22851
-139.399
-134.375
-129.003
-123.348
-117.47
-111.424
-105.26
-99.0252
-92.7598
-86.5022
-80.2859
-74.1411
-68.0943
-62.1693
-56.3864
-50.7633
-45.3152
-40.0547
-34.9921
-30.1358
-25.4922
-21.066
-16.8602
-12.8765
-9.1152
-5.57543
-2.25528
0.848097
3.7384
6.42003
8.89806
11.1781
13.2662
15.1687
16.8925
18.4446
19.8321
21.0623
22.1427
23.0808
23.8838
24.5593
25.1145
25.5566
25.8928
26.1299
26.2748
26.3338
26.3135
26.2199
26.0589
25.8363
25.5574
25.2275
24.8514
24.434
23.9795
23.4923
22.9764
22.4353
21.8726
21.2917
20.6954
20.0866
19.468
18.8419
18.2105
17.5757
16.9396
16.3036
15.6692
15.0379
14.4106
13.7885
13.1724
12.5631
11.9611
11.3671
10.7813
10.204
9.63553
9.07588
8.52509
7.9831
7.44977
6.92488
6.40817
5.89931
5.39792
4.90358
4.4158
3.93409
3.45788
2.98661
2.51967
2.05643
1.59625
1.13846
0.682385
0.227346
-138.651
-133.654
-128.311
-122.687
-116.84
-110.826
-104.696
-98.494
-92.2623
-86.0382
-79.8553
-73.7434
-67.7291
-61.8358
-56.0839
-50.491
-45.0722
-39.8399
-34.8044
-29.9742
-25.3555
-20.953
-16.7698
-12.8074
-9.06631
-5.54552
-2.24319
0.843547
3.71834
6.3856
8.85034
11.1181
13.195
15.0873
16.8019
18.3456
19.7257
20.9493
22.024
22.957
23.7557
24.4275
24.9798
25.4196
25.7539
25.9898
26.1338
26.1926
26.1723
26.0792
25.9192
25.6977
25.4203
25.0922
24.7181
24.3029
23.8509
23.3663
22.8531
22.315
21.7553
21.1775
20.5844
19.9789
19.3636
18.7408
18.1128
17.4815
16.8487
16.2161
15.5852
14.9572
14.3333
13.7145
13.1018
12.4957
11.897
11.3061
10.7234
10.1493
9.58384
9.0272
8.47937
7.94028
7.40981
6.88774
6.3738
5.86767
5.36897
4.87728
4.39212
3.91298
3.43933
2.97059
2.50615
2.0454
1.58768
1.13235
0.678724
0.226127
-137.869
-132.901
-127.588
-121.995
-116.181
-110.201
-104.105
-97.9386
-91.742
-85.553
-79.4049
-73.3275
-67.3472
-61.4871
-55.7677
-50.2063
-44.818
-39.6152
-34.6082
-29.8052
-25.2125
-20.8349
-16.6752
-12.7352
-9.01518
-5.51425
-2.23054
0.838789
3.69737
6.34959
8.80042
11.0554
13.1206
15.0023
16.7072
18.2422
19.6144
20.8312
21.8998
22.8275
23.6217
24.2898
24.8389
25.2762
25.6087
25.8432
25.9864
26.0449
26.0247
25.9322
25.773
25.5528
25.277
24.9506
24.5787
24.1658
23.7164
23.2346
22.7242
22.1891
21.6326
21.058
20.4683
19.8662
19.2544
18.6351
18.0106
17.3829
16.7537
16.1247
15.4973
14.8728
14.2525
13.6372
13.0279
12.4252
11.8299
11.2423
10.663
10.0921
9.5298
8.97629
8.43155
7.8955
7.36802
6.84889
6.33785
5.83458
5.33869
4.84977
4.36735
3.89092
3.41994
2.95384
2.49202
2.03386
1.57873
1.12596
0.674897
0.224852
-137.053
-132.114
-126.833
-121.273
-115.494
-109.549
-103.489
-97.359
-91.1991
-85.0467
-78.935
-72.8936
-66.9486
-61.1232
-55.4376
-49.9092
-44.5527
-39.3807
-34.4033
-29.6288
-25.0633
-20.7116
-16.5765
-12.6599
-8.96183
-5.48162
-2.21734
0.833824
3.67549
6.31201
8.74834
10.99
13.0429
14.9135
16.6083
18.1342
19.4984
20.7079
21.7702
22.6924
23.4819
24.146
24.6919
25.1266
25.4571
25.6903
25.8326
25.8907
25.8707
25.7787
25.6204
25.4016
25.1274
24.803
24.4333
24.0228
23.576
23.097
22.5897
22.0578
21.5046
20.9334
20.3472
19.7487
19.1404
18.5248
17.904
17.28
16.6545
16.0292
15.4056
14.7848
14.1681
13.5565
12.9508
12.3517
11.7599
11.1758
10.5999
10.0323
9.4734
8.92317
8.38165
7.84878
7.32441
6.80836
6.30034
5.80005
5.3071
4.82107
4.3415
3.86789
3.3997
2.93636
2.47727
2.02183
1.56939
1.1193
0.670903
0.223521
-136.203
-131.295
-126.046
-120.521
-114.778
-108.87
-102.848
-96.7553
-90.6336
-84.5194
-78.4456
-72.4416
-66.5335
-60.7442
-55.0939
-49.5997
-44.2765
-39.1366
-34.19
-29.4451
-24.9079
-20.5831
-16.4738
-12.5814
-8.90627
-5.44763
-2.20359
0.828652
3.6527
6.27287
8.6941
10.9219
12.9621
14.821
16.5053
18.0218
19.3775
20.5795
21.6352
22.5517
23.3363
23.9963
24.5388
24.9708
25.2993
25.531
25.6725
25.7302
25.7103
25.6189
25.4616
25.2441
24.9716
24.6492
24.2818
23.8739
23.4299
22.9538
22.4497
21.921
21.3713
20.8036
20.221
19.6262
19.0218
18.41
17.793
17.1729
16.5513
15.9299
15.3101
14.6932
14.0803
13.4724
12.8705
12.2751
11.687
11.1065
10.5341
9.97012
9.41466
8.86784
8.32968
7.80011
7.279
6.76615
6.26128
5.76409
5.27419
4.79118
4.31458
3.84391
3.37862
2.91815
2.46191
2.00929
1.55966
1.11236
0.666743
0.222135
-135.32
-130.444
-125.229
-119.739
-114.033
-108.164
-102.181
-96.1278
-90.0458
-83.9712
-77.9368
-71.9718
-66.102
-60.3503
-54.7366
-49.2781
-43.9894
-38.8827
-33.9683
-29.2541
-24.7464
-20.4496
-16.3669
-12.4998
-8.8485
-5.4123
-2.1893
0.823276
3.62901
6.23218
8.63771
10.851
12.878
14.7249
16.3983
17.9049
19.2518
20.446
21.4949
22.4054
23.185
23.8407
24.3797
24.8089
25.1352
25.3654
25.506
25.5633
25.5436
25.4527
25.2965
25.0803
24.8096
24.4893
24.1243
23.719
23.2779
22.805
22.3041
21.7789
21.2327
20.6687
20.0899
19.4989
18.8984
18.2906
17.6776
17.0615
16.4439
15.8265
15.2108
14.5979
13.989
13.3851
12.787
12.1955
11.6112
11.0345
10.4658
9.90546
9.3536
8.81033
8.27566
7.74953
7.23179
6.72226
6.22067
5.7267
5.23999
4.76011
4.2866
3.81898
3.35671
2.89922
2.44595
1.99626
1.54954
1.10515
0.662419
0.220695
-134.403
-129.56
-124.381
-118.928
-113.261
-107.431
-101.488
-95.4766
-89.4358
-83.4024
-77.4089
-71.4842
-65.6542
-59.9414
-54.3658
-48.9442
-43.6914
-38.6193
-33.7382
-29.0559
-24.5787
-20.3111
-16.256
-12.4151
-8.78856
-5.37564
-2.17447
0.817697
3.60442
6.18996
8.57919
10.7775
12.7907
14.6251
16.2872
17.7836
19.1214
20.3075
21.3492
22.2536
23.0279
23.6792
24.2145
24.6408
24.9649
25.1936
25.3332
25.3901
25.3705
25.2803
25.1251
24.9104
24.6415
24.3234
23.9609
23.5583
23.1202
22.6505
22.153
21.6313
21.0888
20.5287
19.9538
19.3668
18.7704
18.1667
17.5579
16.9459
16.3325
15.7193
15.1077
14.499
13.8942
13.2944
12.7004
12.1129
11.5325
10.9597
10.3949
9.83836
9.29023
8.75064
8.21959
7.69703
7.1828
6.67672
6.17853
5.68791
5.20449
4.72786
4.25756
3.79311
3.33397
2.87958
2.42938
1.98274
1.53905
1.09766
0.657931
0.219199
-133.453
-128.644
-123.502
-118.088
-112.46
-106.672
-100.771
-94.8018
-88.8037
-82.8129
-76.8618
-70.979
-65.1902
-59.5178
-53.9815
-48.5983
-43.3826
-38.3464
-33.4997
-28.8506
-24.405
-20.1676
-16.1412
-12.3273
-8.72645
-5.33765
-2.1591
0.811916
3.57894
6.14621
8.51855
10.7013
12.7003
14.5218
16.172
17.6579
18.9862
20.164
21.1983
22.0964
22.8652
23.5118
24.0434
24.4666
24.7885
25.0155
25.1541
25.2107
25.1912
25.1016
24.9475
24.7344
24.4674
24.1515
23.7915
23.3918
22.9568
22.4904
21.9964
21.4784
20.9398
20.3836
19.8127
19.2299
18.6377
18.0383
17.4338
16.8261
16.2171
15.6082
15.0009
14.3965
13.796
13.2004
12.6106
12.0273
11.451
10.8823
10.3214
9.76882
9.22457
8.6888
8.1615
7.64263
7.13204
6.62954
6.13486
5.64771
5.16771
4.69444
4.22747
3.7663
3.3104
2.85923
2.41221
1.96872
1.52817
1.0899
0.653281
0.21765
-132.471
-127.697
-122.592
-117.218
-111.632
-105.886
-100.029
-94.1036
-88.1497
-82.2031
-76.2957
-70.4563
-64.7101
-59.0795
-53.584
-48.2404
-43.0631
-38.064
-33.253
-28.6381
-24.2253
-20.019
-16.0223
-12.2366
-8.66218
-5.29834
-2.1432
0.805935
3.55259
6.10095
8.45582
10.6225
12.6068
14.4148
16.0529
17.5279
18.8464
20.0155
21.0422
21.9336
22.6968
23.3387
23.8663
24.2865
24.6059
24.8313
24.9689
25.025
25.0057
24.9167
24.7638
24.5522
24.2872
23.9736
23.6163
23.2196
22.7877
22.3248
21.8344
21.3202
20.7856
20.2335
19.6668
19.0883
18.5004
17.9054
17.3054
16.7022
16.0977
15.4933
14.8905
14.2905
13.6944
13.1032
12.5177
11.9387
11.3667
10.8021
10.2454
9.69688
9.15664
8.62481
8.1014
7.58634
7.07951
6.58071
6.08968
5.60612
5.12965
4.65987
4.19634
3.73856
3.28602
2.83817
2.39444
1.95423
1.51691
1.08188
0.64847
0.216047
-131.455
-126.718
-121.652
-116.319
-110.776
-105.075
-99.2623
-93.3822
-87.474
-81.5729
-75.7108
-69.9162
-64.214
-58.6266
-53.1732
-47.8706
-42.733
-37.7722
-32.9981
-28.4186
-24.0396
-19.8656
-15.8995
-12.1428
-8.59578
-5.25772
-2.12678
0.799755
3.52535
6.05417
8.39099
10.5411
12.5102
14.3043
15.9299
17.3935
18.7019
19.8621
20.8809
21.7655
22.5228
23.1597
23.6833
24.1003
24.4173
24.6409
24.7775
24.8332
24.814
24.7257
24.5739
24.364
24.101
23.7899
23.4352
23.0416
22.613
22.1536
21.667
21.1568
20.6262
20.0784
19.5161
18.942
18.3586
17.7682
17.1727
16.5742
15.9743
15.3745
14.7763
14.1809
13.5894
13.0028
12.4218
11.8472
11.2795
10.7193
10.1669
9.62254
9.08644
8.55869
8.03929
7.52818
7.02524
6.53026
6.043
5.56314
5.09032
4.62415
4.16417
3.7099
3.26083
2.81642
2.37609
1.93924
1.50528
1.07358
0.643499
0.214391
-130.407
-125.708
-120.682
-115.392
-109.893
-104.237
-98.4709
-92.6378
-86.7766
-80.9226
-75.1073
-69.3588
-63.7021
-58.1592
-52.7493
-47.489
-42.3923
-37.4711
-32.7351
-28.192
-23.8479
-19.7072
-15.7727
-12.046
-8.52726
-5.21581
-2.10982
0.793377
3.49724
6.00591
8.3241
10.4571
12.4104
14.1903
15.8029
17.2548
18.5528
19.7037
20.7144
21.592
22.3432
22.9751
23.4945
23.9082
24.2226
24.4445
24.5799
24.6352
24.6162
24.5286
24.378
24.1698
23.9089
23.6002
23.2484
22.8579
22.4328
21.977
21.4943
20.9881
20.4618
19.9183
19.3605
18.791
18.2123
17.6265
17.0358
16.4421
15.8469
15.2519
14.6585
14.0679
13.4811
12.8991
12.3228
11.7527
11.1896
10.6339
10.0858
9.54583
9.01401
8.49046
7.9752
7.46817
6.96924
6.47821
5.99483
5.51879
5.04974
4.58729
4.13097
3.68033
3.23484
2.79397
2.35714
1.92378
1.49329
1.06502
0.638369
0.212682
-129.327
-124.667
-119.683
-114.436
-108.983
-103.374
-97.6553
-91.8705
-86.0579
-80.2523
-74.4852
-68.7843
-63.1745
-57.6775
-52.3124
-47.0957
-42.0412
-37.1607
-32.4639
-27.9585
-23.6504
-19.544
-15.6421
-11.9462
-8.45663
-5.17261
-2.09235
0.786804
3.46827
5.95616
8.25515
10.3704
12.3076
14.0727
15.672
17.1119
18.3992
19.5405
20.5429
21.4131
22.1581
22.7848
23.2999
23.7101
24.022
24.242
24.3764
24.4311
24.4123
24.3254
24.1761
23.9696
23.7108
23.4047
23.0559
22.6686
22.247
21.795
21.3163
20.8143
20.2923
19.7533
19.2001
18.6353
18.0614
17.4805
16.8947
16.3059
15.7157
15.1256
14.5371
13.9513
13.3694
12.7923
12.2207
11.6554
11.0969
10.5458
10.0023
9.46677
8.93935
8.42014
7.90915
7.40631
6.91151
6.42455
5.94517
5.47308
5.00792
4.54929
4.09676
3.64984
3.20804
2.77082
2.33762
1.90785
1.48092
1.0562
0.633082
0.21092
-128.215
-123.595
-118.654
-113.452
-108.046
-102.485
-96.8156
-91.0806
-85.3179
-79.5623
-73.8447
-68.1929
-62.6313
-57.1816
-51.8626
-46.6907
-41.6797
-36.8412
-32.1848
-27.7181
-23.4471
-19.3759
-15.5076
-11.8435
-8.38392
-5.12814
-2.07436
0.780036
3.43845
5.90494
8.18417
10.2813
12.2018
13.9517
15.5372
16.9648
18.2409
19.3725
20.3662
21.229
21.9676
22.5889
23.0996
23.5062
23.8155
24.0336
24.1667
24.2211
24.2024
24.1163
23.9682
23.7635
23.507
23.2035
22.8576
22.4736
22.0557
21.6076
21.133
20.6353
20.1178
19.5835
19.035
18.4751
17.9061
17.3302
16.7494
16.1657
15.5805
14.9956
14.4121
13.8314
13.2545
12.6823
12.1156
11.5552
11.0015
10.4551
9.9163
9.38537
8.86248
8.34774
7.84114
7.34263
6.85208
6.36931
5.89405
5.42602
4.96486
4.51017
4.06153
3.61846
3.18046
2.747
2.31752
1.89145
1.46818
1.04712
0.627638
0.209107
-127.071
-122.492
-117.595
-112.44
-107.082
-101.571
-95.9521
-90.2681
-84.5569
-78.8526
-73.186
-67.5846
-62.0726
-56.6715
-51.4
-46.2742
-41.3079
-36.5126
-31.8977
-27.4709
-23.2379
-19.2031
-15.3692
-11.7378
-8.30914
-5.0824
-2.05586
0.773076
3.40778
5.85227
8.11116
10.1896
12.093
13.8273
15.3986
16.8134
18.0782
19.1997
20.1846
21.0396
21.7717
22.3874
22.8935
23.2966
23.603
23.8192
23.9512
24.005
23.9865
23.9012
23.7544
23.5515
23.2973
22.9965
22.6537
22.2732
21.8589
21.4148
20.9445
20.4513
19.9384
19.4088
18.8652
18.3103
17.7464
17.1756
16.6
16.0215
15.4415
14.8618
14.2836
13.708
13.1362
12.5691
12.0075
11.4521
10.9034
10.3618
9.82784
9.30165
8.78343
8.27327
7.7712
7.27713
6.79096
6.31249
5.84148
5.37762
4.92057
4.46994
4.0253
3.58618
3.15209
2.7225
2.29685
1.87457
1.45509
1.03778
0.62204
0.207242
-125.896
-121.359
-116.508
-111.401
-106.092
-100.631
-95.0648
-89.4334
-83.775
-78.1235
-72.5093
-66.9597
-61.4986
-56.1475
-50.9247
-45.8463
-40.9259
-36.1749
-31.6027
-27.2168
-23.023
-19.0255
-15.2271
-11.6293
-8.23231
-5.0354
-2.03685
0.765926
3.37626
5.79815
8.03616
10.0953
11.9811
13.6994
15.2562
16.658
17.9111
19.0222
19.9979
20.8451
21.5703
22.1804
22.6818
23.0811
23.3848
23.5989
23.7297
23.783
23.7647
23.6801
23.5348
23.3337
23.0818
22.7839
22.4442
22.0672
21.6568
21.2168
20.7508
20.2621
19.754
19.2293
18.6908
18.141
17.5823
17.0168
16.4465
15.8733
15.2988
14.7244
14.1515
13.5813
13.0148
12.4529
11.8965
11.3462
10.8025
10.266
9.73696
9.21564
8.70221
8.19677
7.69934
7.20984
6.72817
6.25412
5.78746
5.32789
4.87507
4.42861
3.98808
3.55302
3.12294
2.69732
2.27561
1.85724
1.44163
1.02818
0.616288
0.205325
-124.69
-120.197
-115.392
-110.333
-105.076
-99.6674
-94.1541
-88.5767
-82.9724
-77.375
-71.8147
-66.3182
-60.9095
-55.6096
-50.4369
-45.4071
-40.5339
-35.8284
-31.3
-26.9561
-22.8025
-18.8433
-15.0813
-11.5179
-8.15344
-4.98717
-2.01734
0.758586
3.34392
5.7426
7.95917
9.99861
11.8664
13.5682
15.1101
16.4984
17.7395
18.8399
19.8063
20.6454
21.3637
21.9679
22.4645
22.86
23.1607
23.3728
23.5024
23.5552
23.537
23.4533
23.3093