/*--------------------------------*- C++ -*----------------------------------*\
| =========                 |                                                 |
| \\      /  F ield         | OpenFOAM: The Open Source CFD Toolbox           |
|  \\    /   O peration     | Version:  2406                                  |
|   \\  /    A nd           | Website:  www.openfoam.com                      |
|    \\/     M anipulation  |                                                 |
\*---------------------------------------------------------------------------*/
FoamFile
{
    version     2.0;
    format      ascii;
    arch        "LSB;label=32;scalar=64";
    class       volScalarField;
    location    "35";
    object      gradTx;
}
// * * * * * * * * * * * * * * * * * * * * * * * * * * * * * * * * * * * * * //

dimensions      [0 -1 0 1 0 0 0];

internalField   nonuniform List<scalar> 
20000
(
-6.8197
-6.46936
-6.13143
-5.80588
-5.49244
-5.19103
-4.90181
-4.62488
-4.35936
-4.10513
-3.86262
-3.63134
-3.41071
-3.20053
-3.00068
-2.81094
-2.63094
-2.46029
-2.29866
-2.14575
-2.00127
-1.86491
-1.73636
-1.61529
-1.50138
-1.3943
-1.29374
-1.19941
-1.111
-1.02822
-0.950804
-0.878465
-0.81094
-0.747972
-0.689309
-0.634711
-0.583946
-0.53679
-0.493027
-0.452453
-0.414872
-0.380095
-0.347943
-0.318246
-0.290843
-0.26558
-0.242312
-0.2209
-0.201215
-0.183134
-0.166542
-0.15133
-0.137396
-0.124644
-0.112984
-0.102333
-0.092611
-0.0837459
-0.0756691
-0.0683169
-0.0616303
-0.0555544
-0.0500382
-0.0450345
-0.0404996
-0.0363933
-0.0326781
-0.0293198
-0.0262867
-0.0235497
-0.0210819
-0.018859
-0.0168582
-0.0150591
-0.0134427
-0.0119917
-0.0106906
-0.00952486
-0.00848151
-0.00754866
-0.00671554
-0.00597239
-0.00531036
-0.00472148
-0.00419852
-0.00373501
-0.00332513
-0.00296365
-0.00264592
-0.00236781
-0.00212565
-0.00191623
-0.00173672
-0.00158471
-0.00145811
-0.00135518
-0.00127451
-0.00121497
-0.00117574
-0.00115625
-20.4574
-19.4065
-18.3928
-17.416
-16.4758
-15.5722
-14.7045
-13.8731
-13.0767
-12.3146
-11.5871
-10.893
-10.2311
-9.60075
-9.00137
-8.4322
-7.89218
-7.38024
-6.89538
-6.4367
-6.0033
-5.59428
-5.20866
-4.84548
-4.50377
-4.18255
-3.88091
-3.59793
-3.33272
-3.08442
-2.85218
-2.63518
-2.43262
-2.24373
-2.06776
-1.90398
-1.75169
-1.61024
-1.47896
-1.35725
-1.24451
-1.14019
-1.04374
-0.954661
-0.872459
-0.796676
-0.726876
-0.662646
-0.603596
-0.549358
-0.499586
-0.453953
-0.412154
-0.373901
-0.338925
-0.306973
-0.27781
-0.251217
-0.226989
-0.204934
-0.184876
-0.16665
-0.150102
-0.135092
-0.121489
-0.109171
-0.0980262
-0.0879522
-0.0788536
-0.0706432
-0.0632406
-0.0565722
-0.0505705
-0.0451735
-0.0403247
-0.0359723
-0.0320691
-0.0285722
-0.0254424
-0.0226441
-0.020145
-0.0179157
-0.0159298
-0.0141633
-0.0125945
-0.0112041
-0.00997456
-0.00889021
-0.00793711
-0.00710285
-0.00637643
-0.00574821
-0.00520974
-0.00475373
-0.00437397
-0.00406522
-0.00382323
-0.00364462
-0.00352692
-0.00346847
-34.0903
-32.3391
-30.6494
-29.0217
-27.455
-25.9494
-24.5037
-23.1179
-21.7909
-20.5212
-19.3088
-18.152
-17.0489
-15.9986
-14.9999
-14.0514
-13.1515
-12.2983
-11.4904
-10.726
-10.0039
-9.32227
-8.67969
-8.07449
-7.50505
-6.96978
-6.46712
-5.99556
-5.55362
-5.13985
-4.75284
-4.39124
-4.0537
-3.73893
-3.44569
-3.17277
-2.91901
-2.68329
-2.46453
-2.26171
-2.07385
-1.9
-1.73929
-1.59084
-1.45386
-1.32757
-1.21126
-1.10423
-1.00583
-0.915446
-0.832506
-0.756465
-0.686811
-0.623066
-0.564781
-0.511537
-0.462941
-0.418626
-0.378252
-0.3415
-0.308076
-0.277703
-0.250129
-0.225117
-0.202448
-0.181921
-0.16335
-0.146563
-0.131401
-0.117719
-0.105384
-0.0942716
-0.0842703
-0.0752768
-0.0671968
-0.059944
-0.0534398
-0.0476126
-0.0423971
-0.037734
-0.0335694
-0.0298546
-0.0265453
-0.0236016
-0.0209874
-0.0186705
-0.0166215
-0.0148146
-0.0132263
-0.0118361
-0.0106256
-0.00957877
-0.00868147
-0.00792159
-0.00728875
-0.00677425
-0.006371
-0.00607338
-0.00587724
-0.00577984
-47.7147
-45.2639
-42.8988
-40.6204
-38.4276
-36.3201
-34.2967
-32.3571
-30.4997
-28.7228
-27.0257
-25.4064
-23.8625
-22.3925
-20.9948
-19.6672
-18.4076
-17.2134
-16.0825
-15.0127
-14.0019
-13.048
-12.1486
-11.3015
-10.5045
-9.75529
-9.05174
-8.39171
-7.77314
-7.194
-6.65234
-6.14621
-5.67378
-5.23322
-4.82278
-4.44079
-4.08561
-3.75567
-3.44949
-3.16561
-2.90267
-2.65935
-2.4344
-2.22663
-2.0349
-1.85815
-1.69535
-1.54554
-1.40781
-1.28131
-1.16522
-1.05879
-0.961298
-0.872077
-0.790499
-0.715975
-0.647957
-0.585932
-0.529422
-0.477982
-0.431199
-0.388689
-0.350094
-0.315086
-0.283358
-0.254627
-0.228634
-0.205137
-0.183916
-0.164766
-0.147501
-0.131948
-0.117949
-0.105362
-0.0940523
-0.0839008
-0.0747973
-0.0666412
-0.0593413
-0.0528145
-0.0469856
-0.0417861
-0.0371542
-0.0330341
-0.0293752
-0.0261322
-0.0232644
-0.0207353
-0.0185123
-0.0165665
-0.0148722
-0.013407
-0.0121511
-0.0110875
-0.0102017
-0.00948162
-0.00891721
-0.00850064
-0.00822612
-0.00808979
-61.327
-58.1772
-55.1377
-52.2091
-49.3906
-46.6818
-44.0812
-41.5883
-39.201
-36.9172
-34.7359
-32.6545
-30.6703
-28.7809
-26.9845
-25.2782
-23.6591
-22.1242
-20.6706
-19.2957
-17.9966
-16.7705
-15.6145
-14.5258
-13.5013
-12.5384
-11.6341
-10.7858
-9.99074
-9.24639
-8.55019
-7.89967
-7.29245
-6.72621
-6.19868
-5.70771
-5.25119
-4.82713
-4.4336
-4.06873
-3.73078
-3.41804
-3.12891
-2.86186
-2.61544
-2.38826
-2.17901
-1.98647
-1.80945
-1.64685
-1.49765
-1.36085
-1.23555
-1.12087
-1.01602
-0.920236
-0.832813
-0.753093
-0.680462
-0.614347
-0.554217
-0.499579
-0.449973
-0.404977
-0.364197
-0.32727
-0.293861
-0.263661
-0.236386
-0.211773
-0.189581
-0.169591
-0.151599
-0.13542
-0.120885
-0.107837
-0.0961363
-0.0856533
-0.0762708
-0.0678821
-0.0603902
-0.0537073
-0.047754
-0.0424584
-0.0377557
-0.0335875
-0.0299016
-0.0266509
-0.0237937
-0.0212928
-0.0191152
-0.0172319
-0.0156177
-0.0142507
-0.0131122
-0.0121867
-0.0114612
-0.0109258
-0.010573
-0.0103978
-74.9241
-71.076
-67.3628
-63.7848
-60.3415
-57.032
-53.855
-50.8092
-47.8926
-45.1024
-42.4375
-39.8946
-37.4704
-35.1623
-32.9675
-30.8829
-28.9047
-27.0295
-25.2537
-23.5739
-21.9867
-20.4888
-19.0766
-17.7464
-16.4949
-15.3184
-14.2136
-13.1772
-12.2059
-11.2965
-10.4459
-9.65118
-8.90933
-8.21754
-7.57305
-6.97321
-6.41549
-5.8974
-5.41661
-4.97085
-4.55796
-4.17588
-3.82265
-3.49639
-3.19533
-2.91778
-2.66214
-2.4269
-2.21064
-2.01199
-1.82971
-1.66258
-1.50949
-1.36939
-1.24129
-1.12427
-1.01746
-0.920069
-0.831333
-0.750559
-0.677098
-0.610345
-0.549741
-0.494768
-0.444947
-0.399832
-0.359016
-0.32212
-0.288797
-0.258727
-0.231615
-0.207193
-0.185212
-0.165446
-0.147687
-0.131747
-0.117452
-0.104644
-0.0931816
-0.0829329
-0.0737799
-0.0656153
-0.058342
-0.0518723
-0.0461268
-0.0410345
-0.0365313
-0.03256
-0.0290693
-0.0260138
-0.0233534
-0.0210525
-0.0190804
-0.0174103
-0.0160195
-0.0148887
-0.0140024
-0.0133483
-0.0129172
-0.0127032
-88.5028
-83.9573
-79.5713
-75.3449
-71.2775
-67.3682
-63.6154
-60.0176
-56.5724
-53.2766
-50.1286
-47.1248
-44.2614
-41.535
-38.9424
-36.4799
-34.1433
-31.9281
-29.8305
-27.8463
-25.9715
-24.2021
-22.5339
-20.9627
-19.4843
-18.0946
-16.7896
-15.5654
-14.418
-13.3438
-12.3391
-11.4003
-10.524
-9.70684
-8.94555
-8.237
-7.57819
-6.96622
-6.39829
-5.87174
-5.38402
-4.9327
-4.51545
-4.13006
-3.77444
-3.44659
-3.14462
-2.86674
-2.61128
-2.37664
-2.16131
-1.9639
-1.78307
-1.61757
-1.46626
-1.32803
-1.20186
-1.08682
-0.982
-0.886587
-0.799811
-0.720961
-0.649374
-0.584438
-0.525586
-0.472296
-0.424082
-0.380499
-0.341137
-0.305617
-0.273592
-0.244743
-0.218779
-0.19543
-0.174453
-0.155624
-0.138738
-0.12361
-0.110069
-0.0979633
-0.0871514
-0.0775072
-0.0689157
-0.0612734
-0.0544867
-0.0484714
-0.0431521
-0.038461
-0.0343377
-0.0307285
-0.0275859
-0.024868
-0.0225385
-0.0205657
-0.0189228
-0.0175871
-0.0165402
-0.0157675
-0.0152583
-0.0150055
-102.06
-96.818
-91.7601
-86.8863
-82.1959
-77.6878
-73.3601
-69.2112
-65.2382
-61.4376
-57.8074
-54.3435
-51.0414
-47.8974
-44.9077
-42.068
-39.3733
-36.8189
-34.3999
-32.1118
-29.9499
-27.9095
-25.9857
-24.1738
-22.469
-20.8664
-19.3615
-17.9497
-16.6266
-15.3878
-14.2292
-13.1466
-12.1361
-11.1937
-10.3158
-9.49876
-8.73903
-8.03331
-7.37839
-6.77118
-6.20875
-5.6883
-5.20713
-4.76271
-4.35261
-3.97454
-3.62631
-3.30588
-3.01128
-2.74069
-2.49239
-2.26473
-2.0562
-1.86536
-1.69086
-1.53146
-1.38597
-1.2533
-1.13242
-1.0224
-0.922328
-0.831399
-0.748846
-0.673963
-0.606097
-0.544643
-0.489044
-0.438785
-0.393393
-0.352432
-0.315502
-0.282234
-0.252292
-0.225367
-0.201176
-0.179462
-0.15999
-0.142544
-0.12693
-0.112969
-0.100501
-0.0893799
-0.0794723
-0.0706593
-0.0628331
-0.0558964
-0.0497622
-0.0443525
-0.0395976
-0.0354355
-0.0318115
-0.0286774
-0.025991
-0.023716
-0.0218214
-0.0202811
-0.0190738
-0.0181828
-0.0175956
-0.0173041
-115.592
-109.655
-103.926
-98.4063
-93.094
-87.9882
-83.0867
-78.3877
-73.8879
-69.5834
-65.4719
-61.5487
-57.8088
-54.248
-50.8619
-47.6456
-44.5937
-41.7006
-38.9609
-36.3694
-33.9209
-31.6099
-29.4311
-27.379
-25.4481
-23.633
-21.9286
-20.3296
-18.831
-17.428
-16.1158
-14.8897
-13.7452
-12.6779
-11.6836
-10.7582
-9.89771
-9.09843
-8.35667
-7.66895
-7.03196
-6.44249
-5.89753
-5.39418
-4.92971
-4.50151
-4.10711
-3.74419
-3.41054
-3.10407
-2.82284
-2.565
-2.32882
-2.11268
-1.91505
-1.73451
-1.56973
-1.41947
-1.28257
-1.15795
-1.04462
-0.941631
-0.848133
-0.763322
-0.686457
-0.616855
-0.553885
-0.496962
-0.445552
-0.39916
-0.357333
-0.319654
-0.285742
-0.255247
-0.22785
-0.203257
-0.181203
-0.161444
-0.143759
-0.127948
-0.113827
-0.101231
-0.0900094
-0.0800279
-0.0711639
-0.0633076
-0.0563601
-0.0502331
-0.0448478
-0.0401339
-0.0360294
-0.0324797
-0.0294371
-0.0268605
-0.0247147
-0.0229702
-0.0216028
-0.0205937
-0.0199286
-0.0195984
-129.095
-122.465
-116.067
-109.902
-103.969
-98.2669
-92.7928
-87.5449
-82.5194
-77.7121
-73.1203
-68.7387
-64.562
-60.5852
-56.8036
-53.2116
-49.8031
-46.572
-43.5122
-40.618
-37.8835
-35.3026
-32.8693
-30.5774
-28.4209
-26.3938
-24.4902
-22.7045
-21.0309
-19.464
-17.9984
-16.6291
-15.3509
-14.1589
-13.0484
-12.0149
-11.054
-10.1613
-9.33288
-8.56483
-7.85342
-7.1951
-6.58647
-6.02433
-5.5056
-5.02737
-4.5869
-4.18158
-3.80895
-3.46669
-3.15261
-2.86465
-2.60087
-2.35948
-2.13876
-1.93713
-1.7531
-1.58529
-1.4324
-1.29322
-1.16665
-1.05163
-0.947211
-0.852492
-0.766649
-0.688916
-0.618589
-0.555017
-0.497601
-0.44579
-0.399076
-0.356996
-0.319123
-0.285065
-0.254467
-0.227001
-0.202371
-0.180304
-0.160553
-0.142895
-0.127124
-0.113056
-0.100524
-0.0893767
-0.0794773
-0.0707032
-0.0629441
-0.0561014
-0.0500869
-0.0448223
-0.0402383
-0.0362739
-0.032876
-0.0299984
-0.0276019
-0.0256536
-0.0241265
-0.0229994
-0.0222567
-0.0218879
-142.566
-135.244
-128.179
-121.371
-114.819
-108.521
-102.476
-96.6804
-91.1305
-85.8216
-80.7506
-75.9118
-71.2992
-66.9075
-62.7312
-58.7643
-55.0001
-51.4319
-48.0529
-44.8567
-41.8368
-38.9865
-36.2993
-33.7682
-31.3867
-29.1481
-27.0459
-25.0737
-23.2255
-21.4951
-19.8766
-18.3644
-16.9528
-15.6364
-14.4101
-13.2687
-12.2075
-11.2217
-10.3068
-9.4586
-8.67295
-7.94593
-7.27379
-6.65298
-6.08012
-5.55199
-5.06556
-4.61794
-4.20643
-3.82845
-3.48159
-3.16358
-2.87228
-2.6057
-2.36195
-2.13928
-1.93605
-1.75072
-1.58187
-1.42817
-1.28839
-1.16137
-1.04606
-0.941452
-0.846651
-0.760806
-0.683141
-0.612935
-0.549527
-0.492309
-0.440721
-0.39425
-0.352424
-0.314813
-0.281021
-0.25069
-0.223489
-0.199119
-0.177308
-0.157806
-0.14039
-0.124854
-0.111014
-0.0987035
-0.0877711
-0.0780813
-0.0695126
-0.0619558
-0.0553137
-0.0494997
-0.0444373
-0.0400593
-0.0363067
-0.0331288
-0.0304822
-0.0283306
-0.0266442
-0.0253996
-0.0245793
-0.024172
-156.003
-147.99
-140.259
-132.809
-125.64
-118.749
-112.134
-105.792
-99.7192
-93.91
-88.361
-83.0662
-78.0189
-73.2132
-68.6434
-64.3026
-60.1836
-56.2791
-52.5816
-49.0842
-45.7797
-42.6609
-39.7204
-36.9508
-34.3448
-31.8952
-29.5948
-27.4368
-25.4144
-23.5209
-21.7499
-20.0951
-18.5505
-17.1101
-15.7682
-14.5192
-13.358
-12.2792
-11.2782
-10.35
-9.49034
-8.69479
-7.95931
-7.28
-6.65315
-6.07524
-5.54297
-5.05317
-4.60287
-4.18926
-3.80971
-3.46173
-3.14298
-2.85127
-2.58455
-2.3409
-2.11851
-1.91572
-1.73096
-1.56277
-1.40982
-1.27083
-1.14464
-1.03018
-0.926444
-0.832509
-0.747524
-0.670701
-0.601318
-0.538707
-0.482258
-0.431406
-0.385639
-0.344482
-0.307506
-0.274316
-0.244552
-0.217885
-0.194018
-0.172679
-0.153621
-0.136621
-0.121477
-0.108006
-0.0960432
-0.0854402
-0.0760639
-0.0677949
-0.0605268
-0.0541649
-0.0486254
-0.0438347
-0.0397285
-0.0362511
-0.0333551
-0.0310007
-0.0291554
-0.0277934
-0.0268959
-0.0264502
-169.4
-160.7
-152.305
-144.215
-136.43
-128.947
-121.764
-114.878
-108.283
-101.975
-95.9496
-90.2
-84.7192
-79.5009
-74.5386
-69.825
-65.3523
-61.1124
-57.0974
-53.2997
-49.7114
-46.3247
-43.1316
-40.1242
-37.2944
-34.6344
-32.1365
-29.7931
-27.597
-25.5409
-23.6178
-21.8209
-20.1436
-18.5795
-17.1224
-15.7662
-14.5052
-13.3338
-12.2468
-11.2389
-10.3054
-9.44152
-8.64287
-7.90522
-7.22453
-6.597
-6.01901
-5.48714
-4.99817
-4.54904
-4.1369
-3.75903
-3.41291
-3.09615
-2.80652
-2.54194
-2.30045
-2.08024
-1.87961
-1.69699
-1.53089
-1.37997
-1.24295
-1.11865
-1.00601
-0.904007
-0.811723
-0.728303
-0.65296
-0.584973
-0.523675
-0.468456
-0.418758
-0.374067
-0.333916
-0.297875
-0.265554
-0.236598
-0.210681
-0.187509
-0.166814
-0.148354
-0.13191
-0.117282
-0.104292
-0.092778
-0.0825965
-0.0736173
-0.065725
-0.0588167
-0.0528015
-0.0475994
-0.0431405
-0.0393645
-0.0362198
-0.0336632
-0.0316593
-0.0301804
-0.0292058
-0.0287219
-182.756
-173.37
-164.313
-155.585
-147.186
-139.114
-131.364
-123.935
-116.821
-110.015
-103.515
-97.3116
-91.3987
-85.769
-80.4154
-75.3302
-70.5048
-65.9306
-61.5991
-57.5019
-53.6308
-49.9771
-46.5323
-43.2877
-40.2348
-37.365
-34.6702
-32.1421
-29.7728
-27.5546
-25.4799
-23.5414
-21.7318
-20.0444
-18.4723
-17.0092
-15.6488
-14.3851
-13.2123
-12.125
-11.1179
-10.1859
-9.3243
-8.52848
-7.79413
-7.11712
-6.49356
-5.91976
-5.39224
-4.9077
-4.46306
-4.0554
-3.68199
-3.34026
-3.02779
-2.74235
-2.48182
-2.24425
-2.02781
-1.83078
-1.65159
-1.48877
-1.34094
-1.20685
-1.08533
-0.975281
-0.875721
-0.785724
-0.704442
-0.631094
-0.564963
-0.505391
-0.451774
-0.40356
-0.360243
-0.32136
-0.286492
-0.255252
-0.227292
-0.202293
-0.179966
-0.160051
-0.14231
-0.126529
-0.112514
-0.100093
-0.0891087
-0.0794216
-0.070907
-0.0634541
-0.0569646
-0.0513523
-0.0465419
-0.0424682
-0.0390755
-0.0363173
-0.0341555
-0.03256
-0.0315086
-0.0309864
-196.067
-185.997
-176.281
-166.917
-157.907
-149.246
-140.932
-132.962
-125.329
-118.028
-111.054
-104.399
-98.0556
-92.0159
-86.2724
-80.8168
-75.64
-70.7326
-66.0856
-61.6901
-57.5369
-53.6171
-49.9214
-46.4405
-43.1652
-40.0865
-37.1954
-34.4831
-31.9413
-29.5615
-27.3357
-25.256
-23.3146
-21.5043
-19.8178
-18.2481
-16.7886
-15.4328
-14.1746
-13.0081
-11.9276
-10.9278
-10.0034
-9.14965
-8.36181
-7.63549
-6.96651
-6.35092
-5.78498
-5.26515
-4.78813
-4.35078
-3.95017
-3.58354
-3.24832
-2.94209
-2.66259
-2.40771
-2.1755
-1.96413
-1.77189
-1.5972
-1.43861
-1.29475
-1.16437
-1.04632
-0.939504
-0.842952
-0.755749
-0.677059
-0.606112
-0.542201
-0.484679
-0.432953
-0.386481
-0.344767
-0.307358
-0.273843
-0.243846
-0.217027
-0.193074
-0.171708
-0.152675
-0.135744
-0.120709
-0.107383
-0.0955989
-0.0852063
-0.0760716
-0.0680758
-0.0611137
-0.0550926
-0.0499318
-0.0455614
-0.0419216
-0.0389625
-0.0366433
-0.0349315
-0.0338035
-0.0332434
-209.33
-198.578
-188.205
-178.208
-168.588
-159.341
-150.465
-141.956
-133.807
-126.012
-118.566
-111.461
-104.688
-98.2401
-92.1081
-86.2835
-80.7565
-75.5171
-70.5558
-65.8629
-61.4289
-57.2439
-53.2982
-49.5819
-46.0851
-42.798
-39.7113
-36.8157
-34.1019
-31.5611
-29.1847
-26.9643
-24.8917
-22.9589
-21.1583
-19.4824
-17.9242
-16.4767
-15.1334
-13.888
-12.7345
-11.667
-10.6801
-9.76855
-8.92742
-8.15197
-7.43775
-6.78051
-6.17629
-5.6213
-5.11201
-4.64507
-4.21737
-3.82594
-3.46804
-3.1411
-2.84269
-2.57058
-2.32266
-2.09699
-1.89174
-1.70524
-1.53592
-1.38233
-1.24314
-1.11709
-1.00305
-0.899971
-0.80687
-0.722857
-0.647111
-0.578877
-0.517464
-0.462239
-0.412624
-0.368088
-0.328149
-0.292367
-0.260341
-0.231707
-0.206134
-0.183323
-0.163003
-0.144927
-0.128875
-0.114647
-0.102066
-0.09097
-0.0812173
-0.0726807
-0.0652476
-0.0588193
-0.0533094
-0.0486433
-0.0447574
-0.0415982
-0.039122
-0.0372945
-0.0360902
-0.0354921
-222.54
-211.111
-200.082
-189.455
-179.227
-169.398
-159.961
-150.914
-142.251
-133.964
-126.049
-118.495
-111.295
-104.44
-97.921
-91.7288
-85.853
-80.283
-75.0086
-70.0196
-65.3057
-60.8566
-56.6619
-52.711
-48.9935
-45.499
-42.2175
-39.1391
-36.254
-33.5529
-31.0266
-28.6661
-26.4626
-24.4078
-22.4936
-20.712
-19.0554
-17.5166
-16.0885
-14.7645
-13.5381
-12.4033
-11.3541
-10.385
-9.49083
-8.66645
-7.90714
-7.20843
-6.56607
-5.97606
-5.43463
-4.93823
-4.48352
-4.0674
-3.68691
-3.33933
-3.02209
-2.73281
-2.46924
-2.22933
-2.01113
-1.81286
-1.63285
-1.46957
-1.32159
-1.18759
-1.06636
-0.956769
-0.857792
-0.768477
-0.68795
-0.61541
-0.550121
-0.491412
-0.438665
-0.391318
-0.348858
-0.310818
-0.276771
-0.24633
-0.219144
-0.194893
-0.17329
-0.154073
-0.137008
-0.121883
-0.108507
-0.0967112
-0.0863431
-0.0772677
-0.0693655
-0.0625315
-0.0566739
-0.0517133
-0.0475821
-0.0442235
-0.0415911
-0.0396482
-0.0383679
-0.0377322
-235.696
-223.591
-211.911
-200.655
-189.823
-179.412
-169.418
-159.836
-150.661
-141.884
-133.5
-125.5
-117.875
-110.614
-103.71
-97.1516
-90.9284
-85.0291
-79.4429
-74.1589
-69.1664
-64.4543
-60.0116
-55.8272
-51.8899
-48.1888
-44.7133
-41.4529
-38.3973
-35.5365
-32.8608
-30.3607
-28.027
-25.8508
-23.8233
-21.9364
-20.1819
-18.5521
-17.0396
-15.6373
-14.3385
-13.1365
-12.0253
-10.999
-10.0519
-9.17878
-8.37459
-7.63457
-6.95424
-6.32935
-5.75591
-5.23016
-4.74858
-4.30785
-3.90487
-3.53674
-3.20075
-2.89436
-2.61522
-2.36112
-2.13002
-1.92003
-1.72938
-1.55645
-1.39972
-1.2578
-1.1294
-1.01333
-0.908503
-0.813908
-0.72862
-0.651791
-0.582643
-0.520463
-0.464597
-0.414452
-0.369482
-0.329193
-0.293133
-0.260893
-0.232099
-0.206415
-0.183534
-0.163182
-0.145108
-0.129088
-0.114922
-0.102429
-0.0914475
-0.0818356
-0.0734663
-0.0662283
-0.0600244
-0.0547706
-0.0503951
-0.046838
-0.0440499
-0.0419922
-0.0406362
-0.0399629
-248.794
-236.016
-223.687
-211.805
-200.371
-189.382
-178.832
-168.718
-159.033
-149.769
-140.919
-132.475
-124.425
-116.761
-109.473
-102.55
-95.9813
-89.7542
-83.8576
-78.28
-73.01
-68.0361
-63.3465
-58.9295
-54.7734
-50.8667
-47.198
-43.7564
-40.531
-37.5113
-34.6869
-32.0479
-29.5845
-27.2873
-25.1472
-23.1554
-21.3034
-19.583
-17.9865
-16.5063
-15.1353
-13.8665
-12.6936
-11.6102
-10.6105
-9.68885
-8.83997
-8.05883
-7.34069
-6.68107
-6.07577
-5.5208
-5.01246
-4.54724
-4.12187
-3.73328
-3.37862
-3.0552
-2.76055
-2.49233
-2.24839
-2.02673
-1.82549
-1.64294
-1.4775
-1.32769
-1.19216
-1.06964
-0.958989
-0.859137
-0.76911
-0.688012
-0.615021
-0.549385
-0.490415
-0.437483
-0.390015
-0.347487
-0.309423
-0.275391
-0.244997
-0.217886
-0.193734
-0.17225
-0.153171
-0.136262
-0.121308
-0.108121
-0.0965295
-0.0863834
-0.077549
-0.0699087
-0.0633601
-0.0578143
-0.0531957
-0.0494409
-0.0464979
-0.0443259
-0.0428945
-0.0421837
-261.831
-248.383
-235.407
-222.904
-210.871
-199.305
-188.203
-177.559
-167.366
-157.616
-148.303
-139.416
-130.945
-122.879
-115.209
-107.924
-101.011
-94.4572
-88.2516
-82.3817
-76.8356
-71.6011
-66.6658
-62.0173
-57.6434
-53.532
-49.6711
-46.0492
-42.6548
-39.4768
-36.5044
-33.7271
-31.1346
-28.7171
-26.4649
-24.3687
-22.4197
-20.6092
-18.929
-17.3712
-15.9283
-14.5931
-13.3587
-12.2186
-11.1665
-10.1965
-9.30317
-8.4811
-7.72533
-7.03115
-6.39413
-5.81008
-5.2751
-4.78551
-4.33785
-3.9289
-3.55565
-3.21529
-2.9052
-2.62292
-2.3662
-2.13293
-1.92114
-1.72903
-1.55492
-1.39726
-1.25463
-1.12569
-1.00924
-0.904155
-0.809411
-0.724063
-0.647248
-0.578172
-0.516113
-0.460407
-0.410451
-0.365695
-0.325636
-0.289821
-0.257835
-0.229303
-0.203885
-0.181276
-0.161197
-0.143402
-0.127665
-0.113786
-0.101588
-0.0909099
-0.0816125
-0.073572
-0.0666801
-0.0608438
-0.0559832
-0.0520316
-0.0489344
-0.0466486
-0.0451422
-0.0443942
-274.802
-260.689
-247.07
-233.947
-221.318
-209.179
-197.527
-186.355
-175.658
-165.425
-155.65
-146.323
-137.432
-128.967
-120.917
-113.271
-106.015
-99.1369
-92.6238
-86.4632
-80.6423
-75.1484
-69.9686
-65.0898
-60.4993
-56.1841
-52.132
-48.3306
-44.768
-41.4326
-38.3129
-35.398
-32.6771
-30.1398
-27.776
-25.576
-23.5304
-21.6302
-19.8668
-18.2318
-16.7175
-15.3161
-14.0205
-12.8239
-11.7197
-10.7017
-9.76407
-8.90128
-8.10806
-7.37949
-6.71091
-6.09793
-5.53645
-5.02259
-4.55276
-4.12355
-3.73181
-3.37459
-3.04913
-2.75287
-2.48343
-2.2386
-2.01632
-1.81469
-1.63196
-1.46649
-1.31678
-1.18146
-1.05924
-0.948949
-0.849511
-0.759935
-0.679314
-0.606817
-0.541682
-0.483217
-0.430786
-0.383812
-0.34177
-0.30418
-0.270609
-0.240663
-0.213986
-0.190257
-0.169184
-0.150506
-0.13399
-0.119424
-0.106621
-0.0954139
-0.085656
-0.077217
-0.0699838
-0.0638582
-0.0587569
-0.0546095
-0.0513589
-0.0489598
-0.0473788
-0.0465937
-287.706
-272.93
-258.672
-244.932
-231.71
-219.002
-206.802
-195.106
-183.906
-173.193
-162.959
-153.194
-143.886
-135.023
-126.595
-118.59
-110.993
-103.792
-96.9732
-90.5233
-84.4291
-78.6772
-73.2541
-68.1463
-63.3401
-58.8224
-54.58
-50.6
-46.8702
-43.3781
-40.112
-37.0602
-34.2116
-31.5551
-29.0803
-26.777
-24.6353
-22.6459
-20.7997
-19.0879
-17.5025
-16.0353
-14.6789
-13.4261
-12.27
-11.2042
-10.2226
-9.31926
-8.4888
-7.72601
-7.02604
-6.38427
-5.79642
-5.25844
-4.76654
-4.31718
-3.90705
-3.53305
-3.19231
-2.88214
-2.60005
-2.34372
-2.111
-1.8999
-1.70859
-1.53535
-1.37862
-1.23694
-1.10898
-0.99351
-0.889402
-0.79562
-0.711213
-0.635312
-0.567119
-0.505908
-0.451015
-0.401835
-0.357818
-0.318463
-0.283316
-0.251964
-0.224035
-0.199191
-0.177128
-0.157574
-0.140282
-0.125032
-0.111627
-0.0998944
-0.0896783
-0.0808431
-0.0732701
-0.066857
-0.061516
-0.0571739
-0.0537706
-0.0512589
-0.0496037
-0.0487817
-300.539
-285.104
-270.21
-255.858
-242.045
-228.77
-216.026
-203.809
-192.109
-180.918
-170.228
-160.027
-150.303
-141.046
-132.242
-123.879
-115.944
-108.422
-101.299
-94.561
-88.195
-82.1866
-76.5216
-71.1859
-66.1654
-61.4461
-57.0145
-52.857
-48.9608
-45.313
-41.9012
-38.7133
-35.7376
-32.9626
-30.3774
-27.9713
-25.7341
-23.656
-21.7274
-19.9394
-18.2832
-16.7505
-15.3336
-14.0249
-12.8173
-11.704
-10.6785
-9.73494
-8.86744
-8.07063
-7.33943
-6.66904
-6.05497
-5.49299
-4.97915
-4.50975
-4.08132
-3.69064
-3.3347
-3.01069
-2.71602
-2.44826
-2.20516
-1.98465
-1.7848
-1.60384
-1.44011
-1.29211
-1.15844
-1.03783
-0.929074
-0.831109
-0.742937
-0.66365
-0.592415
-0.528474
-0.471132
-0.419759
-0.373779
-0.332669
-0.295953
-0.263203
-0.234028
-0.208076
-0.185029
-0.164603
-0.146539
-0.130609
-0.116607
-0.10435
-0.0936785
-0.0844492
-0.0765385
-0.0698392
-0.06426
-0.0597243
-0.0561692
-0.0535454
-0.0518163
-0.0509577
-313.298
-297.207
-281.681
-266.72
-252.321
-238.482
-225.197
-212.461
-200.265
-188.599
-177.454
-166.821
-156.684
-147.033
-137.856
-129.138
-120.866
-113.025
-105.599
-98.5754
-91.9392
-85.6757
-79.7702
-74.208
-68.9743
-64.0547
-59.4349
-55.101
-51.0393
-47.2367
-43.68
-40.3568
-37.2547
-34.362
-31.667
-29.1588
-26.8266
-24.6603
-22.6498
-20.7858
-19.0593
-17.4617
-15.9846
-14.6203
-13.3614
-12.2008
-11.1319
-10.1482
-9.24389
-8.41325
-7.65101
-6.95216
-6.31202
-5.72619
-5.19053
-4.7012
-4.25458
-3.84732
-3.47627
-3.13851
-2.83132
-2.55219
-2.29878
-2.0689
-1.86057
-1.67192
-1.50125
-1.34697
-1.20762
-1.08188
-0.968516
-0.866392
-0.774477
-0.691824
-0.617565
-0.550909
-0.491134
-0.43758
-0.389647
-0.346792
-0.308518
-0.274377
-0.243963
-0.216909
-0.192885
-0.171591
-0.15276
-0.136154
-0.121557
-0.10878
-0.0976556
-0.0880344
-0.0797879
-0.0728042
-0.0669882
-0.0622599
-0.0585539
-0.0558187
-0.0540162
-0.0531212
-325.98
-309.237
-293.083
-277.516
-262.534
-248.135
-234.313
-221.061
-208.371
-196.233
-184.637
-173.573
-163.027
-152.985
-143.436
-134.365
-125.758
-117.599
-109.873
-102.566
-95.6606
-89.1436
-82.9991
-77.2118
-71.7662
-66.6475
-61.8407
-57.3313
-53.1053
-49.1487
-45.4481
-41.9903
-38.7627
-35.7528
-32.9488
-30.3391
-27.9125
-25.6584
-23.5666
-21.6272
-19.8308
-18.1685
-16.6316
-15.2121
-13.9023
-12.6947
-11.5825
-10.559
-9.61806
-8.7538
-7.9607
-7.23357
-6.56752
-5.95797
-5.40063
-4.89149
-4.4268
-4.00305
-3.61698
-3.26555
-2.94593
-2.6555
-2.39183
-2.15265
-1.93588
-1.7396
-1.56202
-1.40149
-1.25651
-1.12568
-1.00772
-0.901462
-0.805827
-0.719828
-0.642563
-0.573209
-0.511014
-0.455292
-0.40542
-0.360829
-0.321006
-0.285483
-0.253839
-0.22569
-0.200692
-0.178536
-0.158944
-0.141665
-0.126478
-0.113184
-0.101609
-0.091598
-0.0830176
-0.0757513
-0.0696999
-0.0647801
-0.0609241
-0.0580782
-0.0562028
-0.0552715
-338.581
-321.191
-304.412
-288.243
-272.683
-257.727
-243.371
-229.606
-216.426
-203.818
-191.775
-180.283
-169.329
-158.899
-148.981
-139.56
-130.62
-122.145
-114.121
-106.53
-99.3585
-92.5896
-86.2076
-80.1965
-74.5405
-69.2238
-64.2312
-59.5475
-55.1581
-51.0486
-47.2049
-43.6135
-40.2611
-37.1349
-34.2225
-31.5119
-28.9915
-26.6503
-24.4776
-22.4632
-20.5974
-18.8708
-17.2745
-15.8002
-14.4397
-13.1854
-12.0302
-10.9672
-9.98985
-9.09219
-8.26843
-7.51319
-6.82139
-6.18828
-5.6094
-5.08058
-4.59792
-4.15779
-3.7568
-3.39178
-3.05981
-2.75815
-2.48428
-2.23586
-2.01072
-1.80685
-1.6224
-1.45567
-1.30508
-1.16919
-1.04667
-0.936309
-0.836977
-0.747654
-0.667402
-0.595368
-0.530768
-0.472892
-0.421092
-0.374778
-0.333415
-0.296519
-0.263651
-0.234414
-0.20845
-0.185438
-0.165088
-0.147141
-0.131367
-0.117559
-0.105537
-0.095139
-0.0862269
-0.0786797
-0.0723943
-0.0672844
-0.0632793
-0.0603234
-0.0583755
-0.0574082
-351.099
-333.066
-315.667
-298.9
-282.764
-267.256
-252.368
-238.095
-224.427
-211.354
-198.865
-186.948
-175.589
-164.773
-154.489
-144.719
-135.449
-126.661
-118.34
-110.469
-103.032
-96.0127
-89.3947
-83.1614
-77.2963
-71.7831
-66.6059
-61.749
-57.1973
-52.9359
-48.9501
-45.2259
-41.7496
-38.5078
-35.4877
-32.6769
-30.0633
-27.6356
-25.3826
-23.2937
-21.3589
-19.5684
-17.9132
-16.3843
-14.9735
-13.6729
-12.475
-11.3726
-10.3592
-9.42833
-8.57412
-7.79096
-7.07358
-6.41707
-5.81678
-5.26841
-4.76791
-4.31151
-3.89569
-3.51718
-3.17293
-2.86012
-2.57613
-2.31852
-2.08506
-1.87365
-1.68238
-1.50948
-1.35333
-1.21242
-1.08537
-0.970926
-0.867921
-0.775295
-0.692077
-0.617379
-0.550391
-0.490376
-0.43666
-0.388634
-0.345742
-0.307482
-0.273399
-0.243081
-0.216157
-0.192294
-0.171192
-0.152581
-0.136224
-0.121906
-0.109438
-0.0986565
-0.0894149
-0.0815887
-0.0750709
-0.0697721
-0.0656189
-0.0625537
-0.0605338
-0.0595308
-363.529
-344.859
-326.843
-309.483
-292.776
-276.718
-261.303
-246.525
-232.373
-218.837
-205.906
-193.567
-181.806
-170.607
-159.958
-149.843
-140.245
-131.146
-122.53
-114.38
-106.68
-99.4121
-92.5598
-86.1058
-80.033
-74.3246
-68.9641
-63.9353
-59.2224
-54.8101
-50.6832
-46.8272
-43.2278
-39.8712
-36.7442
-33.8338
-31.1278
-28.614
-26.2812
-24.1184
-22.1151
-20.2613
-18.5474
-16.9644
-15.5037
-14.157
-12.9167
-11.7753
-10.726
-9.76215
-8.8777
-8.06681
-7.32403
-6.64427
-6.02273
-5.45494
-4.93672
-4.46416
-4.03362
-3.64171
-3.28527
-2.96139
-2.66734
-2.40061
-2.15888
-1.93999
-1.74195
-1.56293
-1.40124
-1.25534
-1.1238
-1.0053
-0.898651
-0.802746
-0.716581
-0.639238
-0.569879
-0.507738
-0.452121
-0.402394
-0.357984
-0.318369
-0.283079
-0.251687
-0.223811
-0.199103
-0.177253
-0.157984
-0.141047
-0.126222
-0.113313
-0.10215
-0.0925809
-0.0844775
-0.077729
-0.0722426
-0.0679424
-0.0647687
-0.0626772
-0.0616386
-375.871
-356.566
-337.939
-319.989
-302.715
-286.112
-270.174
-254.894
-240.262
-226.266
-212.896
-200.138
-187.978
-176.399
-165.389
-154.93
-145.006
-135.598
-126.69
-118.263
-110.301
-102.787
-95.7021
-89.029
-82.75
-76.8478
-71.3053
-66.1058
-61.233
-56.6708
-52.4038
-48.4169
-44.6953
-41.2248
-37.9916
-34.9824
-32.1845
-29.5854
-27.1735
-24.9372
-22.8659
-20.9491
-19.1771
-17.5403
-16.03
-14.6376
-13.3552
-12.175
-11.0901
-10.0936
-9.17908
-8.34066
-7.57267
-6.86983
-6.22719
-5.64013
-5.10432
-4.61571
-4.17055
-3.76534
-3.3968
-3.06192
-2.75789
-2.48211
-2.23217
-2.00585
-1.80108
-1.61599
-1.44882
-1.29796
-1.16195
-1.03943
-0.929159
-0.829998
-0.740908
-0.66094
-0.589225
-0.524975
-0.46747
-0.416055
-0.370137
-0.329177
-0.292689
-0.260232
-0.231409
-0.205862
-0.183271
-0.163347
-0.145836
-0.130507
-0.11716
-0.105618
-0.095724
-0.0873456
-0.0803679
-0.0746952
-0.070249
-0.0669676
-0.0648051
-0.0637313
-388.119
-368.185
-348.951
-330.417
-312.58
-295.436
-278.979
-263.201
-248.091
-233.639
-219.834
-206.66
-194.103
-182.148
-170.778
-159.979
-149.731
-140.017
-130.818
-122.117
-113.896
-106.137
-98.8208
-91.9302
-85.4466
-79.352
-73.6289
-68.26
-63.2283
-58.5175
-54.1115
-49.9946
-46.1518
-42.5682
-39.2296
-36.1224
-33.2333
-30.5495
-28.059
-25.7498
-23.611
-21.6318
-19.802
-18.1119
-16.5524
-15.1146
-13.7904
-12.5718
-11.4515
-10.4225
-9.4782
-8.61246
-7.81944
-7.0937
-6.43012
-5.82393
-5.27065
-4.76613
-4.30646
-3.88804
-3.50749
-3.1617
-2.84777
-2.563
-2.30491
-2.07121
-1.85977
-1.66865
-1.49603
-1.34026
-1.19982
-1.0733
-0.959438
-0.857045
-0.765052
-0.682478
-0.608427
-0.542083
-0.482703
-0.429613
-0.382199
-0.339905
-0.302227
-0.268713
-0.23895
-0.212571
-0.189243
-0.168671
-0.150588
-0.13476
-0.120978
-0.10906
-0.0988435
-0.0901921
-0.082987
-0.0771295
-0.0725384
-0.06915
-0.0669171
-0.0658083
-400.272
-379.714
-359.878
-340.763
-322.367
-304.687
-287.714
-271.442
-255.86
-240.955
-226.717
-213.131
-200.181
-187.851
-176.126
-164.988
-154.419
-144.401
-134.914
-125.941
-117.462
-109.46
-101.915
-94.8087
-88.1221
-81.8367
-75.9344
-70.3973
-65.2081
-60.3498
-55.8058
-51.5601
-47.5969
-43.9011
-40.458
-37.2535
-34.2739
-31.5061
-28.9375
-26.5561
-24.3503
-22.3091
-20.422
-18.679
-17.0707
-15.5879
-14.2222
-12.9654
-11.8101
-10.7488
-9.77498
-8.88213
-8.06428
-7.31582
-6.63146
-6.00629
-5.43569
-4.91536
-4.4413
-4.00978
-3.61732
-3.2607
-2.93694
-2.64325
-2.37708
-2.13606
-1.91801
-1.7209
-1.54287
-1.38223
-1.23739
-1.10691
-0.98948
-0.883881
-0.789008
-0.703848
-0.627478
-0.559057
-0.497818
-0.443065
-0.394166
-0.350548
-0.311691
-0.277127
-0.246432
-0.219227
-0.195169
-0.173952