/*--------------------------------*- C++ -*----------------------------------*\
| =========                 |                                                 |
| \\      /  F ield         | OpenFOAM: The Open Source CFD Toolbox           |
|  \\    /   O peration     | Version:  2406                                  |
|   \\  /    A nd           | Website:  www.openfoam.com                      |
|    \\/     M anipulation  |                                                 |
\*---------------------------------------------------------------------------*/
FoamFile
{
    version     2.0;
    format      ascii;
    arch        "LSB;label=32;scalar=64";
    class       volScalarField;
    location    "35";
    object      T;
}
// * * * * * * * * * * * * * * * * * * * * * * * * * * * * * * * * * * * * * //

dimensions      [0 0 0 1 0 0 0];

internalField   nonuniform List<scalar> 
20000
(
300.53
300.497
300.465
300.435
300.407
300.38
300.355
300.331
300.309
300.288
300.268
300.249
300.231
300.215
300.199
300.185
300.171
300.159
300.147
300.136
300.125
300.116
300.107
300.098
300.091
300.083
300.077
300.07
300.065
300.059
300.054
300.05
300.045
300.042
300.038
300.035
300.032
300.029
300.026
300.024
300.022
300.02
300.018
300.016
300.015
300.013
300.012
300.011
300.01
300.009
300.008
300.007
300.007
300.006
300.005
300.005
300.004
300.004
300.003
300.003
300.003
300.003
300.002
300.002
300.002
300.002
300.001
300.001
300.001
300.001
300.001
300.001
300.001
300.001
300.001
300
300
300
300
300
300
300
300
300
300
300
300
300
300
300
300
300
300
300
300
300
300
300
300
300
301.589
301.49
301.395
301.306
301.221
301.141
301.065
300.994
300.926
300.863
300.803
300.747
300.694
300.645
300.598
300.555
300.514
300.476
300.44
300.407
300.376
300.347
300.32
300.295
300.271
300.25
300.23
300.211
300.194
300.178
300.163
300.149
300.136
300.125
300.114
300.104
300.095
300.087
300.079
300.072
300.065
300.059
300.054
300.049
300.044
300.04
300.036
300.033
300.03
300.027
300.024
300.022
300.02
300.018
300.016
300.014
300.013
300.012
300.01
300.009
300.008
300.008
300.007
300.006
300.005
300.005
300.004
300.004
300.003
300.003
300.003
300.002
300.002
300.002
300.002
300.001
300.001
300.001
300.001
300.001
300.001
300.001
300.001
300.001
300
300
300
300
300
300
300
300
300
300
300
300
300
300
300
300
302.648
302.482
302.325
302.176
302.035
301.901
301.775
301.656
301.544
301.438
301.339
301.245
301.157
301.075
300.997
300.925
300.857
300.793
300.734
300.678
300.626
300.578
300.533
300.491
300.452
300.416
300.383
300.352
300.323
300.296
300.271
300.249
300.227
300.208
300.19
300.174
300.158
300.144
300.131
300.12
300.109
300.099
300.09
300.082
300.074
300.067
300.061
300.055
300.05
300.045
300.04
300.037
300.033
300.03
300.027
300.024
300.022
300.019
300.017
300.016
300.014
300.013
300.011
300.01
300.009
300.008
300.007
300.006
300.006
300.005
300.004
300.004
300.004
300.003
300.003
300.002
300.002
300.002
300.002
300.002
300.001
300.001
300.001
300.001
300.001
300.001
300.001
300.001
300
300
300
300
300
300
300
300
300
300
300
300
303.706
303.474
303.254
303.045
302.848
302.661
302.484
302.318
302.161
302.013
301.874
301.743
301.62
301.504
301.396
301.294
301.199
301.11
301.027
300.949
300.877
300.809
300.746
300.688
300.633
300.583
300.536
300.492
300.452
300.414
300.38
300.348
300.318
300.291
300.266
300.243
300.222
300.202
300.184
300.168
300.152
300.138
300.126
300.114
300.104
300.094
300.085
300.077
300.069
300.063
300.057
300.051
300.046
300.042
300.037
300.034
300.03
300.027
300.024
300.022
300.02
300.018
300.016
300.014
300.013
300.011
300.01
300.009
300.008
300.007
300.006
300.006
300.005
300.004
300.004
300.003
300.003
300.003
300.002
300.002
300.002
300.002
300.001
300.001
300.001
300.001
300.001
300.001
300.001
300.001
300
300
300
300
300
300
300
300
300
300
304.764
304.465
304.182
303.914
303.66
303.42
303.193
302.979
302.777
302.587
302.408
302.24
302.082
301.933
301.794
301.663
301.541
301.427
301.32
301.22
301.127
301.04
300.959
300.884
300.814
300.749
300.688
300.632
300.581
300.533
300.488
300.447
300.409
300.374
300.342
300.312
300.285
300.26
300.237
300.215
300.196
300.178
300.162
300.147
300.133
300.121
300.109
300.099
300.089
300.081
300.073
300.066
300.059
300.053
300.048
300.043
300.039
300.035
300.031
300.028
300.025
300.023
300.02
300.018
300.016
300.014
300.013
300.011
300.01
300.009
300.008
300.007
300.006
300.006
300.005
300.004
300.004
300.003
300.003
300.003
300.002
300.002
300.002
300.002
300.001
300.001
300.001
300.001
300.001
300.001
300.001
300.001
300
300
300
300
300
300
300
300
305.82
305.455
305.109
304.782
304.472
304.178
303.901
303.64
303.393
303.161
302.942
302.736
302.543
302.362
302.192
302.032
301.883
301.743
301.612
301.49
301.377
301.271
301.172
301.08
300.994
300.915
300.841
300.773
300.709
300.651
300.596
300.546
300.5
300.457
300.418
300.381
300.348
300.317
300.289
300.263
300.239
300.217
300.198
300.179
300.163
300.147
300.133
300.121
300.109
300.099
300.089
300.08
300.072
300.065
300.059
300.053
300.047
300.043
300.038
300.034
300.031
300.028
300.025
300.022
300.02
300.018
300.016
300.014
300.012
300.011
300.01
300.009
300.008
300.007
300.006
300.005
300.005
300.004
300.004
300.003
300.003
300.003
300.002
300.002
300.002
300.002
300.001
300.001
300.001
300.001
300.001
300.001
300.001
300
300
300
300
300
300
300
306.875
306.444
306.035
305.648
305.282
304.935
304.608
304.299
304.008
303.734
303.475
303.232
303.004
302.79
302.589
302.4
302.224
302.059
301.905
301.761
301.626
301.501
301.384
301.275
301.174
301.081
300.994
300.913
300.838
300.769
300.704
300.645
300.59
300.54
300.493
300.45
300.411
300.375
300.341
300.311
300.283
300.257
300.233
300.212
300.192
300.174
300.158
300.143
300.129
300.116
300.105
300.095
300.085
300.077
300.069
300.062
300.056
300.05
300.045
300.04
300.036
300.032
300.029
300.026
300.023
300.021
300.018
300.016
300.015
300.013
300.012
300.01
300.009
300.008
300.007
300.006
300.006
300.005
300.004
300.004
300.003
300.003
300.003
300.002
300.002
300.002
300.002
300.001
300.001
300.001
300.001
300.001
300.001
300.001
300
300
300
300
300
300
307.928
307.431
306.96
306.513
306.091
305.692
305.314
304.958
304.622
304.306
304.008
303.727
303.464
303.217
302.985
302.768
302.565
302.374
302.196
302.03
301.875
301.731
301.596
301.471
301.354
301.246
301.146
301.053
300.966
300.886
300.812
300.744
300.681
300.623
300.569
300.519
300.474
300.432
300.394
300.358
300.326
300.296
300.269
300.244
300.221
300.201
300.182
300.164
300.149
300.134
300.121
300.109
300.099
300.089
300.08
300.072
300.065
300.058
300.052
300.047
300.042
300.037
300.034
300.03
300.027
300.024
300.021
300.019
300.017
300.015
300.013
300.012
300.011
300.009
300.008
300.007
300.007
300.006
300.005
300.005
300.004
300.004
300.003
300.003
300.002
300.002
300.002
300.002
300.001
300.001
300.001
300.001
300.001
300.001
300.001
300
300
300
300
300
308.979
308.416
307.883
307.377
306.899
306.446
306.019
305.615
305.235
304.876
304.539
304.222
303.924
303.644
303.381
303.135
302.905
302.689
302.488
302.299
302.124
301.96
301.808
301.666
301.534
301.411
301.298
301.192
301.094
301.004
300.92
300.843
300.771
300.705
300.644
300.588
300.537
300.489
300.446
300.406
300.369
300.336
300.305
300.277
300.251
300.227
300.206
300.186
300.168
300.152
300.137
300.124
300.112
300.101
300.09
300.081
300.073
300.066
300.059
300.053
300.047
300.042
300.038
300.034
300.03
300.027
300.024
300.022
300.019
300.017
300.015
300.014
300.012
300.011
300.009
300.008
300.007
300.007
300.006
300.005
300.005
300.004
300.004
300.003
300.003
300.002
300.002
300.002
300.002
300.001
300.001
300.001
300.001
300.001
300.001
300
300
300
300
300
310.028
309.4
308.803
308.239
307.704
307.199
306.722
306.271
305.846
305.446
305.069
304.715
304.382
304.069
303.776
303.501
303.244
303.003
302.778
302.568
302.372
302.189
302.019
301.861
301.713
301.576
301.449
301.331
301.222
301.121
301.028
300.941
300.861
300.788
300.72
300.657
300.6
300.547
300.498
300.453
300.412
300.375
300.34
300.309
300.28
300.254
300.23
300.208
300.188
300.17
300.153
300.138
300.125
300.112
300.101
300.091
300.082
300.073
300.066
300.059
300.053
300.047
300.042
300.038
300.034
300.03
300.027
300.024
300.021
300.019
300.017
300.015
300.013
300.012
300.011
300.009
300.008
300.007
300.006
300.006
300.005
300.004
300.004
300.003
300.003
300.003
300.002
300.002
300.002
300.002
300.001
300.001
300.001
300.001
300.001
300.001
300
300
300
300
311.075
310.38
309.722
309.099
308.508
307.95
307.423
306.926
306.456
306.014
305.598
305.207
304.839
304.494
304.17
303.867
303.582
303.317
303.068
302.836
302.619
302.418
302.23
302.055
301.892
301.741
301.6
301.47
301.35
301.238
301.135
301.039
300.951
300.87
300.795
300.726
300.662
300.604
300.55
300.501
300.455
300.414
300.376
300.341
300.309
300.28
300.254
300.23
300.208
300.188
300.169
300.153
300.138
300.124
300.112
300.1
300.09
300.081
300.073
300.065
300.058
300.052
300.047
300.042
300.037
300.033
300.03
300.027
300.024
300.021
300.019
300.017
300.015
300.013
300.012
300.01
300.009
300.008
300.007
300.006
300.006
300.005
300.004
300.004
300.003
300.003
300.003
300.002
300.002
300.002
300.001
300.001
300.001
300.001
300.001
300.001
300
300
300
300
312.118
311.359
310.638
309.956
309.31
308.7
308.123
307.578
307.065
306.581
306.126
305.698
305.295
304.917
304.563
304.231
303.92
303.629
303.357
303.103
302.866
302.646
302.44
302.248
302.07
301.905
301.751
301.609
301.477
301.355
301.242
301.137
301.041
300.952
300.87
300.794
300.724
300.66
300.602
300.548
300.498
300.453
300.411
300.373
300.338
300.307
300.278
300.251
300.227
300.205
300.185
300.167
300.151
300.136
300.122
300.11
300.099
300.089
300.08
300.071
300.064
300.057
300.051
300.046
300.041
300.037
300.033
300.029
300.026
300.023
300.021
300.018
300.016
300.014
300.013
300.011
300.01
300.009
300.008
300.007
300.006
300.005
300.005
300.004
300.004
300.003
300.003
300.002
300.002
300.002
300.002
300.001
300.001
300.001
300.001
300.001
300
300
300
300
313.159
312.334
311.552
310.811
310.11
309.447
308.82
308.229
307.672
307.146
306.652
306.187
305.75
305.34
304.955
304.594
304.257
303.941
303.646
303.37
303.113
302.873
302.649
302.441
302.248
302.068
301.902
301.747
301.604
301.471
301.348
301.235
301.13
301.033
300.944
300.862
300.787
300.717
300.653
300.595
300.541
300.492
300.447
300.405
300.368
300.333
300.302
300.273
300.247
300.223
300.201
300.181
300.164
300.147
300.133
300.119
300.107
300.096
300.086
300.077
300.069
300.062
300.056
300.05
300.044
300.04
300.035
300.032
300.028
300.025
300.022
300.02
300.018
300.016
300.014
300.012
300.011
300.01
300.009
300.008
300.007
300.006
300.005
300.005
300.004
300.003
300.003
300.003
300.002
300.002
300.002
300.001
300.001
300.001
300.001
300.001
300.001
300
300
300
314.197
313.307
312.463
311.664
310.907
310.192
309.516
308.878
308.277
307.71
307.176
306.675
306.203
305.761
305.346
304.957
304.592
304.251
303.933
303.636
303.358
303.099
302.858
302.634
302.425
302.232
302.052
301.885
301.73
301.587
301.455
301.332
301.219
301.115
301.019
300.93
300.849
300.774
300.705
300.642
300.584
300.53
300.482
300.437
300.396
300.359
300.325
300.294
300.266
300.24
300.217
300.196
300.176
300.159
300.143
300.129
300.116
300.104
300.093
300.084
300.075
300.067
300.06
300.054
300.048
300.043
300.038
300.034
300.03
300.027
300.024
300.021
300.019
300.017
300.015
300.013
300.012
300.01
300.009
300.008
300.007
300.006
300.006
300.005
300.004
300.004
300.003
300.003
300.002
300.002
300.002
300.002
300.001
300.001
300.001
300.001
300.001
300
300
300
315.231
314.276
313.371
312.513
311.701
310.934
310.209
309.525
308.879
308.271
307.699
307.161
306.655
306.18
305.735
305.318
304.927
304.561
304.219
303.9
303.603
303.325
303.066
302.826
302.602
302.394
302.201
302.022
301.856
301.703
301.561
301.429
301.308
301.196
301.093
300.998
300.911
300.83
300.756
300.688
300.626
300.569
300.517
300.469
300.425
300.385
300.349
300.316
300.286
300.258
300.233
300.21
300.189
300.171
300.154
300.138
300.124
300.111
300.1
300.09
300.08
300.072
300.064
300.058
300.051
300.046
300.041
300.037
300.033
300.029
300.026
300.023
300.02
300.018
300.016
300.014
300.013
300.011
300.01
300.009
300.008
300.007
300.006
300.005
300.005
300.004
300.004
300.003
300.003
300.002
300.002
300.002
300.001
300.001
300.001
300.001
300.001
300
300
300
316.261
315.242
314.275
313.359
312.493
311.674
310.9
310.169
309.48
308.831
308.22
307.645
307.105
306.598
306.123
305.677
305.26
304.87
304.505
304.164
303.846
303.55
303.274
303.017
302.778
302.556
302.35
302.159
301.982
301.818
301.666
301.526
301.397
301.277
301.167
301.066
300.972
300.886
300.807
300.735
300.668
300.608
300.552
300.501
300.454
300.412
300.373
300.337
300.305
300.275
300.249
300.224
300.202
300.182
300.164
300.147
300.132
300.119
300.107
300.096
300.086
300.077
300.069
300.061
300.055
300.049
300.044
300.039
300.035
300.031
300.028
300.024
300.022
300.019
300.017
300.015
300.013
300.012
300.011
300.009
300.008
300.007
300.006
300.006
300.005
300.004
300.004
300.003
300.003
300.002
300.002
300.002
300.002
300.001
300.001
300.001
300.001
300
300
300
317.287
316.203
315.176
314.203
313.281
312.41
311.587
310.811
310.078
309.388
308.739
308.128
307.554
307.015
306.509
306.036
305.592
305.177
304.789
304.427
304.089
303.774
303.48
303.207
302.953
302.717
302.498
302.295
302.107
301.933
301.771
301.622
301.485
301.358
301.241
301.133
301.033
300.942
300.858
300.781
300.711
300.646
300.587
300.532
300.483
300.437
300.396
300.358
300.324
300.293
300.264
300.238
300.215
300.194
300.174
300.157
300.141
300.126
300.114
300.102
300.091
300.082
300.073
300.065
300.058
300.052
300.047
300.041
300.037
300.033
300.029
300.026
300.023
300.021
300.018
300.016
300.014
300.013
300.011
300.01
300.009
300.008
300.007
300.006
300.005
300.005
300.004
300.003
300.003
300.003
300.002
300.002
300.002
300.001
300.001
300.001
300.001
300
300
300
318.309
317.161
316.073
315.042
314.067
313.144
312.272
311.45
310.674
309.943
309.255
308.608
308
307.429
306.894
306.392
305.923
305.483
305.072
304.689
304.331
303.997
303.686
303.397
303.128
302.878
302.646
302.431
302.231
302.047
301.876
301.718
301.572
301.438
301.314
301.2
301.095
300.998
300.909
300.828
300.753
300.684
300.621
300.564
300.511
300.463
300.42
300.38
300.343
300.31
300.28
300.253
300.228
300.205
300.185
300.166
300.149
300.134
300.12
300.108
300.097
300.087
300.077
300.069
300.062
300.055
300.049
300.044
300.039
300.035
300.031
300.028
300.024
300.022
300.019
300.017
300.015
300.013
300.012
300.01
300.009
300.008
300.007
300.006
300.006
300.005
300.004
300.004
300.003
300.003
300.002
300.002
300.002
300.001
300.001
300.001
300.001
300.001
300
300
319.326
318.115
316.966
315.878
314.848
313.874
312.954
312.086
311.267
310.496
309.77
309.087
308.445
307.842
307.277
306.748
306.252
305.788
305.354
304.949
304.571
304.219
303.891
303.586
303.302
303.038
302.793
302.566
302.355
302.161
301.98
301.814
301.66
301.518
301.387
301.266
301.155
301.053
300.96
300.873
300.795
300.722
300.656
300.595
300.54
300.489
300.443
300.401
300.362
300.327
300.295
300.267
300.24
300.216
300.195
300.175
300.157
300.141
300.127
300.114
300.102
300.091
300.082
300.073
300.065
300.058
300.052
300.046
300.041
300.037
300.033
300.029
300.026
300.023
300.02
300.018
300.016
300.014
300.012
300.011
300.01
300.009
300.008
300.007
300.006
300.005
300.004
300.004
300.003
300.003
300.003
300.002
300.002
300.002
300.001
300.001
300.001
300.001
300
300
320.339
319.064
317.855
316.71
315.626
314.601
313.633
312.719
311.858
311.046
310.281
309.563
308.887
308.253
307.658
307.101
306.579
306.091
305.635
305.208
304.811
304.44
304.095
303.773
303.475
303.197
302.939
302.7
302.479
302.274
302.084
301.909
301.747
301.597
301.46
301.333
301.216
301.109
301.01
300.919
300.836
300.76
300.69
300.626
300.568
300.515
300.466
300.422
300.381
300.344
300.311
300.281
300.253
300.228
300.205
300.184
300.166
300.149
300.134
300.12
300.107
300.096
300.086
300.077
300.069
300.061
300.055
300.049
300.043
300.039
300.034
300.031
300.027
300.024
300.021
300.019
300.017
300.015
300.013
300.012
300.01
300.009
300.008
300.007
300.006
300.005
300.005
300.004
300.004
300.003
300.003
300.002
300.002
300.002
300.001
300.001
300.001
300.001
300
300
321.347
320.009
318.74
317.538
316.4
315.325
314.309
313.349
312.445
311.593
310.791
310.036
309.328
308.662
308.038
307.453
306.905
306.393
305.914
305.467
305.049
304.66
304.298
303.96
303.647
303.355
303.085
302.834
302.602
302.386
302.187
302.003
301.833
301.677
301.532
301.399
301.276
301.163
301.06
300.965
300.878
300.798
300.724
300.657
300.596
300.54
300.489
300.443
300.4
300.362
300.326
300.294
300.265
300.239
300.215
300.194
300.174
300.156
300.14
300.126
300.113
300.101
300.09
300.081
300.072
300.064
300.057
300.051
300.046
300.041
300.036
300.032
300.029
300.025
300.022
300.02
300.018
300.016
300.014
300.012
300.011
300.009
300.008
300.007
300.006
300.006
300.005
300.004
300.004
300.003
300.003
300.002
300.002
300.002
300.001
300.001
300.001
300.001
300
300
322.349
320.948
319.62
318.361
317.171
316.044
314.98
313.976
313.029
312.137
311.298
310.508
309.766
309.069
308.415
307.803
307.229
306.693
306.192
305.723
305.286
304.879
304.5
304.146
303.818
303.513
303.23
302.967
302.724
302.499
302.29
302.097
301.919
301.755
301.604
301.464
301.336
301.218
301.11
301.01
300.919
300.835
300.758
300.688
300.624
300.566
300.512
300.463
300.419
300.378
300.342
300.308
300.278
300.25
300.225
300.203
300.182
300.164
300.147
300.132
300.118
300.106
300.094
300.084
300.075
300.067
300.06
300.054
300.048
300.043
300.038
300.034
300.03
300.027
300.024
300.021
300.018
300.016
300.014
300.013
300.011
300.01
300.009
300.008
300.007
300.006
300.005
300.005
300.004
300.003
300.003
300.003
300.002
300.002
300.001
300.001
300.001
300.001
300
300
323.346
321.883
320.495
319.18
317.936
316.76
315.649
314.6
313.611
312.679
311.801
310.976
310.201
309.473
308.791
308.151
307.552
306.992
306.468
305.979
305.522
305.097
304.7
304.331
303.988
303.67
303.374
303.1
302.845
302.61
302.392
302.191
302.005
301.834
301.675
301.53
301.396
301.272
301.159
301.055
300.96
300.872
300.792
300.719
300.652
300.591
300.535
300.484
300.438
300.395
300.357
300.322
300.29
300.261
300.235
300.212
300.19
300.171
300.153
300.137
300.123
300.11
300.099
300.088
300.079
300.07
300.063
300.056
300.05
300.044
300.04
300.035
300.031
300.028
300.025
300.022
300.019
300.017
300.015
300.013
300.012
300.01
300.009
300.008
300.007
300.006
300.005
300.005
300.004
300.004
300.003
300.003
300.002
300.002
300.002
300.001
300.001
300.001
300
300
324.337
322.812
321.365
319.995
318.698
317.472
316.313
315.22
314.188
313.217
312.302
311.442
310.634
309.876
309.164
308.497
307.873
307.288
306.742
306.232
305.757
305.313
304.9
304.515
304.158
303.825
303.517
303.231
302.966
302.721
302.494
302.284
302.09
301.911
301.747
301.595
301.455
301.326
301.208
301.1
301.001
300.909
300.826
300.75
300.68
300.616
300.558
300.505
300.456
300.412
300.372
300.336
300.303
300.273
300.245
300.221
300.198
300.178
300.16
300.143
300.128
300.115
300.103
300.092
300.082
300.073
300.065
300.058
300.052
300.046
300.041
300.037
300.033
300.029
300.026
300.023
300.02
300.018
300.016
300.014
300.012
300.011
300.01
300.008
300.007
300.006
300.006
300.005
300.004
300.004
300.003
300.003
300.002
300.002
300.002
300.001
300.001
300.001
300
300
325.322
323.735
322.23
320.804
319.455
318.179
316.973
315.836
314.763
313.752
312.8
311.906
311.065
310.275
309.535
308.841
308.191
307.583
307.015
306.485
305.99
305.528
305.098
304.698
304.326
303.98
303.659
303.362
303.086
302.831
302.595
302.376
302.175
301.989
301.817
301.659
301.514
301.38
301.257
301.144
301.041
300.946
300.859
300.78
300.707
300.641
300.58
300.525
300.475
300.429
300.387
300.349
300.315
300.284
300.255
300.23
300.206
300.185
300.166
300.149
300.134
300.12
300.107
300.096
300.086
300.076
300.068
300.061
300.054
300.048
300.043
300.038
300.034
300.03
300.027
300.024
300.021
300.019
300.016
300.014
300.013
300.011
300.01
300.009
300.008
300.007
300.006
300.005
300.004
300.004
300.003
300.003
300.002
300.002
300.002
300.001
300.001
300.001
300
300
326.301
324.652
323.089
321.608
320.207
318.881
317.629
316.448
315.333
314.284
313.295
312.366
311.492
310.672
309.903
309.183
308.508
307.876
307.286
306.735
306.221
305.742
305.295
304.88
304.493
304.134
303.801
303.492
303.205
302.94
302.695
302.468
302.259
302.066
301.888
301.723
301.572
301.434
301.306
301.189
301.081
300.983
300.893
300.81
300.735
300.666
300.603
300.545
300.493
300.445
300.402
300.363
300.327
300.295
300.265
300.238
300.214
300.192
300.173
300.155
300.139
300.124
300.111
300.099
300.089
300.079
300.071
300.063
300.056
300.05
300.045
300.04
300.035
300.031
300.028
300.025
300.022
300.019
300.017
300.015
300.013
300.012
300.01
300.009
300.008
300.007
300.006
300.005
300.005
300.004
300.003
300.003
300.002
300.002
300.002
300.001
300.001
300.001
300
300
327.273
325.564
323.943
322.407
320.954
319.58
318.281
317.056
315.9
314.812
313.787
312.823
311.917
311.067
310.27
309.522
308.822
308.168
307.556
306.984
306.451
305.954
305.491
305.06
304.659
304.287
303.941
303.621
303.324
303.049
302.795
302.56
302.342
302.142
301.957
301.787
301.631
301.487
301.354
301.233
301.121
301.019
300.926
300.84
300.762
300.69
300.625
300.565
300.511
300.462
300.417
300.376
300.339
300.305
300.275
300.247
300.222
300.2
300.179
300.161
300.144
300.129
300.115
300.103
300.092
300.082
300.073
300.065
300.058
300.052
300.046
300.041
300.036
300.032
300.029
300.025
300.023
300.02
300.018
300.016
300.014
300.012
300.011
300.009
300.008
300.007
300.006
300.006
300.005
300.004
300.004
300.003
300.003
300.002
300.002
300.001
300.001
300.001
300
300
328.239
326.469
324.791
323.201
321.696
320.273
318.929
317.66
316.463
315.336
314.275
313.277
312.339
311.459
310.633
309.859
309.135
308.457
307.823
307.232
306.679
306.165
305.685
305.239
304.824
304.439
304.081
303.749
303.442
303.157
302.894
302.65
302.425
302.218
302.027
301.85
301.688
301.539
301.402
301.276
301.161
301.055
300.958
300.87
300.789
300.715
300.647
300.585
300.529
300.478
300.432
300.389
300.351
300.316
300.285
300.256
300.23
300.207
300.185
300.166
300.149
300.133
300.119
300.107
300.095
300.085
300.076
300.068
300.06
300.054
300.048
300.042
300.038
300.034
300.03
300.026
300.023
300.021
300.018
300.016
300.014
300.013
300.011
300.01
300.009
300.007
300.007
300.006
300.005
300.004
300.004
300.003
300.003
300.002
300.002
300.001
300.001
300.001
300
300
329.198
327.368
325.632
323.988
322.432
320.961
319.571
318.259
317.022
315.857
314.76
313.728
312.758
311.848
310.994
310.194
309.445
308.744
308.089
307.477
306.906
306.374
305.878
305.417
304.988
304.59
304.22
303.876
303.559
303.264
302.992
302.74
302.508
302.293
302.095
301.913
301.746
301.591
301.45
301.32
301.2
301.091
300.991
300.899
300.815
300.739
300.669
300.605
300.547
300.494
300.446
300.403
300.363
300.327
300.294
300.265
300.238
300.214
300.192
300.172
300.154
300.138
300.123
300.11
300.099
300.088
300.079
300.07
300.062
300.056
300.049
300.044
300.039
300.035
300.031
300.027
300.024
300.021
300.019
300.017
300.015
300.013
300.011
300.01
300.009
300.008
300.007
300.006
300.005
300.004
300.004
300.003
300.003
300.002
300.002
300.002
300.001
300.001
300
300
330.149
328.259
326.467
324.77
323.163
321.644
320.209
318.854
317.577
316.373
315.24
314.175
313.174
312.234
311.352
310.526
309.753
309.029
308.352
307.721
307.131
306.582
306.07
305.594
305.151
304.739
304.357
304.003
303.674
303.371
303.089
302.829
302.589
302.368
302.164
301.976
301.802
301.643
301.497
301.363
301.239
301.127
301.023
300.929
300.842
300.763
300.691
300.625
300.565
300.511
300.461
300.416
300.375
300.338
300.304
300.273
300.246
300.221
300.198
300.178
300.159
300.142
300.127
300.114
300.102
300.091
300.081
300.072
300.064
300.057
300.051
300.045
300.04
300.036
300.032
300.028
300.025
300.022
300.019
300.017
300.015
300.013
300.012
300.01
300.009
300.008
300.007
300.006
300.005
300.005
300.004
300.003
300.003
300.002
300.002
300.002
300.001
300.001
300
300
331.093
329.144
327.296
325.545
323.889
322.322
320.842
319.445
318.127
316.886
315.718
314.619
313.586
312.617
311.708
310.856
310.058
309.312
308.614
307.962
307.355
306.788
306.26
305.769
305.312
304.887
304.494
304.128
303.79
303.476
303.186
302.918
302.67
302.442
302.231
302.037
301.859
301.695
301.544
301.405
301.278
301.162
301.055
300.958
300.868
300.787
300.713
300.645
300.583
300.527
300.475
300.429
300.387
300.348
300.313
300.282
300.253
300.228
300.204
300.183
300.164
300.147
300.131
300.118
300.105
300.094
300.084
300.075
300.066
300.059
300.053
300.047
300.042
300.037
300.033
300.029
300.026
300.023
300.02
300.018
300.016
300.014
300.012
300.011
300.009
300.008
300.007
300.006
300.005
300.005
300.004
300.003
300.003
300.002
300.002
300.002
300.001
300.001
300.001
300
332.03
330.022
328.118
326.315
324.608
322.994
321.469
320.03
318.673
317.395
316.191
315.059
313.996
312.997
312.06
311.183
310.361
309.592
308.873
308.202
307.576
306.992
306.448
305.942
305.472
305.035
304.629
304.252
303.904
303.581
303.282
303.006
302.751
302.516
302.299
302.099
301.915
301.746
301.59
301.448
301.317
301.197
301.087
300.986
300.895
300.811
300.734
300.664
300.6
300.542
300.49
300.442
300.398
300.359
300.323
300.29
300.261
300.234
300.21
300.189
300.169
300.151
300.135
300.121
300.108
300.097
300.086
300.077
300.068
300.061
300.054
300.048
300.043
300.038
300.034
300.03
300.026
300.023
300.021
300.018
300.016
300.014
300.013
300.011
300.01
300.008
300.007
300.006
300.006
300.005
300.004
300.004
300.003
300.003
300.002
300.002
300.001
300.001
300.001
300
332.958
330.892
328.933
327.078
325.321
323.661
322.092
320.611
319.214
317.899
316.66
315.496
314.401
313.374
312.41
311.507
310.661
309.87
309.131
308.44
307.796
307.195
306.635
306.115
305.63
305.181
304.763
304.376
304.017
303.685
303.377
303.093
302.831
302.588
302.365
302.16
301.97
301.796
301.636
301.49
301.355
301.231
301.118
301.015
300.92
300.834
300.755
300.683
300.618
300.558
300.504
300.455
300.41
300.369
300.332
300.299
300.269
300.241
300.216
300.194
300.174
300.156
300.139
300.125
300.111
300.099
300.089
300.079
300.07
300.063
300.056
300.05
300.044
300.039
300.035
300.031
300.027
300.024
300.021
300.019
300.017
300.015
300.013
300.011
300.01
300.009
300.008
300.007
300.006
300.005
300.004
300.004
300.003
300.003
300.002
300.002
300.001
300.001
300.001
300
333.878
331.755
329.741
327.834
326.028
324.321
322.709
321.186
319.751
318.399
317.126
315.928
314.803
313.747
312.757
311.828
310.959
310.146
309.386
308.676
308.013
307.396
306.821
306.285
305.788
305.325
304.896
304.498
304.129
303.787
303.471
303.179
302.91
302.661
302.431
302.22
302.025
301.846
301.682
301.531
301.393
301.266
301.15
301.043
300.946
300.857
300.776
300.702
300.635
300.574
300.518
300.467
300.421
300.379
300.341
300.307
300.276
300.248
300.222
300.199
300.179
300.16
300.143
300.128
300.114
300.102
300.091
300.081
300.072
300.064
300.057
300.051
300.045
300.04
300.036
300.032
300.028
300.025
300.022
300.019
300.017
300.015
300.013
300.012
300.01
300.009
300.008
300.007
300.006
300.005
300.004
300.004
300.003
300.003
300.002
300.002
300.001
300.001
300.001
300
334.79
332.61
330.542
328.583
326.729
324.976
323.32
321.757
320.283
318.894
317.587
316.357
315.202
314.117
313.1
312.147
311.254
310.419
309.638
308.909
308.229
307.595
307.004
306.455
305.943
305.469
305.028
304.619
304.24
303.889
303.565
303.265
302.988
302.732
302.497
302.28
302.08
301.896
301.727
301.572
301.43
301.3
301.181
301.071
300.972
300.88
300.797
300.721
300.652
300.589
300.532
300.48
300.433
300.39
300.351
300.315
300.283
300.255
300.228
300.205
300.184
300.164
300.147
300.132
300.118
300.105
300.094
300.083
300.074
300.066
300.059
300.052
300.047
300.041
300.037
300.032
300.029
300.025
300.022
300.02
300.018
300.015
300.014
300.012
300.011
300.009
300.008
300.007
300.006
300.005
300.005
300.004
300.003
300.003
300.002
300.002
300.001
300.001
300.001
300
335.694
333.456
331.335
329.325
327.423
325.624
323.925
322.322
320.809
319.384
318.043
316.782
315.597
314.484
313.44
312.462
311.546
310.689
309.888
309.141
308.443
307.792
307.186
306.622
306.098
305.611
305.158
304.739
304.35
303.99
303.657
303.35
303.066
302.803
302.562
302.339
302.134
301.945
301.772
301.613
301.467
301.334
301.211
301.099
300.997
300.903
300.818
300.74
300.669
300.604
300.546
300.492
300.444
300.4
300.36
300.324
300.291
300.261
300.234
300.21
300.188
300.169
300.151
300.135
300.121
300.108
300.096
300.086
300.076
300.068
300.06
300.054
300.048
300.042
300.038
300.033
300.029
300.026
300.023
300.02
300.018
300.016
300.014
300.012
300.011
300.009
300.008
300.007
300.006
300.005
300.005
300.004
300.003
300.003
300.002
300.002
300.001
300.001
300.001
300
336.588
334.295
332.12
330.06
328.11
326.267
324.525
322.881
321.331
319.87
318.495
317.202
315.987
314.847
313.777
312.774
311.836
310.957
310.136
309.37
308.654
307.987
307.366
306.788
306.251
305.751
305.288
304.858
304.459
304.09
303.749
303.434
303.142
302.874
302.626
302.398
302.187
301.994
301.817
301.654
301.504
301.367
301.242
301.127
301.022
300.926
300.838
300.759
300.686
300.62
300.559
300.505
300.455
300.41
300.369
300.332
300.298
300.268
300.24
300.215
300.193
300.173
300.155
300.138
300.124
300.11
300.098
300.088
300.078
300.07
300.062
300.055
300.049
300.043
300.039
300.034
300.03
300.027
300.024
300.021
300.018
300.016
300.014
300.013
300.011
300.01
300.008
300.007
300.006
300.006
300.005
300.004
300.003
300.003
300.002
300.002
300.001
300.001
300.001
300
337.474
335.125
332.898
330.788
328.791
326.902
325.119
323.435
321.847
320.351
318.943
317.619
316.374
315.206
314.11
313.083
312.122
311.222
310.382
309.596
308.864
308.181
307.545
306.952
306.402
305.89
305.416
304.975
304.567
304.189
303.84
303.517
303.218
302.943
302.689
302.456
302.24
302.042
301.861
301.694
301.541
301.4
301.272
301.154
301.047
300.948
300.859
300.777
300.702
300.635
300.573
300.517
300.466
300.42
300.378
300.34
300.305
300.274
300.246
300.221