/*--------------------------------*- C++ -*----------------------------------*\
| =========                 |                                                 |
| \\      /  F ield         | OpenFOAM: The Open Source CFD Toolbox           |
|  \\    /   O peration     | Version:  2406                                  |
|   \\  /    A nd           | Website:  www.openfoam.com                      |
|    \\/     M anipulation  |                                                 |
\*---------------------------------------------------------------------------*/
FoamFile
{
    version     2.0;
    format      ascii;
    arch        "LSB;label=32;scalar=64";
    class       volScalarField;
    location    "160";
    object      T;
}
// * * * * * * * * * * * * * * * * * * * * * * * * * * * * * * * * * * * * * //

dimensions      [0 0 0 1 0 0 0];

internalField   nonuniform List<scalar> 
20000
(
299.534
299.57
299.605
299.639
299.671
299.702
299.732
299.761
299.788
299.814
299.839
299.862
299.885
299.906
299.926
299.945
299.963
299.979
299.995
300.01
300.023
300.036
300.048
300.058
300.068
300.078
300.086
300.093
300.1
300.107
300.112
300.117
300.121
300.125
300.128
300.131
300.133
300.135
300.136
300.137
300.138
300.138
300.138
300.138
300.137
300.136
300.135
300.134
300.132
300.13
300.128
300.126
300.124
300.122
300.119
300.117
300.114
300.112
300.109
300.106
300.103
300.1
300.098
300.095
300.092
300.089
300.086
300.083
300.08
300.077
300.074
300.071
300.068
300.066
300.063
300.06
300.057
300.055
300.052
300.049
300.047
300.044
300.041
300.039
300.036
300.034
300.031
300.029
300.026
300.024
300.022
300.019
300.017
300.015
300.012
300.01
300.008
300.006
300.003
300.001
298.602
298.711
298.816
298.917
299.014
299.107
299.197
299.282
299.364
299.442
299.517
299.588
299.655
299.718
299.778
299.835
299.888
299.938
299.985
300.029
300.07
300.107
300.143
300.175
300.205
300.233
300.258
300.28
300.301
300.32
300.336
300.351
300.364
300.375
300.385
300.393
300.4
300.405
300.409
300.412
300.414
300.414
300.414
300.413
300.411
300.408
300.405
300.401
300.396
300.391
300.385
300.379
300.372
300.365
300.358
300.351
300.343
300.335
300.327
300.318
300.31
300.301
300.293
300.284
300.275
300.266
300.257
300.249
300.24
300.231
300.222
300.214
300.205
300.197
300.188
300.18
300.172
300.164
300.155
300.147
300.14
300.132
300.124
300.116
300.109
300.101
300.094
300.087
300.079
300.072
300.065
300.058
300.051
300.044
300.037
300.031
300.024
300.017
300.01
300.003
297.671
297.852
298.026
298.195
298.357
298.512
298.661
298.804
298.941
299.071
299.195
299.313
299.424
299.53
299.63
299.725
299.813
299.897
299.975
300.048
300.116
300.179
300.238
300.292
300.342
300.387
300.429
300.467
300.502
300.533
300.56
300.585
300.606
300.625
300.641
300.655
300.666
300.675
300.681
300.686
300.689
300.69
300.69
300.688
300.685
300.68
300.675
300.668
300.66
300.651
300.642
300.631
300.621
300.609
300.597
300.584
300.571
300.558
300.544
300.53
300.516
300.502
300.487
300.473
300.458
300.444
300.429
300.414
300.4
300.385
300.371
300.356
300.342
300.328
300.314
300.3
300.286
300.272
300.259
300.246
300.233
300.219
300.207
300.194
300.181
300.169
300.157
300.144
300.132
300.121
300.109
300.097
300.085
300.074
300.062
300.051
300.04
300.028
300.017
300.006
296.74
296.993
297.238
297.473
297.7
297.917
298.126
298.326
298.517
298.699
298.873
299.038
299.194
299.343
299.483
299.615
299.739
299.856
299.965
300.067
300.162
300.251
300.333
300.409
300.478
300.542
300.601
300.654
300.702
300.746
300.784
300.819
300.849
300.875
300.897
300.916
300.932
300.944
300.954
300.961
300.965
300.966
300.966
300.963
300.959
300.952
300.944
300.935
300.924
300.912
300.898
300.884
300.869
300.852
300.835
300.818
300.8
300.781
300.762
300.742
300.722
300.702
300.682
300.662
300.641
300.621
300.6
300.58
300.559
300.539
300.519
300.499
300.479
300.459
300.439
300.42
300.4
300.381
300.362
300.344
300.325
300.307
300.289
300.271
300.254
300.236
300.219
300.202
300.185
300.169
300.152
300.136
300.119
300.103
300.087
300.071
300.055
300.04
300.024
300.008
295.811
296.136
296.449
296.752
297.043
297.323
297.592
297.849
298.094
298.328
298.551
298.763
298.965
299.155
299.335
299.505
299.664
299.814
299.955
300.086
300.208
300.322
300.428
300.525
300.615
300.697
300.772
300.841
300.903
300.958
301.008
301.052
301.091
301.124
301.153
301.178
301.198
301.214
301.226
301.235
301.24
301.242
301.241
301.238
301.232
301.224
301.214
301.201
301.187
301.172
301.155
301.136
301.116
301.096
301.074
301.051
301.028
301.004
300.979
300.954
300.929
300.903
300.877
300.851
300.824
300.798
300.772
300.745
300.719
300.693
300.667
300.641
300.615
300.59
300.564
300.539
300.515
300.49
300.466
300.442
300.418
300.395
300.372
300.349
300.326
300.304
300.282
300.26
300.238
300.217
300.196
300.174
300.154
300.133
300.112
300.092
300.071
300.051
300.03
300.01
294.882
295.279
295.662
296.032
296.388
296.73
297.058
297.372
297.672
297.958
298.23
298.489
298.735
298.968
299.187
299.395
299.59
299.773
299.945
300.105
300.255
300.394
300.522
300.641
300.751
300.852
300.944
301.027
301.103
301.171
301.231
301.285
301.333
301.374
301.409
301.439
301.463
301.483
301.498
301.508
301.515
301.517
301.517
301.513
301.505
301.495
301.483
301.468
301.451
301.432
301.411
301.388
301.364
301.338
301.312
301.284
301.256
301.226
301.196
301.166
301.134
301.103
301.071
301.039
301.007
300.975
300.943
300.911
300.878
300.846
300.815
300.783
300.752
300.72
300.69
300.659
300.629
300.599
300.569
300.54
300.511
300.482
300.454
300.426
300.399
300.371
300.344
300.318
300.291
300.265
300.239
300.213
300.188
300.162
300.137
300.112
300.087
300.062
300.037
300.012
293.954
294.423
294.876
295.313
295.733
296.137
296.525
296.895
297.25
297.588
297.91
298.216
298.506
298.781
299.04
299.285
299.516
299.732
299.935
300.124
300.301
300.465
300.617
300.758
300.887
301.006
301.115
301.213
301.302
301.383
301.455
301.518
301.574
301.623
301.664
301.699
301.728
301.751
301.769
301.782
301.789
301.792
301.792
301.787
301.778
301.766
301.752
301.734
301.714
301.691
301.666
301.639
301.611
301.581
301.55
301.517
301.483
301.448
301.413
301.377
301.34
301.303
301.265
301.228
301.19
301.152
301.114
301.076
301.038
301
300.962
300.925
300.888
300.851
300.815
300.778
300.743
300.707
300.672
300.638
300.604
300.57
300.536
300.503
300.471
300.439
300.407
300.375
300.344
300.313
300.282
300.252
300.222
300.192
300.162
300.132
300.103
300.073
300.044
300.015
293.028
293.569
294.091
294.595
295.08
295.545
295.992
296.42
296.828
297.218
297.589
297.942
298.277
298.594
298.893
299.176
299.441
299.691
299.925
300.143
300.347
300.536
300.712
300.874
301.023
301.16
301.285
301.399
301.502
301.595
301.677
301.751
301.815
301.871
301.919
301.96
301.993
302.02
302.04
302.054
302.063
302.067
302.066
302.06
302.051
302.037
302.02
301.999
301.976
301.95
301.921
301.891
301.858
301.823
301.787
301.749
301.71
301.67
301.629
301.588
301.545
301.503
301.459
301.416
301.372
301.328
301.284
301.24
301.197
301.153
301.11
301.067
301.024
300.981
300.939
300.898
300.856
300.816
300.775
300.736
300.696
300.657
300.619
300.581
300.543
300.506
300.469
300.433
300.397
300.361
300.325
300.29
300.256
300.221
300.187
300.152
300.118
300.085
300.051
300.017
292.104
292.716
293.308
293.878
294.427
294.955
295.461
295.945
296.408
296.849
297.27
297.669
298.048
298.407
298.746
299.066
299.367
299.65
299.915
300.162
300.393
300.607
300.806
300.99
301.159
301.314
301.456
301.585
301.701
301.806
301.9
301.983
302.056
302.119
302.174
302.22
302.257
302.288
302.311
302.327
302.337
302.341
302.34
302.334
302.322
302.307
302.288
302.265
302.238
302.209
302.176
302.141
302.104
302.065
302.024
301.981
301.937
301.892
301.845
301.798
301.75
301.702
301.653
301.603
301.554
301.504
301.454
301.405
301.355
301.306
301.257
301.208
301.16
301.111
301.064
301.017
300.97
300.924
300.878
300.833
300.788
300.744
300.701
300.658
300.615
300.573
300.531
300.49
300.449
300.409
300.369
300.329
300.289
300.25
300.211
300.173
300.134
300.096
300.057
300.019
291.181
291.865
292.526
293.163
293.776
294.365
294.93
295.471
295.988
296.481
296.951
297.397
297.82
298.221
298.6
298.957
299.293
299.609
299.905
300.181
300.439
300.678
300.9
301.105
301.294
301.467
301.626
301.77
301.9
302.017
302.122
302.215
302.296
302.367
302.428
302.479
302.521
302.555
302.581
302.599
302.61
302.615
302.613
302.606
302.594
302.577
302.555
302.529
302.5
302.467
302.43
302.391
302.35
302.306
302.26
302.213
302.163
302.113
302.061
302.008
301.955
301.901
301.846
301.791
301.735
301.68
301.624
301.569
301.513
301.458
301.404
301.349
301.295
301.241
301.188
301.135
301.083
301.032
300.981
300.93
300.88
300.831
300.783
300.734
300.687
300.64
300.593
300.547
300.502
300.456
300.412
300.367
300.323
300.28
300.236
300.193
300.15
300.107
300.064
300.021
290.261
291.016
291.746
292.45
293.127
293.778
294.401
294.999
295.57
296.114
296.633
297.125
297.593
298.036
298.454
298.848
299.22
299.568
299.895
300.2
300.485
300.749
300.994
301.221
301.429
301.621
301.795
301.954
302.098
302.228
302.343
302.446
302.536
302.614
302.681
302.738
302.784
302.821
302.85
302.87
302.882
302.887
302.886
302.878
302.864
302.845
302.822
302.793
302.76
302.724
302.684
302.641
302.595
302.547
302.496
302.443
302.389
302.333
302.276
302.218
302.159
302.099
302.038
301.978
301.916
301.855
301.794
301.733
301.671
301.611
301.55
301.49
301.43
301.371
301.312
301.254
301.196
301.139
301.083
301.027
300.972
300.918
300.864
300.811
300.758
300.706
300.655
300.604
300.554
300.504
300.455
300.406
300.357
300.309
300.261
300.213
300.165
300.118
300.071
300.024
289.343
290.17
290.968
291.738
292.479
293.191
293.874
294.527
295.152
295.748
296.315
296.855
297.366
297.85
298.308
298.74
299.146
299.528
299.885
300.219
300.53
300.82
301.088
301.336
301.564
301.773
301.965
302.138
302.296
302.437
302.564
302.676
302.775
302.86
302.934
302.996
303.047
303.087
303.118
303.14
303.154
303.16
303.158
303.149
303.134
303.114
303.087
303.056
303.021
302.981
302.937
302.89
302.84
302.787
302.731
302.674
302.614
302.553
302.491
302.427
302.362
302.297
302.231
302.164
302.097
302.03
301.963
301.896
301.829
301.762
301.696
301.63
301.565
301.5
301.436
301.372
301.309
301.247
301.185
301.124
301.064
301.004
300.946
300.887
300.83
300.773
300.717
300.661
300.606
300.552
300.497
300.444
300.391
300.338
300.285
300.233
300.181
300.129
300.077
300.026
288.428
289.325
290.193
291.029
291.833
292.606
293.348
294.057
294.736
295.383
295.999
296.584
297.14
297.666
298.163
298.632
299.073
299.487
299.875
300.238
300.576
300.89
301.181
301.45
301.698
301.926
302.133
302.322
302.493
302.647
302.784
302.906
303.013
303.106
303.186
303.253
303.308
303.352
303.386
303.41
303.425
303.431
303.429
303.42
303.404
303.381
303.353
303.319
303.28
303.237
303.189
303.138
303.084
303.026
302.966
302.903
302.839
302.772
302.705
302.635
302.565
302.494
302.422
302.35
302.277
302.204
302.131
302.059
301.986
301.914
301.842
301.77
301.699
301.629
301.559
301.49
301.422
301.354
301.287
301.221
301.155
301.091
301.027
300.964
300.901
300.839
300.778
300.718
300.658
300.599
300.54
300.482
300.424
300.367
300.31
300.253
300.197
300.14
300.084
300.028
287.515
288.484
289.419
290.321
291.189
292.023
292.823
293.589
294.321
295.019
295.683
296.315
296.914
297.482
298.018
298.524
299
299.447
299.865
300.256
300.621
300.96
301.274
301.565
301.832
302.077
302.301
302.505
302.69
302.855
303.004
303.135
303.251
303.351
303.437
303.509
303.569
303.617
303.653
303.679
303.695
303.701
303.699
303.689
303.672
303.648
303.617
303.58
303.539
303.492
303.441
303.385
303.327
303.265
303.2
303.132
303.063
302.991
302.918
302.843
302.767
302.691
302.613
302.535
302.457
302.378
302.299
302.221
302.143
302.065
301.987
301.91
301.833
301.757
301.682
301.607
301.534
301.461
301.388
301.317
301.246
301.177
301.108
301.04
300.972
300.906
300.84
300.775
300.71
300.646
300.583
300.52
300.458
300.396
300.334
300.273
300.212
300.151
300.091
300.03
286.606
287.645
288.649
289.616
290.548
291.442
292.3
293.122
293.907
294.656
295.369
296.047
296.69
297.298
297.874
298.416
298.927
299.406
299.855
300.275
300.666
301.03
301.367
301.679
301.966
302.229
302.469
302.688
302.885
303.063
303.222
303.363
303.487
303.595
303.687
303.765
303.829
303.88
303.919
303.947
303.964
303.971
303.969
303.958
303.939
303.913
303.88
303.841
303.796
303.746
303.691
303.632
303.569
303.502
303.433
303.36
303.286
303.209
303.13
303.05
302.969
302.886
302.803
302.72
302.636
302.551
302.467
302.383
302.299
302.215
302.132
302.049
301.967
301.885
301.805
301.725
301.645
301.567
301.49
301.413
301.337
301.262
301.188
301.115
301.043
300.972
300.901
300.831
300.762
300.693
300.625
300.558
300.491
300.425
300.359
300.293
300.228
300.162
300.097
300.032
285.7
286.809
287.881
288.914
289.908
290.864
291.78
292.657
293.495
294.294
295.056
295.779
296.466
297.116
297.73
298.309
298.854
299.366
299.846
300.294
300.711
301.1
301.46
301.792
302.098
302.379
302.636
302.869
303.081
303.271
303.44
303.591
303.723
303.838
303.937
304.02
304.088
304.143
304.184
304.214
304.232
304.24
304.237
304.226
304.206
304.178
304.143
304.101
304.053
304
303.941
303.878
303.81
303.739
303.665
303.588
303.508
303.426
303.342
303.256
303.17
303.082
302.993
302.904
302.814
302.724
302.634
302.544
302.454
302.365
302.276
302.188
302.1
302.013
301.927
301.841
301.757
301.673
301.59
301.509
301.428
301.348
301.269
301.191
301.114
301.037
300.962
300.887
300.813
300.74
300.668
300.596
300.524
300.453
300.383
300.313
300.243
300.173
300.104
300.035
284.797
285.977
287.116
288.214
289.271
290.287
291.261
292.193
293.084
293.934
294.744
295.513
296.243
296.934
297.587
298.202
298.782
299.326
299.836
300.312
300.756
301.169
301.552
301.905
302.231
302.53
302.802
303.051
303.275
303.477
303.658
303.818
303.958
304.08
304.185
304.273
304.346
304.404
304.448
304.48
304.499
304.507
304.505
304.493
304.471
304.442
304.404
304.36
304.309
304.252
304.19
304.122
304.051
303.975
303.896
303.814
303.729
303.642
303.553
303.462
303.37
303.276
303.182
303.087
302.991
302.896
302.8
302.704
302.609
302.514
302.419
302.326
302.232
302.14
302.048
301.957
301.868
301.779
301.691
301.604
301.518
301.433
301.349
301.266
301.184
301.103
301.023
300.943
300.865
300.787
300.71
300.633
300.557
300.482
300.407
300.332
300.258
300.184
300.11
300.037
283.899
285.148
286.354
287.518
288.637
289.713
290.744
291.732
292.675
293.576
294.433
295.248
296.021
296.752
297.444
298.096
298.71
299.286
299.826
300.331
300.801
301.238
301.644
302.018
302.363
302.679
302.968
303.231
303.469
303.683
303.874
304.043
304.192
304.322
304.432
304.526
304.603
304.664
304.711
304.745
304.765
304.774
304.771
304.758
304.736
304.704
304.665
304.618
304.564
304.503
304.437
304.366
304.29
304.21
304.127
304.04
303.95
303.857
303.763
303.667
303.569
303.47
303.37
303.269
303.168
303.067
302.966
302.864
302.763
302.663
302.563
302.463
302.364
302.266
302.169
302.073
301.978
301.884
301.791
301.699
301.608
301.518
301.429
301.341
301.254
301.168
301.083
300.999
300.916
300.833
300.752
300.671
300.59
300.51
300.431
300.352
300.273
300.195
300.117
300.039
283.004
284.322
285.596
286.824
288.006
289.141
290.23
291.272
292.268
293.219
294.124
294.984
295.799
296.572
297.302
297.99
298.638
299.247
299.816
300.349
300.846
301.307
301.735
302.13
302.494
302.828
303.133
303.41
303.661
303.887
304.089
304.268
304.425
304.562
304.679
304.777
304.859
304.924
304.973
305.008
305.03
305.039
305.036
305.023
304.999
304.966
304.924
304.874
304.817
304.754
304.684
304.609
304.529
304.444
304.356
304.264
304.169
304.072
303.972
303.87
303.767
303.663
303.557
303.451
303.344
303.237
303.13
303.023
302.917
302.811
302.705
302.6
302.496
302.392
302.29
302.188
302.088
301.988
301.89
301.793
301.697
301.602
301.508
301.415
301.324
301.233
301.143
301.054
300.967
300.88
300.793
300.708
300.623
300.539
300.455
300.372
300.289
300.206
300.124
300.041
282.113
283.501
284.841
286.134
287.377
288.572
289.718
290.815
291.863
292.863
293.816
294.721
295.579
296.392
297.161
297.885
298.567
299.207
299.807
300.367
300.89
301.376
301.826
302.242
302.625
302.976
303.297
303.589
303.853
304.091
304.303
304.492
304.657
304.801
304.924
305.028
305.113
305.182
305.234
305.271
305.293
305.303
305.3
305.286
305.261
305.226
305.182
305.13
305.07
305.003
304.929
304.85
304.766
304.677
304.584
304.488
304.388
304.285
304.18
304.073
303.965
303.855
303.744
303.632
303.52
303.407
303.294
303.182
303.07
302.958
302.847
302.736
302.626
302.518
302.41
302.303
302.197
302.093
301.989
301.887
301.786
301.686
301.587
301.489
301.393
301.298
301.203
301.11
301.017
300.926
300.835
300.745
300.656
300.567
300.479
300.391
300.304
300.217
300.13
300.043
281.227
282.684
284.09
285.447
286.752
288.006
289.209
290.36
291.46
292.51
293.509
294.459
295.36
296.214
297.02
297.78
298.496
299.168
299.797
300.386
300.934
301.444
301.916
302.353
302.755
303.124
303.461
303.767
304.044
304.294
304.516
304.714
304.888
305.039
305.168
305.277
305.367
305.438
305.493
305.532
305.556
305.566
305.563
305.548
305.521
305.485
305.439
305.384
305.321
305.25
305.174
305.091
305.002
304.909
304.811
304.71
304.605
304.497
304.387
304.275
304.161
304.046
303.929
303.812
303.694
303.576
303.458
303.34
303.222
303.104
302.988
302.872
302.757
302.642
302.529
302.417
302.306
302.196
302.088
301.98
301.874
301.769
301.666
301.563
301.462
301.362
301.263
301.165
301.068
300.972
300.876
300.782
300.688
300.595
300.503
300.411
300.319
300.228
300.136
300.045
280.346
281.87
283.343
284.763
286.13
287.443
288.702
289.907
291.059
292.158
293.204
294.199
295.142
296.036
296.88
297.676
298.425
299.129
299.788
300.404
300.978
301.512
302.006
302.463
302.884
303.27
303.623
303.944
304.234
304.495
304.729
304.935
305.117
305.275
305.411
305.525
305.619
305.694
305.751
305.792
305.817
305.827
305.824
305.808
305.781
305.742
305.694
305.636
305.571
305.497
305.416
305.33
305.237
305.139
305.037
304.931
304.821
304.709
304.593
304.476
304.356
304.236
304.114
303.991
303.867
303.744
303.62
303.496
303.373
303.25
303.128
303.007
302.886
302.766
302.648
302.531
302.414
302.299
302.186
302.073
301.962
301.852
301.744
301.637
301.531
301.426
301.322
301.219
301.118
301.017
300.917
300.819
300.72
300.623
300.526
300.43
300.334
300.238
300.143
300.048
279.469
281.062
282.6
284.084
285.511
286.883
288.198
289.457
290.66
291.808
292.901
293.94
294.926
295.859
296.741
297.572
298.355
299.09
299.778
300.422
301.021
301.579
302.096
302.573
303.013
303.416
303.785
304.12
304.423
304.696
304.939
305.156
305.345
305.51
305.652
305.771
305.869
305.948
306.008
306.05
306.076
306.087
306.084
306.067
306.038
305.998
305.948
305.888
305.819
305.742
305.658
305.567
305.471
305.369
305.262
305.151
305.036
304.919
304.798
304.675
304.551
304.425
304.297
304.169
304.04
303.911
303.781
303.652
303.523
303.395
303.268
303.141
303.015
302.89
302.766
302.643
302.522
302.402
302.283
302.166
302.05
301.935
301.822
301.71
301.599
301.489
301.381
301.274
301.168
301.063
300.958
300.855
300.753
300.651
300.55
300.449
300.349
300.249
300.149
300.05
278.598
280.258
281.862
283.408
284.896
286.326
287.697
289.009
290.264
291.461
292.6
293.683
294.71
295.683
296.602
297.469
298.285
299.051
299.769
300.44
301.065
301.646
302.185
302.682
303.141
303.561
303.945
304.295
304.611
304.895
305.149
305.374
305.572
305.744
305.892
306.016
306.118
306.2
306.263
306.307
306.334
306.345
306.342
306.325
306.295
306.253
306.2
306.138
306.066
305.986
305.898
305.804
305.703
305.597
305.485
305.37
305.25
305.127
305.002
304.874
304.744
304.612
304.48
304.346
304.211
304.077
303.942
303.807
303.673
303.539
303.406
303.274
303.143
303.013
302.883
302.756
302.629
302.504
302.38
302.258
302.137
302.017
301.899
301.782
301.667
301.553
301.44
301.328
301.217
301.108
300.999
300.891
300.785
300.678
300.573
300.468
300.364
300.259
300.156
300.052
277.731
279.459
281.127
282.736
284.285
285.772
287.199
288.565
289.87
291.115
292.3
293.427
294.496
295.508
296.465
297.367
298.216
299.013
299.76
300.457
301.108
301.713
302.273
302.791
303.268
303.705
304.105
304.469
304.797
305.093
305.358
305.592
305.798
305.977
306.13
306.26
306.366
306.451
306.516
306.562
306.59
306.602
306.599
306.581
306.55
306.506
306.451
306.386
306.312
306.228
306.137
306.039
305.934
305.823
305.707
305.587
305.463
305.335
305.204
305.071
304.936
304.799
304.661
304.522
304.382
304.242
304.102
303.961
303.822
303.683
303.544
303.407
303.27
303.134
303
302.867
302.736
302.605
302.477
302.349
302.223
302.099
301.976
301.854
301.734
301.615
301.498
301.382
301.267
301.153
301.04
300.927
300.816
300.706
300.596
300.487
300.378
300.27
300.162
300.054
276.87
278.665
280.398
282.069
283.677
285.222
286.704
288.123
289.478
290.771
292.003
293.173
294.283
295.335
296.328
297.265
298.147
298.975
299.75
300.475
301.151
301.779
302.361
302.899
303.394
303.849
304.264
304.641
304.983
305.29
305.565
305.808
306.022
306.208
306.367
306.502
306.612
306.701
306.768
306.816
306.845
306.857
306.854
306.835
306.803
306.758
306.701
306.633
306.556
306.469
306.374
306.272
306.163
306.048
305.928
305.803
305.674
305.541
305.406
305.267
305.127
304.985
304.841
304.697
304.551
304.406
304.26
304.115
303.969
303.825
303.681
303.538
303.396
303.256
303.116
302.978
302.841
302.706
302.572
302.44
302.309
302.18
302.052
301.926
301.801
301.678
301.556
301.435
301.315
301.197
301.08
300.963
300.848
300.733
300.619
300.506
300.393
300.28
300.168
300.056
276.015
277.876
279.673
281.406
283.074
284.676
286.212
287.683
289.089
290.43
291.707
292.921
294.072
295.162
296.192
297.164
298.078
298.937
299.741
300.493
301.193
301.845
302.448
303.006
303.52
303.991
304.421
304.813
305.167
305.486
305.77
306.023
306.245
306.437
306.603
306.742
306.857
306.948
307.018
307.068
307.098
307.111
307.107
307.088
307.054
307.008
306.949
306.878
306.798
306.708
306.61
306.504
306.391
306.272
306.147
306.018
305.884
305.746
305.605
305.462
305.316
305.169
305.02
304.87
304.72
304.569
304.418
304.267
304.116
303.966
303.817
303.669
303.522
303.376
303.231
303.088
302.946
302.806
302.667
302.53
302.395
302.261
302.128
301.997
301.868
301.74
301.613
301.488
301.364
301.241
301.12
300.999
300.879
300.76
300.642
300.524
300.407
300.291
300.174
300.058
275.166
277.093
278.953
280.748
282.474
284.133
285.724
287.247
288.703
290.091
291.413
292.67
293.862
294.991
296.058
297.064
298.01
298.899
299.732
300.51
301.236
301.91
302.535
303.113
303.644
304.132
304.578
304.983
305.35
305.68
305.975
306.236
306.466
306.665
306.836
306.981
307.099
307.194
307.267
307.318
307.35
307.363
307.359
307.339
307.304
307.256
307.195
307.122
307.039
306.946
306.844
306.734
306.617
306.494
306.365
306.231
306.092
305.95
305.804
305.655
305.505
305.352
305.198
305.043
304.887
304.73
304.574
304.418
304.262
304.107
303.952
303.799
303.647
303.496
303.346
303.197
303.051
302.905
302.762
302.62
302.479
302.341
302.204
302.068
301.934
301.801
301.67
301.541
301.412
301.285
301.159
301.034
300.91
300.787
300.665
300.543
300.422
300.301
300.18
300.06
274.323
276.315
278.239
280.094
281.879
283.595
285.24
286.814
288.319
289.755
291.122
292.421
293.654
294.821
295.924
296.964
297.943
298.862
299.723
300.527
301.277
301.975
302.621
303.218
303.768
304.272
304.733
305.152
305.532
305.873
306.178
306.448
306.685
306.892
307.069
307.218
307.34
307.439
307.513
307.566
307.599
307.613
307.609
307.588
307.552
307.502
307.439
307.364
307.278
307.181
307.076
306.963
306.842
306.714
306.581
306.442
306.299
306.152
306.001
305.847
305.691
305.534
305.374
305.214
305.053
304.891
304.729
304.568
304.407
304.246
304.087
303.928
303.77
303.614
303.459
303.306
303.154
303.004
302.856
302.709
302.564
302.42
302.278
302.138
302
301.863
301.727
301.593
301.46
301.329
301.199
301.069
300.941
300.814
300.687
300.561
300.436
300.311
300.187
300.062
273.486
275.543
277.53
279.445
281.289
283.06
284.759
286.385
287.939
289.421
290.833
292.174
293.447
294.652
295.791
296.865
297.876
298.825
299.714
300.545
301.319
302.039
302.706
303.323
303.891
304.412
304.888
305.32
305.712
306.064
306.379
306.658
306.903
307.116
307.299
307.453
307.58
307.681
307.758
307.813
307.847
307.861
307.857
307.835
307.798
307.746
307.681
307.604
307.515
307.416
307.307
307.19
307.065
306.933
306.795
306.652
306.504
306.352
306.196
306.038
305.877
305.714
305.549
305.384
305.217
305.05
304.883
304.717
304.55
304.385
304.22
304.056
303.893
303.732
303.572
303.414
303.257
303.102
302.949
302.797
302.647
302.499
302.353
302.208
302.065
301.923
301.783
301.645
301.508
301.372
301.238
301.104
300.972
300.84
300.71
300.58
300.45
300.321
300.193
300.064
272.656
274.777
276.826
278.802
280.703
282.53
284.281
285.958
287.561
289.09
290.546
291.929
293.242
294.485
295.659
296.767
297.809
298.788
299.705
300.562
301.36
302.103
302.791
303.427
304.013
304.55
305.041
305.487
305.891
306.254
306.579
306.866
307.119
307.339
307.527
307.686
307.817
307.921
308.001
308.058
308.092
308.107
308.103
308.081
308.042
307.989
307.922
307.842
307.75
307.648
307.536
307.415
307.286
307.15
307.008
306.86
306.708
306.551
306.39
306.227
306.061
305.893
305.723
305.552
305.381
305.209
305.036
304.864
304.693
304.522
304.352
304.183
304.015
303.849
303.684
303.521
303.359
303.199
303.041
302.885
302.73
302.577
302.426
302.277
302.129
301.984
301.839
301.696
301.555
301.415
301.276
301.139
301.002
300.867
300.732
300.598
300.464
300.331
300.199
300.066
271.833
274.018
276.128
278.163
280.122
282.003
283.808
285.536
287.186
288.761
290.261
291.686
293.038
294.319
295.528
296.669
297.743
298.751
299.696
300.579
301.401
302.166
302.875
303.53
304.134
304.687
305.192
305.652
306.068
306.442
306.777
307.073
307.334
307.56
307.754
307.918
308.052
308.16
308.242
308.3
308.336
308.351
308.347
308.324
308.284
308.23
308.16
308.078
307.983
307.878
307.763
307.638
307.505
307.366
307.219
307.067
306.91
306.748
306.583
306.414
306.243
306.07
305.895
305.719
305.543
305.365
305.188
305.011
304.834
304.658
304.483
304.309
304.136
303.965
303.795
303.627
303.46
303.295
303.133
302.971
302.812
302.655
302.499
302.346
302.194
302.043
301.895
301.748
301.602
301.458
301.315
301.173
301.033
300.893
300.754
300.616
300.478
300.341
300.205
300.068
271.016
273.265
275.436
277.53
279.546
281.482
283.339
285.116
286.815
288.436
289.979
291.445
292.837
294.154
295.399
296.573
297.678
298.715
299.687
300.595
301.442
302.229
302.959
303.633
304.253
304.823
305.343
305.816
306.244
306.629
306.973
307.278
307.546
307.779
307.979
308.147
308.286
308.396
308.481
308.541
308.578
308.593
308.588
308.565
308.525
308.468
308.397
308.312
308.215
308.106
307.988
307.86
307.723
307.579
307.428
307.272
307.11
306.944
306.774
306.6
306.424
306.246
306.066
305.885
305.703
305.521
305.338
305.156
304.974
304.793
304.613
304.434
304.256
304.08
303.905
303.732
303.56
303.391
303.223
303.058
302.894
302.732
302.572
302.414
302.257
302.103
301.95
301.798
301.648
301.5
301.353
301.207
301.062
300.919
300.776
300.634
300.492
300.351
300.211
300.07
270.207
272.518
274.75
276.903
278.974
280.965
282.873
284.701
286.447
288.113
289.699
291.206
292.637
293.991
295.27
296.477
297.613
298.679
299.678
300.612
301.482
302.291
303.041
303.734
304.372
304.957
305.492
305.978
306.418
306.814
307.168
307.481
307.757
307.996
308.202
308.375
308.517
308.631
308.718
308.779
308.817
308.833
308.828
308.804
308.763
308.705
308.631
308.544
308.444
308.333
308.211
308.079
307.939
307.791
307.636
307.475
307.309
307.138
306.963
306.785
306.604
306.421
306.236
306.05
305.863
305.675
305.487
305.3
305.113
304.927
304.742
304.558
304.375
304.194
304.014
303.836
303.66
303.486
303.313
303.143
302.975
302.808
302.644
302.481
302.32
302.161
302.004
301.848
301.694
301.542
301.391
301.241
301.092
300.944
300.798
300.651
300.506
300.361
300.217
300.072
269.405
271.778
274.071
276.281
278.408
280.452
282.412
284.289
286.082
287.793
289.421
290.97
292.438
293.829
295.143
296.382
297.549
298.644
299.67
300.628
301.522
302.353
303.123
303.835
304.49
305.091
305.64
306.139
306.591
306.998
307.361
307.683
307.966
308.212
308.422
308.6
308.746
308.863
308.952
309.016
309.055
309.071
309.066
309.041
308.999
308.939
308.864
308.774
308.672
308.557
308.432
308.296
308.152
308
307.841
307.676
307.505
307.33
307.15
306.967
306.782
306.593
306.404
306.212
306.02
305.828
305.635
305.443
305.251
305.06
304.869
304.68
304.493
304.306
304.122
303.939
303.758
303.58
303.403
303.228
303.055
302.884
302.715
302.548
302.383
302.219
302.058
301.898
301.74
301.583
301.428
301.274
301.122
300.97
300.819
300.669
300.52
300.371
300.222
300.074
268.61
271.045
273.397
275.665
277.848
279.945
281.956
283.881
285.721
287.476
289.147
290.735
292.242
293.669
295.017
296.288
297.485
298.608
299.661
300.645
301.562
302.414
303.204
303.934
304.606
305.223
305.786
306.299
306.762
307.179
307.552
307.882
308.173
308.425
308.641
308.823
308.974
309.093
309.185
309.25
309.29
309.306
309.301
309.276
309.232
309.171
309.094
309.002
308.897
308.779
308.651
308.512
308.364
308.208
308.045
307.875
307.7
307.52
307.336
307.148
306.958
306.765
306.57
306.374
306.177
305.979
305.781
305.584
305.387
305.191
304.996
304.802
304.609
304.418
304.229
304.042
303.856
303.672
303.491
303.311
303.134
302.959
302.785
302.614
302.445
302.277
302.111
301.948
301.785
301.625
301.465
301.307
301.151
300.995
300.84
300.686
300.533
300.38
300.228
300.076
267.824
270.32
272.731
275.055
277.293
279.442
281.503
283.477
285.363
287.162
288.875
290.503
292.047
293.51
294.892
296.195
297.422
298.574
299.653
300.661
301.601
302.475
303.284
304.033
304.722
305.354
305.931
306.457
306.932
307.359
307.741
308.08
308.378
308.636
308.858
309.045
309.198
309.321
309.415
309.482
309.523
309.54
309.534
309.509
309.464
309.401
309.322
309.228
309.12
308.999
308.867
308.725
308.574
308.414
308.247
308.073
307.893
307.709
307.52
307.327
307.132
306.934
306.735
306.533
306.332
306.129
305.926
305.724
305.522
305.321
305.121
304.922
304.725
304.529
304.335
304.143
303.953
303.764
303.578
303.394
303.213
303.033
302.855
302.679
302.506
302.334
302.164
301.996
301.83
301.665
301.502