/*--------------------------------*- C++ -*----------------------------------*\
| =========                 |                                                 |
| \\      /  F ield         | OpenFOAM: The Open Source CFD Toolbox           |
|  \\    /   O peration     | Version:  2406                                  |
|   \\  /    A nd           | Website:  www.openfoam.com                      |
|    \\/     M anipulation  |                                                 |
\*---------------------------------------------------------------------------*/
FoamFile
{
    version     2.0;
    format      ascii;
    arch        "LSB;label=32;scalar=64";
    class       volScalarField;
    location    "160";
    object      gradTy;
}
// * * * * * * * * * * * * * * * * * * * * * * * * * * * * * * * * * * * * * //

dimensions      [0 -1 0 1 0 0 0];

internalField   nonuniform List<scalar> 
20000
(
-141.118
-126.777
-113.05
-99.9484
-87.4804
-75.6488
-64.4523
-53.8886
-43.9515
-34.6316
-25.9171
-17.7946
-10.2489
-3.26348
3.17958
9.09907
14.5147
19.4466
23.9157
27.9428
31.5494
34.7564
37.5852
40.0567
42.1916
44.0102
45.5325
46.778
47.7656
48.5136
49.0399
49.3615
49.4949
49.4559
49.2595
48.9202
48.4517
47.867
47.1784
46.3975
45.5353
44.6021
43.6074
42.5605
41.4695
40.3424
39.1864
38.0082
36.814
35.6093
34.3994
33.189
31.9824
30.7834
29.5954
28.4216
27.2647
26.1271
25.0108
23.9178
22.8496
21.8074
20.7923
19.8051
18.8464
17.9168
17.0165
16.1457
15.3042
14.492
13.7088
12.9543
12.2279
11.5292
10.8575
10.212
9.59211
8.99693
8.42563
7.87729
7.35098
6.84574
6.36057
5.89445
5.44634
5.01521
4.59998
4.19957
3.81292
3.43892
3.0765
2.72454
2.38195
2.04763
1.72048
1.39939
1.08327
0.771009
0.461504
0.153651
-141.083
-126.746
-113.022
-99.9243
-87.4588
-75.6296
-64.4362
-53.8754
-43.9408
-34.6232
-25.9108
-17.7903
-10.2465
-3.26271
3.17877
9.0968
14.5111
19.4418
23.9097
27.9359
31.5416
34.7478
37.5759
40.0468
42.1812
43.9993
45.5213
46.7665
47.7538
48.5017
49.0278
49.3493
49.4827
49.4437
49.2473
48.9082
48.4398
47.8552
47.1668
46.3861
45.5241
44.5911
43.5967
42.55
41.4593
40.3325
39.1768
37.9989
36.8049
35.6005
34.3909
33.1808
31.9745
30.7758
29.5881
28.4146
27.2579
26.1206
25.0047
23.9119
22.844
21.802
20.7871
19.8002
18.8418
17.9124
17.0123
16.1417
15.3004
14.4884
13.7055
12.9511
12.2249
11.5264
10.8548
10.2095
9.58974
8.99471
8.42355
7.87535
7.34917
6.84405
6.359
5.89299
5.445
5.01397
4.59884
4.19854
3.81198
3.43808
3.07574
2.72386
2.38136
2.04712
1.72005
1.39905
1.083
0.770819
0.461389
0.153613
-141.014
-126.684
-112.967
-99.875
-87.4155
-75.592
-64.4043
-53.8489
-43.9193
-34.6062
-25.8981
-17.7816
-10.2415
-3.26116
3.17714
9.09226
14.5038
19.4321
23.8979
27.9221
31.526
34.7307
37.5574
40.027
42.1603
43.9776
45.4988
46.7434
47.7302
48.4777
49.0036
49.3249
49.4582
49.4192
49.223
48.884
48.4159
47.8316
47.1435
46.3632
45.5016
44.569
43.5752
42.529
41.4388
40.3126
39.1574
37.9801
36.7867
35.583
34.374
33.1645
31.9587
30.7606
29.5735
28.4005
27.2445
26.1077
24.9923
23.9001
22.8327
21.7912
20.7769
19.7904
18.8325
17.9036
17.004
16.1337
15.2929
14.4813
13.6987
12.9447
12.2189
11.5207
10.8494
10.2045
9.58501
8.99028
8.41939
7.87146
7.34554
6.84068
6.35586
5.89009
5.44231
5.0115
4.59657
4.19647
3.8101
3.43638
3.07422
2.72252
2.38018
2.04611
1.7192
1.39836
1.08247
0.770438
0.461161
0.153537
-140.91
-126.59
-112.883
-99.8007
-87.3504
-75.5358
-64.3566
-53.8091
-43.8869
-34.5807
-25.879
-17.7685
-10.2339
-3.25877
3.17477
9.08551
14.4931
19.4177
23.8802
27.9014
31.5026
34.7049
37.5295
39.9974
42.1291
43.945
45.4651
46.7087
47.6949
48.4418
48.9673
49.2884
49.4216
49.3826
49.1866
48.8478
48.38
47.7962
47.1086
46.3288
45.4679
44.536
43.5429
42.4975
41.4081
40.2827
39.1284
37.952
36.7595
35.5566
34.3485
33.1399
31.9351
30.7378
29.5516
28.3795
27.2243
26.0884
24.9738
23.8824
22.8158
21.7751
20.7615
19.7758
18.8186
17.8903
16.9914
16.1218
15.2816
14.4706
13.6886
12.9351
12.2098
11.5121
10.8414
10.1969
9.57791
8.98362
8.41316
7.86563
7.34011
6.83561
6.35115
5.88572
5.43828
5.00779
4.59317
4.19336
3.80728
3.43384
3.07194
2.7205
2.37842
2.0446
1.71793
1.39732
1.08167
0.769867
0.460819
0.153423
-140.771
-126.465
-112.771
-99.7017
-87.2638
-75.4611
-64.293
-53.756
-43.8436
-34.5466
-25.8535
-17.7509
-10.2238
-3.25554
3.17165
9.07655
14.4788
19.3986
23.8566
27.8739
31.4715
34.6707
37.4925
39.9579
42.0875
43.9016
45.4202
46.6626
47.6477
48.3939
48.9189
49.2397
49.3728
49.3338
49.138
48.7995
48.3322
47.7489
47.062
46.2831
45.423
44.492
43.4999
42.4555
41.3672
40.2429
39.0898
37.9145
36.7232
35.5215
34.3146
33.1072
31.9035
30.7074
29.5224
28.3515
27.1974
26.0626
24.9492
23.8589
22.7932
21.7536
20.741
19.7562
18.8
17.8727
16.9746
16.1058
15.2665
14.4563
13.675
12.9224
12.1978
11.5008
10.8307
10.1868
9.56845
8.97475
8.40485
7.85786
7.33286
6.82886
6.34488
5.87991
5.43291
5.00284
4.58863
4.18922
3.80352
3.43045
3.06891
2.71782
2.37607
2.04258
1.71624
1.39594
1.0806
0.769107
0.460364
0.153272
-140.596
-126.308
-112.631
-99.5782
-87.1558
-75.3677
-64.2135
-53.6896
-43.7895
-34.504
-25.8216
-17.729
-10.2112
-3.25151
3.16774
9.06535
14.4609
19.3746
23.8271
27.8394
31.4326
34.6278
37.4461
39.9085
42.0355
43.8474
45.3641
46.6049
47.5889
48.3341
48.8584
49.1789
49.3118
49.2729
49.0772
48.7392
48.2725
47.6899
47.0039
46.2259
45.3668
44.437
43.4461
42.403
41.3161
40.1932
39.0415
37.8676
36.6778
35.4776
34.2722
33.0662
31.8641
30.6695
29.4859
28.3164
27.1638
26.0304
24.9183
23.8294
22.7651
21.7267
20.7153
19.7318
18.7767
17.8506
16.9536
16.0859
15.2476
14.4384
13.6581
12.9064
12.1827
11.4866
10.8173
10.1742
9.55663
8.96366
8.39446
7.84816
7.3238
6.82042
6.33704
5.87265
5.4262
4.99666
4.58296
4.18404
3.79882
3.42621
3.06512
2.71446
2.37314
2.04006
1.71412
1.39422
1.07927
0.768158
0.459796
0.153082
-140.387
-126.12
-112.464
-99.4302
-87.0264
-75.2559
-64.1183
-53.61
-43.7245
-34.4528
-25.7833
-17.7027
-10.196
-3.24666
3.16306
9.05192
14.4395
19.3459
23.7918
27.7981
31.386
34.5764
37.3906
39.8493
41.9731
43.7823
45.2967
46.5358
47.5182
48.2624
48.7859
49.1059
49.2386
49.1997
49.0044
48.6669
48.2008
47.6191
46.9341
46.1572
45.2995
44.3711
43.3816
42.3401
41.2548
40.1335
38.9835
37.8114
36.6233
35.4249
34.2213
33.0172
31.8168
30.624
29.4421
28.2744
27.1235
25.9918
24.8813
23.794
22.7313
21.6945
20.6846
19.7025
18.7489
17.8241
16.9284
16.0621
15.225
14.417
13.6379
12.8872
12.1646
11.4695
10.8012
10.1591
9.54245
8.95036
8.38201
7.83651
7.31293
6.8103
6.32764
5.86393
5.41815
4.98925
4.57617
4.17784
3.79318
3.42113
3.06057
2.71044
2.36962
2.03703
1.71158
1.39215
1.07767
0.76702
0.459115
0.152856
-140.144
-125.901
-112.269
-99.2579
-86.8756
-75.1255
-64.0072
-53.5172
-43.6488
-34.3931
-25.7386
-17.672
-10.1783
-3.24102
3.1576
9.03625
14.4145
19.3124
23.7506
27.75
31.3316
34.5165
37.3258
39.7802
41.9004
43.7064
45.2183
46.4551
47.4359
48.1788
48.7014
49.0208
49.1533
49.1145
48.9195
48.5826
48.1173
47.5366
46.8528
46.0773
45.221
44.2942
43.3065
42.2667
41.1833
40.064
38.916
37.7459
36.5599
35.3635
34.162
32.96
31.7616
30.5709
29.3911
28.2254
27.0765
25.9467
24.8382
23.7528
22.6919
21.6569
20.6488
19.6684
18.7164
17.7932
16.8991
16.0342
15.1986
14.392
13.6142
12.8649
12.1435
11.4496
10.7825
10.1415
9.52591
8.93485
8.36748
7.82293
7.30026
6.7985
6.31668
5.85377
5.40876
4.9806
4.56824
4.1706
3.78661
3.4152
3.05527
2.70574
2.36552
2.03351
1.70861
1.38974
1.0758
0.765692
0.45832
0.152591
-139.866
-125.652
-112.046
-99.0612
-86.7035
-74.9768
-63.8805
-53.4112
-43.5624
-34.325
-25.6876
-17.637
-10.1582
-3.2346
3.15134
9.01834
14.3859
19.2741
23.7035
27.695
31.2695
34.4481
37.2518
39.7014
41.8173
43.6198
45.1286
46.3631
47.3419
48.0833
48.6049
48.9236
49.0558
49.0171
48.8225
48.4863
48.0219
47.4424
46.7599
45.9859
45.1314
44.2064
43.2206
42.1829
41.1016
39.9846
38.8388
37.6711
36.4874
35.2934
34.0943
32.8946
31.6987
30.5103
29.3329
28.1695
27.0228
25.8953
24.789
23.7057
22.6469
21.6139
20.6078
19.6294
18.6793
17.7579
16.8656
16.0025
15.1685
14.3635
13.5872
12.8394
12.1195
11.4269
10.7612
10.1214
9.50703
8.91713
8.3509
7.80742
7.28578
6.78502
6.30415
5.84217
5.39804
4.97073
4.55918
4.16233
3.77911
3.40843
3.04922
2.70038
2.36083
2.02948
1.70523
1.38699
1.07367
0.764174
0.457412
0.152288
-139.554
-125.372
-111.796
-98.8402
-86.5101
-74.8095
-63.738
-53.292
-43.4652
-34.2484
-25.6303
-17.5977
-10.1355
-3.2274
3.14429
8.9982
14.3538
19.2311
23.6506
27.6331
31.1997
34.3712
37.1686
39.6127
41.7239
43.5224
45.0279
46.2595
47.2362
47.9759
48.4963
48.8144
48.9463
48.9077
48.7135
48.378
47.9147
47.3365
46.6555
45.8832
45.0306
44.1077
43.1241
42.0887
41.0099
39.8953
38.7521
37.587
36.4059
35.2146
34.0182
32.8212
31.6279
30.4422
29.2674
28.1066
26.9625
25.8375
24.7336
23.6527
22.5963
21.5657
20.5618
19.5856
18.6376
17.7183
16.8279
15.9667
15.1346
14.3314
13.5569
12.8107
12.0924
11.4014
10.7371
10.0988
9.4858
8.89722
8.33225
7.78999
7.26951
6.76987
6.29007
5.82912
5.38598
4.95963
4.549
4.15303
3.77066
3.40082
3.0424
2.69435
2.35556
2.02494
1.70142
1.38389
1.07127
0.762467
0.45639
0.151948
-139.207
-125.06
-111.519
-98.5948
-86.2953
-74.6237
-63.5797
-53.1597
-43.3573
-34.1634
-25.5667
-17.554
-10.1103
-3.21937
3.13649
8.97585
14.3181
19.1833
23.5918
27.5645
31.1222
34.2858
37.0763
39.5143
41.6203
43.4143
44.916
46.1446
47.1188
47.8567
48.3759
48.6931
48.8247
48.7862
48.5925
48.2578
47.7957
47.2189
46.5396
45.7692
44.9187
43.9981
43.017
41.9842
40.908
39.7962
38.6558
37.4936
36.3155
35.1271
33.9336
32.7396
31.5493
30.3665
29.1946
28.0367
26.8955
25.7733
24.6722
23.594
22.5402
21.5121
20.5107
19.5369
18.5913
17.6742
16.7861
15.927
15.097
14.2958
13.5232
12.7789
12.0624
11.3731
10.7104
10.0737
9.46223
8.87511
8.31154
7.77063
7.25145
6.75305
6.27444
5.81463
5.3726
4.9473
4.53769
4.14271
3.76129
3.39236
3.03484
2.68765
2.3497
2.01991
1.69719
1.38045
1.06861
0.760572
0.455256
0.151571
-138.826
-124.718
-111.214
-98.325
-86.0591
-74.4195
-63.4057
-53.0142
-43.2386
-34.0698
-25.4967
-17.5059
-10.0826
-3.21054
3.12793
8.95131
14.2789
19.1308
23.5273
27.4891
31.037
34.192
36.9748
39.4062
41.5064
43.2955
44.793
46.0183
46.9898
47.7257
48.2434
48.5598
48.691
48.6526
48.4595
48.1257
47.6648
47.0896
46.4122
45.644
44.7957
43.8777
42.8992
41.8692
40.796
39.6872
38.55
37.3909
36.2161
35.031
33.8407
32.65
31.4629
30.2834
29.1147
27.96
26.8218
25.7027
24.6046
23.5294
22.4785
21.4532
20.4546
19.4834
18.5404
17.6259
16.7402
15.8834
15.0556
14.2567
13.4862
12.7439
12.0293
11.342
10.6811
10.0462
9.43632
8.85081
8.28879
7.74935
7.2316
6.73456
6.25726
5.79871
5.35789
4.93376
4.52527
4.13137
3.75099
3.38307
3.02653
2.68029
2.34327
2.01438
1.69254
1.37667
1.06568
0.758489
0.454009
0.151156
-138.411
-124.345
-110.881
-98.0308
-85.8017
-74.1969
-63.216
-52.8556
-43.1092
-33.9679
-25.4203
-17.4535
-10.0524
-3.20089
3.1186
8.92456
14.2363
19.0736
23.4569
27.4068
30.9442
34.0897
36.8642
39.2883
41.3822
43.1659
44.6591
45.8806
46.8493
47.583
48.0991
48.4145
48.5454
48.5071
48.3145
47.9817
47.5222
46.9487
46.2733
45.5074
44.6617
43.7464
42.7708
41.7439
40.6739
39.5685
38.4347
37.279
36.1077
34.9262
33.7395
32.5523
31.3688
30.1928
29.0276
27.8763
26.7416
25.6258
24.531
23.459
22.4112
21.389
20.3934
19.4251
18.4849
17.5731
16.6901
15.8359
15.0106
14.214
13.4458
12.7058
11.9933
11.308
10.6492
10.0161
9.40809
8.82433
8.26399
7.72617
7.20996
6.71441
6.23854
5.78136
5.34186
4.91899
4.51173
4.11901
3.73977
3.37295
3.01748
2.67227
2.33625
2.00835
1.68748
1.37255
1.06249
0.756219
0.45265
0.150703
-137.961
-123.941
-110.521
-97.7125
-85.523
-73.9559
-63.0106
-52.6839
-42.9692
-33.8575
-25.3378
-17.3968
-10.0197
-3.19046
3.10851
8.89561
14.1901
19.0117
23.3808
27.3179
30.8437
33.979
36.7445
39.1607
41.2478
43.0258
44.514
45.7316
46.6971
47.4284
47.9429
48.2573
48.3877
48.3495
48.1576
47.8259
47.3679
46.7962
46.123
45.3596
44.5167
43.6043
42.6319
41.6084
40.5418
39.44
38.3098
37.158
35.9904
34.8127
33.6299
32.4466
31.2669
30.0947
28.9333
27.7858
26.6547
25.5426
24.4513
23.3828
22.3384
21.3195
20.3271
19.362
18.4248
17.516
16.6359
15.7845
14.9618
14.1678
13.4022
12.6645
11.9544
11.2713
10.6146
9.98357
9.37753
8.79567
8.23714
7.70107
7.18654
6.6926
6.21828
5.76259
5.32451
4.90302
4.49707
4.10563
3.72762
3.36199
3.00767
2.66359
2.32867
2.00183
1.68199
1.36809
1.05904
0.753763
0.45118
0.150214
-137.478
-123.507
-110.133
-97.37
-85.2232
-73.6966
-62.7898
-52.4992
-42.8185
-33.7388
-25.2489
-17.3358
-9.98459
-3.17925
3.09764
8.86446
14.1403
18.9451
23.2988
27.2221
30.7356
33.8599
36.6157
39.0235
41.1033
42.875
44.358
45.5714
46.5335
47.2622
47.7749
48.0882
48.2181
48.1801
47.9888
47.6583
47.2018
46.6322
45.9614
45.2006
44.3606
43.4515
42.4825
41.4625
40.3997
39.3017
38.1755
37.0277
35.8643
34.6907
33.512
32.3328
31.1573
29.9892
28.8319
27.6884
26.5613
25.453
24.3656
23.3008
22.2601
21.2448
20.2559
19.2942
18.3603
17.4546
16.5776
15.7292
14.9094
14.1182
13.3552
12.6201
11.9125
11.2318
10.5774
9.94857
9.34466
8.76484
8.20827
7.67408
7.16135
6.66914
6.19648
5.74239
5.30584
4.88583
4.48131
4.09124
3.71456
3.35021
2.99713
2.65425
2.3205
1.99481
1.6761
1.3633
1.05533
0.751121
0.449598
0.149687
-136.96
-123.042
-109.719
-97.0034
-84.9024
-73.4192
-62.5534
-52.3016
-42.6573
-33.6118
-25.1539
-17.2705
-9.94698
-3.16726
3.086
8.83111
14.0871
18.8738
23.2111
27.1197
30.6199
33.7325
36.4779
38.8766
40.9485
42.7136
44.191
45.3998
46.3583
47.0843
47.595
47.9071
48.0366
47.9987
47.8081
47.4789
47.0242
46.4567
45.7883
45.0305
44.1937
43.2879
42.3226
41.3065
40.2477
39.1538
38.0318
36.8883
35.7293
34.5601
33.3859
32.2111
31.04
29.8763
28.7234
27.5842
26.4613
25.3572
24.2739
23.2131
22.1763
21.1648
20.1796
19.2215
18.2912
17.3889
16.5152
15.6699
14.8533
14.065
13.3049
12.5726
11.8677
11.1895
10.5375
9.91112
9.30949
8.73185
8.17738
7.64519
7.13439
6.64404
6.17316
5.72077
5.28587
4.86744
4.46444
4.07584
3.70058
3.3376
2.98585
2.64426
2.31177
1.9873
1.66979
1.35816
1.05136
0.748294
0.447906
0.149124
-136.409
-122.546
-109.277
-96.613
-84.5607
-73.1237
-62.3016
-52.091
-42.4856
-33.4765
-25.0526
-17.2009
-9.90693
-3.1545
3.07359
8.79557
14.0304
18.7978
23.1177
27.0105
30.4967
33.5967
36.3311
38.7201
40.7837
42.5417
44.0132
45.2171
46.1717
46.8948
47.4035
47.7143
47.8432
47.8055
47.6157
47.2877
46.8349
46.2697
45.604
44.8492
44.0158
43.1137
42.1522
41.1402
40.0856
38.9962
37.8787
36.7399
35.5855
34.421
33.2515
32.0815
30.9151
29.7561
28.6078
27.4731
26.3548
25.2552
24.1762
23.1197
22.0871
21.0796
20.0984
19.1442
18.2175
17.3189
16.4487
15.6069
14.7935
14.0084
13.2514
12.522
11.8199
11.1445
10.4951
9.87123
9.27201
8.6967
8.14446
7.61442
7.10568
6.6173
6.14831
5.69775
5.2646
4.84785
4.44647
4.05943
3.68568
3.32417
2.97383
2.63362
2.30246
1.9793
1.66307
1.3527
1.04712
0.745282
0.446103
0.148524
-135.824
-122.021
-108.809
-96.1987
-84.1981
-72.8101
-62.0344
-51.8676
-42.3034
-33.3329
-24.9452
-17.1272
-9.86445
-3.14097
3.06041
8.75785
13.9703
18.7172
23.0186
26.8947
30.3659
33.4526
36.1753
38.5541
40.6088
42.3592
43.8244
45.0232
45.9737
46.6937
47.2002
47.5097
47.6381
47.6005
47.4115
47.085
46.634
46.0713
45.4085
44.6569
43.827
42.9288
41.9715
40.9638
39.9137
38.8289
37.7163
36.5823
35.4329
34.2734
33.1089
31.9439
30.7825
29.6285
28.4851
27.3553
26.2418
25.1469
24.0725
23.0205
21.9924
20.9893
20.0122
19.0621
18.1394
17.2447
16.3781
15.5399
14.7301
13.9483
13.1945
12.4683
11.7692
11.0967
10.4501
9.8289
9.23226
8.65941
8.10954
7.58177
7.07521
6.58892
6.12195
5.67331
5.24202
4.82706
4.42741
4.04203
3.66988
3.30991
2.96108
2.62233
2.29259
1.97081
1.65594
1.3469
1.04263
0.742086
0.44419
0.147887
-135.206
-121.465
-108.313
-95.7606
-83.8147
-72.4786
-61.752
-51.6315
-42.1108
-33.1812
-24.8316
-17.0492
-9.81953
-3.12667
3.04648
8.71798
13.9067
18.632
22.9138
26.7722
30.2276
33.3003
36.0106
38.3785
40.4239
42.1663
43.6249
44.8182
45.7644
46.481
46.9852
47.2934
47.4212
47.3838
47.1956
46.8706
46.4217
45.8615
45.2017
44.4535
43.6274
42.7333
41.7804
40.7772
39.732
38.6521
37.5446
36.4157
35.2715
34.1173
32.9581
31.7985
30.6424
29.4936
28.3554
27.2307
26.1223
25.0324
23.9629
22.9157
21.8922
20.8937
19.9211
18.9753
18.0568
17.1662
16.3036
15.4692
14.663
13.8848
13.1345
12.4115
11.7156
11.0461
10.4025
9.78415
9.19022
8.61998
8.07261
7.54725
7.04299
6.55892
6.09407
5.64748
5.21815
4.80508
4.40725
4.02362
3.65317
3.29484
2.9476
2.61039
2.28215
1.96184
1.6484
1.34077
1.03789
0.738707
0.442168
0.147213
-134.554
-120.88
-107.791
-95.299
-83.4106
-72.1292
-61.4543
-51.3826
-41.9078
-33.0212
-24.7119
-16.967
-9.77219
-3.1116
3.03179
8.67594
13.8396
18.5421
22.8033
26.6432
30.0819
33.1398
35.837
38.1935
40.229
41.9631
43.4146
44.6021
45.5437
46.257
46.7587
47.0654
47.1925
47.1553
46.9681
46.6446
46.1979
45.6404
44.9838
44.2392
43.4171
42.5273
41.5789
40.5806
39.5405
38.4658
37.3636
36.2402
35.1015
33.9528
32.7992
31.6452
30.4946
29.3514
28.2187
27.0995
25.9964
24.9117
23.8474
22.8052
21.7867
20.793
19.8251
18.8838
17.9698
17.0834
16.225
15.3946
14.5923
13.8179
13.0711
12.3517
11.6591
10.9929
10.3524
9.73698
9.14591
8.57843
8.0337
7.51087
7.00904
6.5273
6.0647
5.62026
5.193
4.78192
4.386
4.00423
3.63556
3.27896
2.93339
2.5978
2.27115
1.95238
1.64045
1.3343
1.03288
0.735146
0.440037
0.146504
-133.869
-120.264
-107.242
-94.8138
-82.986
-71.762
-61.1414
-51.121
-41.6944
-32.8531
-24.5861
-16.8806
-9.72245
-3.09576
3.01635
8.63177
13.7692
18.4477
22.6872
26.5075
29.9287
32.9711
35.6545
37.999
40.0242
41.7494
43.1935
44.375
45.3119
46.0215
46.5207
46.8257
46.9523
46.9152
46.729
46.4071
45.9627
45.408
44.7548
44.014
43.1961
42.3108
41.3672
40.374
39.3391
38.27
37.1733
36.0557
34.9228
33.78
32.6323
31.484
30.3394
29.2019
28.075
26.9615
25.864
24.7849
23.726
22.6891
21.6758
20.6871
19.7241
18.7877
17.8783
16.9964
16.1424
15.3162
14.518
13.7475
13.0046
12.2888
11.5998
10.9369
10.2997
9.68741
9.09935
8.53475
7.9928
7.47263
6.97336
6.49407
6.03382
5.59165
5.16656
4.75758
4.36367
3.98384
3.61705
3.26227
2.91846
2.58458
2.25959
1.94245
1.6321
1.32751
1.02763
0.731404
0.437796
0.145758
-133.151
-119.619
-106.667
-94.3053
-82.5408
-71.377
-60.8135
-50.8468
-41.4708
-32.6769
-24.4542
-16.7901
-9.6703
-3.07916
3.00017
8.58547
13.6953
18.3488
22.5655
26.3653
29.7682
32.7942
35.4633
37.7952
39.8095
41.5255
42.9618
44.137
45.0688
45.7746
46.2711
46.5746
46.7004
46.6636
46.4783
46.1582
45.7162
45.1644
44.5147
43.7779
42.9644
42.0838
41.1454
40.1575
39.1281
38.0647
36.974
35.8623
34.7354
33.5988
32.4572
31.3152
30.1767
29.0453
27.9244
26.8169
25.7253
24.6519
23.5987
22.5674
21.5595
20.5761
19.6183
18.6869
17.7824
16.9053
16.0558
15.2341
14.4401
13.6738
12.9348
12.2229
11.5376
10.8783
10.2445
9.63545
9.05055
8.48898
7.94993
7.43255
6.93596
6.45924
6.00146
5.56166
5.13885
4.73206
4.34027
3.96247
3.59765
3.24477
2.9028
2.57072
2.24747
1.93203
1.62335
1.32039
1.02211
0.727481
0.435448
0.144976
-132.4
-118.945
-106.066
-93.7734
-82.0754
-70.9745
-60.4705
-50.56
-41.2369
-32.4926
-24.3163
-16.6954
-9.61577
-3.0618
2.98325
8.53705
13.6181
18.2453
22.4383
26.2166
29.6003
32.6093
35.2633
37.5821
39.585
41.2913
42.7195
43.8881
44.8146
45.5165
46.0102
46.3119
46.4371
46.4004
46.2162
45.8979
45.4583
44.9097
44.2637
43.531
42.7221
41.8465
40.9133
39.931
38.9075
37.85
36.7654
35.66
34.5395
33.4093
32.2742
31.1386
30.0065
28.8815
27.7669
26.6657
25.5802
24.5129
23.4656
22.4402
21.4379
20.4601
19.5077
18.5815
17.6821
16.8099
15.9652
15.1482
14.3587
13.5967
12.8619
12.154
11.4725
10.8169
10.1867
9.58111
8.99951
8.4411
7.9051
7.39063
6.89684
6.42281
5.96762
5.53029
5.10987
4.70537
4.31579
3.94013
3.57736
3.22647
2.88643
2.55622
2.2348
1.92113
1.61419
1.31294
1.01635
0.723379
0.432993
0.144159
-131.616
-118.241
-105.438
-93.2185
-81.5896
-70.5545
-60.1126
-50.2608
-40.9929
-32.3003
-24.1724
-16.5966
-9.55886
-3.04368
2.96559
8.48652
13.5375
18.1373
22.3055
26.0615
29.4251
32.4163
35.0546
37.3596
39.3507
41.0469
42.4667
43.6283
44.5494
45.2471
45.7379
46.0378
46.1622
46.1258
45.9427
45.6263
45.1893
44.644
44.0017
43.2734
42.4692
41.5988
40.6712
39.6947
38.6772
37.626
36.5479
35.449
34.3351
33.2116
32.0832
30.9543
29.8289
28.7106
27.6026
26.5078
25.4288
24.3678
23.3268
22.3074
21.311
20.339
19.3922
18.4715
17.5775
16.7104
15.8708
15.0585
14.2737
13.5162
12.7858
12.0821
11.4046
10.7529
10.1264
9.52441
8.94625
8.39115
7.85831
7.3469
6.85603
6.3848
5.9323
5.49756
5.07963
4.67753
4.29025
3.91681
3.55619
3.20738
2.86935
2.54109
2.22157
1.90976
1.60464
1.30517
1.01034
0.719098
0.43043
0.143305
-130.8
-117.508
-104.784
-92.6405
-81.0838
-70.117
-59.7399
-49.9492
-40.7387
-32.1
-24.0225
-16.4937
-9.4996
-3.02481
2.9472
8.4339
13.4535
18.0249
22.1672
25.8999
29.2427
32.2153
34.8372
37.128
39.1068
40.7924
42.2034
43.3578
44.2732
44.9665
45.4543
45.7524
45.876
45.8398
45.6578
45.3434
44.9091
44.3672
43.7289
43.0051
42.2059
41.3409
40.419
39.4486
38.4374
37.3927
36.3213
35.2292
34.1223
33.0057
31.8843
30.7624
29.6439
28.5326
27.4315
26.3435
25.2712
24.2167
23.1821
22.1691
21.1789
20.2129
19.272
18.357
17.4685
16.6068
15.7724
14.9652
14.1852
13.4324
12.7065
12.0071
11.3339
10.6862
10.0636
9.46536
8.89078
8.33913
7.80959
7.30135
6.81352
6.34522
5.89552
5.46348
5.04814
4.64853
4.26365
3.89253
3.53414
3.18749
2.85156
2.52534
2.2078
1.89792
1.59469
1.29708
1.00407
0.714639
0.427762
0.142417
-129.952
-116.746
-104.105
-92.0397
-80.5579
-69.6623
-59.3525
-49.6253
-40.4745
-31.8919
-23.8667
-16.3867
-9.43799
-3.0052
2.92808
8.3792
13.3663
17.908
22.0234
25.7319
29.053
32.0063
34.6113
36.8872
38.8531
40.5278
41.9297
43.0766
43.9861
44.6749
45.1595
45.4556
45.5785
45.5425
45.3617
45.0493
44.6179
44.0794
43.4453
42.7262
41.9322
41.0728
40.1569
39.1927
38.1881
37.1502
36.0857
35.0007
33.9009
32.7916
31.6775
30.5628
29.4517
28.3475
27.2536
26.1726
25.1073
24.0597
23.0318
22.0253
21.0416
20.0818
19.147
18.2379
17.3552
16.4991
15.6701
14.8681
14.0932
13.3453
12.6241
11.9293
11.2604
10.6169
9.99834
9.40397
8.83312
8.28504
7.75894
7.25399
6.76933
6.30407
5.85728
5.42805
5.0154
4.61838
4.236
3.86728
3.51122
3.16682
2.83307
2.50896
2.19348
1.88561
1.58435
1.28867
0.99756
0.710005
0.424988
0.141493
-129.072
-115.955
-103.399
-91.4162
-80.0122
-69.1904
-58.9504
-49.2891
-40.2003
-31.6758
-23.705
-16.2757
-9.37406
-2.98484
2.90824
8.32243
13.2757
17.7866
21.8742
25.5576
28.8562
31.7895
34.3768
36.6373
38.5899
40.2533
41.6456
42.7848
43.6881
44.3722
44.8536
45.1477
45.2697
45.234
45.0544
44.7441
44.3156
43.7808
43.1509
42.4367
41.6481
40.7945
39.8848
38.9272
37.9294
36.8985
35.8412
34.7636
33.6713
32.5695
31.4629
30.3558
29.2522
28.1555
27.0689
25.9953
24.9372
23.8967
22.8758
21.8761
20.899
19.9458
19.0173
18.1144
17.2376
16.3874
15.5639
14.7674
13.9978
13.2549
12.5386
11.8485
11.1841
10.545
9.93061
9.34027
8.77328
8.22892
7.70638
7.20485
6.72347
6.26136
5.8176
5.39127
4.98142
4.58709
4.20731
3.84108
3.48744
3.14537
2.81388
2.49196
2.17862
1.87284
1.57362
1.27994
0.990802
0.705195
0.422109
0.140535
-128.159
-115.135
-102.669
-90.7701
-79.4467
-68.7014
-58.5338
-48.9407
-39.9162
-31.4519
-23.5375
-16.1607
-9.30781
-2.96375
2.88768
8.26361
13.1819
17.6609
21.7196
25.3769
28.6523
31.5648
34.1338
36.3784
38.3172
39.9688
41.3513
42.4824
43.3793
44.0586
44.5366
44.8286
44.9497
44.9143
44.736
44.4279
44.0024
43.4714
42.846
42.1368
41.3538
40.5062
39.6029
38.6521
37.6613
36.6377
35.5879
34.5179
33.4333
32.3393
31.2405
30.1413
29.0454
27.9565
26.8776
25.8116
24.7609
23.7278
22.7141
21.7215
20.7513
19.8048
18.8829
17.9864
17.1158
16.2715
15.4539
14.663
13.8988
13.1612
12.45
11.7647
11.1051
10.4705
9.86043
9.27425
8.71128
8.17076
7.65192
7.15393
6.67596
6.21711
5.77649
5.35317
4.94622
4.55467
4.17757
3.81394
3.46279
3.12314
2.79399
2.47435
2.16322
1.8596
1.56249
1.27089
0.9838
0.700211
0.419125
0.139542
-127.216
-114.287
-101.912
-90.1016
-78.8616
-68.1954
-58.1027
-48.5803
-39.6223
-31.2203
-23.3642
-16.0417
-9.23926
-2.94192
2.86641
8.20275
13.0848
17.5309
21.5596
25.1901
28.4413
31.3324
33.8825
36.1104
38.035
39.6744
41.0468
42.1695
43.0598
43.7342
44.2086
44.4985
44.6187
44.5835
44.4065
44.1007
43.6783
43.1512
42.5304
41.8265
41.0492
40.2079
39.3113
38.3674
37.384
36.3679
35.3258
34.2637
33.1871
32.1011
31.0104
29.9193
28.8315
27.7506
26.6797
25.6215
24.5786
23.553
22.5468
21.5615
20.5985
19.659
18.7438
17.8539
16.9897
16.1517
15.3401
14.555
13.7965
13.0643
12.3583
11.6781
11.0233
10.3934
9.78781
9.20595
8.64712
8.11059
7.59556
7.10125
6.62679
6.17132
5.73395
5.31375
4.90979
4.52113
4.14681
3.78585
3.43729
3.10014
2.77341
2.45613
2.14729
1.84591
1.55099
1.26153
0.976555
0.695055
0.416039
0.138514
-126.24
-113.411
-101.131
-89.4109
-78.257
-67.6726
-57.6573
-48.2079
-39.3185
-30.981
-23.185
-15.9187
-9.16844
-2.91937
2.84444
8.13986
12.9845
17.3965
21.3944
24.9969
28.2232
31.0922
33.6227
35.8336
37.7434
39.3703
40.7321
41.8463
42.7297
43.3989
43.8697
44.1573
44.2767
44.2417
44.0661
43.7626
43.3435
42.8204
42.2044
41.5058
40.7345
39.8997
39.0099
38.0733
37.0974
36.0891
35.055
34.001
32.9327
31.855
30.7727
29.6899
28.6105
27.5379
26.4751
25.4251
24.3902
23.3725
22.374
21.3962
20.4406
19.5082
18.6002
17.717
16.8595
16.0279
15.2225
14.4435
13.6907
12.9641
12.2635
11.5886
10.9388
10.3137
9.71278
9.13538
8.58084
8.04841
7.53734
7.04681
6.57599
6.12402
5.68999
5.27302
4.87216
4.48647
4.11502
3.75683
3.41094
3.07637
2.75215
2.4373
2.13083
1.83176
1.5391
1.25186
0.969069
0.689726
0.41285
0.137452
-125.234
-112.507
-100.325
-88.6981
-77.6332
-67.1332
-57.1977
-47.8236
-39.0051
-30.734
-23.0002
-15.7918
-9.09535
-2.8961
2.82176
8.07497
12.881
17.2578
21.2238
24.7977
27.9982
30.8443
33.3547
35.548
37.4425
39.0564
40.4074
41.5127
42.3891
43.0529
43.5199
43.8053
43.9237
43.889
43.7148
43.4137
42.9979
42.479
41.8679
41.1749
40.4098
39.5816
38.6989
37.7698
36.8016
35.8014
34.7756
33.73
32.6701
31.6011
30.5274
29.4532
28.3824
27.3183
26.2641
25.2224
24.1957
23.1862
22.1956
21.2256
20.2776
19.3527
18.4519
17.5758
16.7251
15.9001
15.1012
14.3283
13.5816
12.8608
12.1658
11.4962
10.8516
10.2315
9.63535
9.06256
8.51243
7.98425
7.47725
6.99064
6.52357
6.0752
5.64463
5.23098
4.83332
4.45071
4.08221
3.72688
3.38375
3.05185
2.73022
2.41787
2.11385
1.81716
1.52683
1.24188
0.961344
0.684228
0.409558
0.136356
-124.197
-111.575
-99.494
-87.9635
-76.9902
-66.5771
-56.7239
-47.4275
-38.682
-30.4795
-22.8097
-15.661
-9.02002
-2.87212
2.79839
8.00809
12.7743
17.1148
21.048
24.5923
27.7663
30.5888
33.0784
35.2535
37.1324
38.7329
40.0727
41.1688
42.038
42.6963
43.1595
43.4425
43.5599
43.5255
43.3527
43.0541
42.6418
42.1272
41.5212
40.8339
40.0751
39.2537
38.3784
37.457
36.4968
35.5049
34.4875
33.4506
32.3995
31.3393
30.2745
29.2093
28.1473
27.0921
26.0466
25.0135
23.9953
22.9941
22.0118
21.0498
20.1097
19.1924
18.299
17.4302
16.5866
15.7684
14.9761
14.2096
13.4691
12.7543
12.065
11.401
10.7617
10.1467
9.55554
8.9875
8.44193
7.91812
7.41532
6.93274
6.46954
6.02488
5.59788
5.18765
4.79328
4.41385
4.0484
3.69601
3.35572
3.02657
2.7076
2.39785
2.09634
1.80211
1.51418
1.2316
0.953382
0.678561
0.406166
0.135227
-123.129
-110.616
-98.6385
-87.2071
-76.3282
-66.0047
-56.2362
-47.0197
-38.3494
-30.2174
-22.6136
-15.5264
-8.94246
-2.84743
2.77432
7.93923
12.6644
16.9677
20.867
24.3808
27.5276
30.3258
32.794
34.9504
36.8131
38.3999
39.7281
40.8148
41.6765
42.3292
42.7883
43.0689
43.1853
43.1513
42.9799
42.6839
42.2751
41.765
41.1641
40.4828
39.7305
38.9162
38.0484
37.1349
36.183
35.1996
34.191
33.163
32.1209
31.0699
30.0142
28.9581
27.9053
26.8591
25.8226
24.7984
23.789
22.7964
21.8225
20.8688
19.9368
19.0274
18.1417
17.2804
16.4439
15.6328
14.8473
14.0875
13.3533
12.6446
11.9613
11.3029
10.6692
10.0595
9.47338
8.91022
8.36934
7.85004
7.35156
6.87312
6.41391
5.97307
5.54975
5.14305
4.75207
4.37589
4.01359
3.66423
3.32687
3.00055
2.68432
2.37723
2.07831
1.78661
1.50116
1.22101
0.945184
0.672727
0.402674
0.134064
-122.03
-109.629
-97.7586
-86.4292
-75.6473
-65.4159
-55.7346
-46.6003
-38.0073
-29.9478
-22.4119
-15.3879
-8.8627
-2.82203
2.74957
7.86841
12.5515
16.8163
20.6809
24.1633
27.282
30.0553
32.5015
34.6386
36.4847
38.0574
39.3738
40.4508
41.3048
41.9516
42.4067
42.6848
42.8001
42.7664
42.5966
42.3032
41.898
41.3924
40.7969
40.1217
39.3761
38.5691
37.709
36.8036
35.8603
34.8856
33.886
32.8671
31.8344
30.7927
29.7465
28.6998
27.6564
26.6195
25.5923
24.5772
23.5768
22.5931
21.6278
20.6827
19.7589
18.8577
17.9799
17.1262
16.2973
15.4934
14.7149
13.9618
13.2342
12.5318
11.8546
11.2021
10.574
9.96976
9.38888
8.83074
8.29469
7.78002
7.28599
6.81182
6.3567
5.9198
5.50025
5.09717
4.70968
4.33686
3.97779
3.63155
3.29719
2.97378
2.66038
2.35602
2.05977
1.77068
1.48777
1.21012
0.936754
0.666726
0.399082
0.132869
-120.902
-108.615
-96.8547
-85.63
-74.9478
-64.811
-55.2192
-46.1694
-37.6559
-29.6709
-22.2046
-15.2456
-8.78075
-2.79594
2.72414
7.79565
12.4354
16.6608
20.4896
23.9399
27.0297
29.7774
32.2009
34.3183
36.1473
37.7054
39.0097
40.0767
40.9228
41.5637
42.0145
42.2901
42.4043
42.3709
42.2027
41.912
41.5106
41.0097
40.4197
39.7507
39.012
38.2124
37.3603
36.4633
35.5287
34.563
33.5726
32.5632
31.5401
30.508
29.4714
28.4344
27.4006
26.3734
25.3556
24.35
23.3588
22.3841
21.4278
20.4914
19.5762
18.6833
17.8136
16.9679
16.1466
15.3501
14.5788
13.8327
13.1118
12.4159
11.745
11.0985
10.4762
9.87757
9.30206
8.74908
8.21799
7.70808
7.21861
6.74883
6.29792
5.86506
5.44939
5.05004
4.66613
4.29676
3.94101
3.59797
3.2667
2.94629
2.63578
2.33424
2.04073
1.7543
1.47402
1.19893
0.928092
0.660561
0.395392
0.13164
-119.744
-107.575
-95.9268
-84.8097
-74.2299
-64.1901
-54.6902
-45.7271
-37.2952
-29.3867
-21.9919
-15.0995
-8.69663
-2.76915
2.69804
7.72096
12.3163
16.5012
20.2934
23.7106
26.7708
29.4921
31.8924
33.9896
35.8011
37.3442
38.636
39.6928
40.5308
41.1655
41.612
41.8849
41.9981
41.965
41.7984
41.5105
41.1129
40.6168
40.0325
39.3699
38.6382
37.8464
37.0024
36.114
35.1883
34.2319
33.251
32.2513
31.2379
30.2157
29.1891
28.162
27.1381
26.1207
25.1127
24.1167
23.135
22.1697
21.2226
20.2951
19.3887
18.5043
17.643
16.8053
15.9919
15.2031
14.4391
13.7002
12.9862
12.297
11.6324
10.9922
10.3759
9.78295
9.21295
8.66527
8.13926
7.63423
7.14946
6.68418
6.23759
5.80887
5.39718
5.00166
4.62143
4.2556
3.90326
3.5635
3.23541
2.91806
2.61053
2.31188
2.02118
1.7375
1.4599
1.18744
0.919201
0.654233
0.391604
0.130379
-118.556
-106.508
-94.9753
-83.9685
-73.4935
-63.5534