/*--------------------------------*- C++ -*----------------------------------*\
| =========                 |                                                 |
| \\      /  F ield         | OpenFOAM: The Open Source CFD Toolbox           |
|  \\    /   O peration     | Version:  2406                                  |
|   \\  /    A nd           | Website:  www.openfoam.com                      |
|    \\/     M anipulation  |                                                 |
\*---------------------------------------------------------------------------*/
FoamFile
{
    version     2.0;
    format      ascii;
    arch        "LSB;label=32;scalar=64";
    class       volScalarField;
    location    "0/neutroRegion";
    object      flux5;
}
// * * * * * * * * * * * * * * * * * * * * * * * * * * * * * * * * * * * * * //

dimensions      [0 -2 -1 0 0 0 0];

internalField   nonuniform List<scalar> 
8595
(
6.20109e+12
1.31881e+13
1.87621e+13
2.30857e+13
2.642e+13
2.89905e+13
3.096e+13
3.24416e+13
3.35139e+13
3.42329e+13
3.46386e+13
3.47606e+13
3.46213e+13
3.42406e+13
3.36343e+13
3.2828e+13
3.18436e+13
3.07258e+13
2.9501e+13
2.82686e+13
2.70736e+13
2.59479e+13
2.49124e+13
2.39782e+13
2.31482e+13
2.24194e+13
2.17854e+13
2.12374e+13
2.07659e+13
2.03611e+13
2.00138e+13
1.97155e+13
1.94585e+13
1.92358e+13
1.90414e+13
1.88701e+13
1.87172e+13
1.85785e+13
1.84502e+13
1.83289e+13
1.82108e+13
1.80925e+13
1.79698e+13
1.78379e+13
1.76907e+13
1.75202e+13
1.73155e+13
1.70616e+13
1.67372e+13
1.63116e+13
1.57409e+13
1.49618e+13
1.38827e+13
1.23747e+13
1.02641e+13
7.35737e+12
3.49025e+12
8.95743e+12
1.89841e+13
2.6939e+13
3.30953e+13
3.78428e+13
4.15057e+13
4.43148e+13
4.643e+13
4.79623e+13
4.89905e+13
4.95715e+13
4.97472e+13
4.95491e+13
4.90053e+13
4.81398e+13
4.69872e+13
4.55817e+13
4.39844e+13
4.22401e+13
4.0482e+13
3.87759e+13
3.7168e+13
3.56886e+13
3.43535e+13
3.31673e+13
3.21258e+13
3.12198e+13
3.04368e+13
2.97633e+13
2.91853e+13
2.86897e+13
2.82641e+13
2.78976e+13
2.75804e+13
2.73037e+13
2.706e+13
2.68427e+13
2.66457e+13
2.64637e+13
2.62914e+13
2.6124e+13
2.59561e+13
2.57819e+13
2.55945e+13
2.53851e+13
2.51423e+13
2.48506e+13
2.44885e+13
2.40256e+13
2.34184e+13
2.26044e+13
2.14936e+13
1.9956e+13
1.78077e+13
1.47972e+13
1.06334e+13
5.06275e+12
1.18075e+13
2.48572e+13
3.51139e+13
4.30238e+13
4.9124e+13
5.38371e+13
5.74578e+13
6.01879e+13
6.21682e+13
6.34984e+13
6.42511e+13
6.44795e+13
6.42244e+13
6.35212e+13
6.24023e+13
6.09107e+13
5.90936e+13
5.70268e+13
5.47768e+13
5.25049e+13
5.0298e+13
4.82168e+13
4.63011e+13
4.4572e+13
4.30352e+13
4.16858e+13
4.05118e+13
3.94972e+13
3.86245e+13
3.78757e+13
3.72336e+13
3.66825e+13
3.6208e+13
3.57974e+13
3.54395e+13
3.51244e+13
3.48434e+13
3.45889e+13
3.43537e+13
3.41313e+13
3.3915e+13
3.36982e+13
3.34732e+13
3.3231e+13
3.29604e+13
3.26466e+13
3.22696e+13
3.18018e+13
3.12041e+13
3.04209e+13
2.93725e+13
2.79441e+13
2.597e+13
2.32141e+13
1.93477e+13
1.39694e+13
6.69913e+12
1.48044e+13
3.08442e+13
4.32893e+13
5.28475e+13
6.02228e+13
6.5933e+13
7.03292e+13
7.36504e+13
7.60631e+13
7.7686e+13
7.86054e+13
7.88855e+13
7.85754e+13
7.77176e+13
7.63526e+13
7.45317e+13
7.23147e+13
6.97919e+13
6.70518e+13
6.42808e+13
6.15861e+13
5.90432e+13
5.67015e+13
5.4587e+13
5.27071e+13
5.1056e+13
4.96193e+13
4.83775e+13
4.73093e+13
4.63928e+13
4.5607e+13
4.49326e+13
4.4352e+13
4.38496e+13
4.34118e+13
4.30264e+13
4.2683e+13
4.23718e+13
4.20844e+13
4.18127e+13
4.15485e+13
4.12836e+13
4.10087e+13
4.07128e+13
4.03822e+13
3.9999e+13
3.95389e+13
3.89685e+13
3.82407e+13
3.72888e+13
3.60174e+13
3.42893e+13
3.19068e+13
2.8586e+13
2.39231e+13
1.73934e+13
8.4357e+12
1.80264e+13
3.69914e+13
5.14688e+13
6.2542e+13
7.10978e+13
7.7741e+13
8.28699e+13
8.67534e+13
8.95798e+13
9.14839e+13
9.25644e+13
9.28947e+13
9.2532e+13
9.15253e+13
8.9923e+13
8.77843e+13
8.51816e+13
8.22193e+13
7.90072e+13
7.57542e+13
7.25875e+13
6.95972e+13
6.68417e+13
6.43524e+13
6.21385e+13
6.01935e+13
5.85006e+13
5.70372e+13
5.57781e+13
5.46978e+13
5.37715e+13
5.29765e+13
5.22921e+13
5.17001e+13
5.11841e+13
5.07301e+13
5.03254e+13
4.99589e+13
4.96204e+13
4.93004e+13
4.89893e+13
4.86774e+13
4.83537e+13
4.80054e+13
4.76164e+13
4.71658e+13
4.66253e+13
4.59562e+13
4.5104e+13
4.39921e+13
4.25111e+13
4.05047e+13
3.77476e+13
3.39143e+13
2.85311e+13
2.09397e+13
1.03246e+13
2.15904e+13
4.33554e+13
5.96543e+13
7.20805e+13
8.17072e+13
8.92102e+13
9.50227e+13
9.94359e+13
1.02655e+14
1.04827e+14
1.06062e+14
1.06441e+14
1.06028e+14
1.04879e+14
1.0305e+14
1.00607e+14
9.76344e+13
9.42514e+13
9.05875e+13
8.68723e+13
8.32519e+13
7.98304e+13
7.66756e+13
7.38241e+13
7.12869e+13
6.90571e+13
6.71158e+13
6.54372e+13
6.39928e+13
6.27533e+13
6.16904e+13
6.07781e+13
5.99928e+13
5.93134e+13
5.87214e+13
5.82005e+13
5.77362e+13
5.73158e+13
5.69276e+13
5.65605e+13
5.62038e+13
5.58461e+13
5.5475e+13
5.50759e+13
5.46303e+13
5.41146e+13
5.34969e+13
5.27334e+13
5.17634e+13
5.05012e+13
4.8826e+13
4.65655e+13
4.34723e+13
3.91877e+13
3.31779e+13
2.46486e+13
1.2443e+13
2.56763e+13
5.00019e+13
6.78435e+13
8.14326e+13
9.20077e+13
1.0029e+14
1.06732e+14
1.11639e+14
1.15227e+14
1.17653e+14
1.19035e+14
1.19461e+14
1.19001e+14
1.17718e+14
1.15672e+14
1.1294e+14
1.09616e+14
1.05834e+14
1.0174e+14
9.75848e+13
9.35311e+13
8.96969e+13
8.61592e+13
8.29598e+13
8.01116e+13
7.76075e+13
7.54265e+13
7.35404e+13
7.19169e+13
7.05234e+13
6.93285e+13
6.83027e+13
6.74197e+13
6.66558e+13
6.59901e+13
6.54044e+13
6.48824e+13
6.44098e+13
6.39734e+13
6.35607e+13
6.31598e+13
6.27578e+13
6.23409e+13
6.18927e+13
6.13926e+13
6.08145e+13
6.0123e+13
5.92701e+13
5.81893e+13
5.67878e+13
5.4935e+13
5.24467e+13
4.90596e+13
4.43921e+13
3.78668e+13
2.85664e+13
1.4908e+13
3.05642e+13
5.70002e+13
7.60253e+13
9.05628e+13
1.01954e+14
1.10931e+14
1.17946e+14
1.23309e+14
1.27241e+14
1.29905e+14
1.31425e+14
1.31896e+14
1.31394e+14
1.29984e+14
1.27735e+14
1.2473e+14
1.21075e+14
1.16914e+14
1.12416e+14
1.07844e+14
1.03379e+14
9.91531e+13
9.52507e+13
9.17192e+13
8.85738e+13
8.5807e+13
8.33965e+13
8.13111e+13
7.95157e+13
7.79744e+13
7.66524e+13
7.55175e+13
7.45404e+13
7.36951e+13
7.29585e+13
7.23104e+13
7.17328e+13
7.12098e+13
7.07269e+13
7.02704e+13
6.98269e+13
6.93823e+13
6.89213e+13
6.84258e+13
6.78736e+13
6.72359e+13
6.64745e+13
6.55375e+13
6.43536e+13
6.28242e+13
6.08116e+13
5.81231e+13
5.44866e+13
4.95098e+13
4.2595e+13
3.27416e+13
1.79016e+13
3.66988e+13
6.44082e+13
8.4173e+13
9.94288e+13
1.115e+14
1.21084e+14
1.28614e+14
1.34393e+14
1.38643e+14
1.41529e+14
1.4318e+14
1.43694e+14
1.43152e+14
1.41624e+14
1.39185e+14
1.35925e+14
1.31959e+14
1.27446e+14
1.22568e+14
1.17605e+14
1.12754e+14
1.08158e+14
1.0391e+14
1.00064e+14
9.66368e+13
9.36204e+13
9.09913e+13
8.8716e+13
8.67565e+13
8.5074e+13
8.36306e+13
8.23914e+13
8.13243e+13
8.04011e+13
7.95966e+13
7.88887e+13
7.82578e+13
7.76867e+13
7.71593e+13
7.66607e+13
7.61764e+13
7.5691e+13
7.51878e+13
7.46474e+13
7.40455e+13
7.33513e+13
7.2524e+13
7.15085e+13
7.02296e+13
6.85841e+13
6.64297e+13
6.35694e+13
5.97287e+13
5.4518e+13
4.73494e+13
3.72152e+13
2.17111e+13
4.47899e+13
7.22357e+13
9.22358e+13
1.0798e+14
1.20599e+14
1.30703e+14
1.3869e+14
1.44846e+14
1.49386e+14
1.52478e+14
1.5425e+14
1.54805e+14
1.54227e+14
1.52591e+14
1.49976e+14
1.46479e+14
1.42225e+14
1.37384e+14
1.32153e+14
1.26826e+14
1.21615e+14
1.16672e+14
1.12102e+14
1.0796e+14
1.04266e+14
1.01014e+14
9.81785e+13
9.57235e+13
9.36087e+13
9.17922e+13
9.02336e+13
8.88952e+13
8.77427e+13
8.67454e+13
8.58763e+13
8.51116e+13
8.443e+13
8.3813e+13
8.32432e+13
8.27046e+13
8.21814e+13
8.16572e+13
8.1114e+13
8.05309e+13
7.9882e+13
7.91348e+13
7.82459e+13
7.71577e+13
7.5792e+13
7.40425e+13
7.17642e+13
6.87598e+13
6.47591e+13
5.93883e+13
5.21017e+13
4.19992e+13
2.67978e+13
2.70037e+13
2.1131e+13
1.70585e+13
1.40216e+13
1.16116e+13
9.60036e+12
7.85511e+12
6.29528e+12
4.87001e+12
3.54596e+12
4.25919e+13
3.68833e+13
3.18431e+13
2.73729e+13
2.33612e+13
1.97132e+13
1.63544e+13
1.32287e+13
1.02935e+13
7.51717e+12
5.28212e+13
4.7146e+13
4.17202e+13
3.65645e+13
3.16731e+13
2.70285e+13
2.26099e+13
1.83969e+13
1.43711e+13
1.05164e+13
6.01753e+13
5.43734e+13
4.86394e+13
4.30214e+13
3.75485e+13
3.22367e+13
2.70941e+13
2.21235e+13
1.73246e+13
1.26953e+13
6.56123e+13
5.96304e+13
5.36226e+13
4.76475e+13
4.17488e+13
3.59587e+13
3.03005e+13
2.47907e+13
1.94406e+13
1.42576e+13
6.96882e+13
6.35226e+13
5.72775e+13
5.10176e+13
4.47946e+13
3.86493e+13
3.26138e+13
2.67127e+13
2.09644e+13
1.53824e+13
7.27748e+13
6.64414e+13
5.99966e+13
5.35089e+13
4.70351e+13
4.06212e+13
3.43045e+13
2.81146e+13
2.20745e+13
1.62016e+13
7.51369e+13
6.8658e+13
6.2048e+13
5.53783e+13
4.87088e+13
4.20891e+13
3.55597e+13
2.91535e+13
2.28961e+13
1.68076e+13
7.69674e+13
7.03655e+13
6.36199e+13
5.68043e+13
4.99807e+13
4.32012e+13
3.65084e+13
2.99373e+13
2.35154e+13
1.72642e+13
7.84082e+13
7.17032e+13
6.48462e+13
5.79127e+13
5.09664e+13
4.40609e+13
3.72404e+13
3.05412e+13
2.39922e+13
1.76157e+13
7.95644e+13
7.27726e+13
6.58234e+13
5.87935e+13
5.17478e+13
4.47411e+13
3.78187e+13
3.10178e+13
2.43683e+13
1.78931e+13
8.05139e+13
7.36484e+13
6.66217e+13
5.95114e+13
5.23835e+13
4.52936e+13
3.82879e+13
3.14043e+13
2.46731e+13
1.81179e+13
8.13149e+13
7.43857e+13
6.72925e+13
6.01137e+13
5.29161e+13
4.5756e+13
3.86803e+13
3.17273e+13
2.49279e+13
1.8306e+13
8.20115e+13
7.50259e+13
6.78742e+13
6.06354e+13
5.33769e+13
4.61558e+13
3.90194e+13
3.20064e+13
2.5148e+13
1.84685e+13
8.26378e+13
7.56009e+13
6.8396e+13
6.1103e+13
5.37898e+13
4.65138e+13
3.93229e+13
3.22561e+13
2.5345e+13
1.86141e+13
8.32205e+13
7.61355e+13
6.88809e+13
6.15372e+13
5.4173e+13
4.6846e+13
3.96044e+13
3.24878e+13
2.55278e+13
1.87492e+13
8.37819e+13
7.66502e+13
6.93476e+13
6.1955e+13
5.45415e+13
4.71653e+13
3.9875e+13
3.27104e+13
2.57035e+13
1.88792e+13
8.43409e+13
7.71626e+13
6.98119e+13
6.23706e+13
5.4908e+13
4.74829e+13
4.01441e+13
3.29318e+13
2.58782e+13
1.90084e+13
8.49149e+13
7.76886e+13
7.02886e+13
6.2797e+13
5.5284e+13
4.78086e+13
4.04201e+13
3.31589e+13
2.60573e+13
1.91409e+13
8.55207e+13
7.82435e+13
7.07913e+13
6.32467e+13
5.56805e+13
4.8152e+13
4.0711e+13
3.33982e+13
2.62461e+13
1.92804e+13
8.6175e+13
7.88428e+13
7.13341e+13
6.37323e+13
5.61084e+13
4.85227e+13
4.1025e+13
3.36563e+13
2.64497e+13
1.94309e+13
8.68956e+13
7.95028e+13
7.19317e+13
6.42667e+13
5.65794e+13
4.89305e+13
4.13703e+13
3.39403e+13
2.66736e+13
1.95963e+13
8.77018e+13
8.02409e+13
7.26e+13
6.48643e+13
5.7106e+13
4.93864e+13
4.17563e+13
3.42575e+13
2.69237e+13
1.9781e+13
8.86148e+13
8.10767e+13
7.33567e+13
6.55407e+13
5.77019e+13
4.99022e+13
4.2193e+13
3.46164e+13
2.72065e+13
1.99897e+13
8.96584e+13
8.20318e+13
7.42211e+13
6.63134e+13
5.83826e+13
5.04913e+13
4.26915e+13
3.5026e+13
2.75291e+13
2.02277e+13
9.08589e+13
8.31304e+13
7.52153e+13
6.72019e+13
5.91651e+13
5.11683e+13
4.32644e+13
3.54966e+13
2.78998e+13
2.0501e+13
9.22459e+13
8.43992e+13
7.63633e+13
6.82276e+13
6.00684e+13
5.19498e+13
4.39256e+13
3.60396e+13
2.83273e+13
2.08161e+13
9.38513e+13
8.58677e+13
7.76917e+13
6.94143e+13
6.11131e+13
5.28535e+13
4.46901e+13
3.66674e+13
2.88214e+13
2.11802e+13
9.57096e+13
8.7567e+13
7.92285e+13
7.0787e+13
6.23215e+13
5.38986e+13
4.5574e+13
3.73931e+13
2.93925e+13
2.16009e+13
9.78563e+13
8.95295e+13
8.1003e+13
7.23716e+13
6.37161e+13
5.51046e+13
4.65938e+13
3.82302e+13
3.00513e+13
2.2086e+13
1.00326e+14
9.1787e+13
8.30437e+13
7.41936e+13
6.53194e+13
5.64908e+13
4.77659e+13
3.91922e+13
3.08081e+13
2.26433e+13
1.03151e+14
9.43677e+13
8.53761e+13
7.62756e+13
6.71511e+13
5.80742e+13
4.91046e+13
4.02908e+13
3.16723e+13
2.32795e+13
1.06353e+14
9.72933e+13
8.80194e+13
7.86346e+13
6.92262e+13
5.98678e+13
5.06207e+13
4.15349e+13
3.26508e+13
2.39998e+13
1.09945e+14
1.00573e+14
9.09823e+13
8.12782e+13
7.15512e+13
6.18771e+13
5.2319e+13
4.29283e+13
3.37467e+13
2.48064e+13
1.13918e+14
1.042e+14
9.4257e+13
8.41994e+13
7.41199e+13
6.40966e+13
5.41947e+13
4.44672e+13
3.49569e+13
2.56972e+13
1.18235e+14
1.08139e+14
9.78134e+13
8.7371e+13
7.69082e+13
6.65056e+13
5.62303e+13
4.61372e+13
3.62702e+13
2.66638e+13
1.22826e+14
1.12327e+14
1.01592e+14
9.07404e+13
7.98697e+13
6.90638e+13
5.83918e+13
4.79103e+13
3.76647e+13
2.76902e+13
1.2758e+14
1.16661e+14
1.05502e+14
9.4225e+13
8.29318e+13
7.17085e+13
6.06262e+13
4.97433e+13
3.91062e+13
2.87515e+13
1.32345e+14
1.21002e+14
1.09416e+14
9.77122e+13
8.59954e+13
7.4354e+13
6.28614e+13
5.15771e+13
4.0549e+13
2.98142e+13
1.36932e+14
1.25177e+14
1.13177e+14
1.0106e+14
8.89356e+13
7.68926e+13
6.50064e+13
5.33377e+13
4.19353e+13
3.08366e+13
1.41098e+14
1.28959e+14
1.16576e+14
1.04079e+14
9.15797e+13
7.91693e+13
6.69241e+13
5.4906e+13
4.31645e+13
3.1738e+13
1.44667e+14
1.32193e+14
1.19477e+14
1.06652e+14
9.38297e+13
8.11047e+13
6.85534e+13
5.62381e+13
4.42088e+13
3.25043e+13
1.47499e+14
1.34751e+14
1.21765e+14
1.08676e+14
9.55974e+13
8.26228e+13
6.98297e+13
5.72808e+13
4.50259e+13
3.31037e+13
1.49493e+14
1.36545e+14
1.23364e+14
1.10087e+14
9.68257e+13
8.36754e+13
7.07132e+13
5.80015e+13
4.559e+13
3.35172e+13
1.50581e+14
1.37513e+14
1.24218e+14
1.10833e+14
9.74709e+13
8.42249e+13
7.1172e+13
5.83742e+13
4.58809e+13
3.37299e+13
1.50706e+14
1.37603e+14
1.2428e+14
1.10874e+14
9.74963e+13
8.42392e+13
7.11789e+13
5.83765e+13
4.58806e+13
3.37288e+13
1.49808e+14
1.36759e+14
1.235e+14
1.10163e+14
9.68602e+13
8.36817e+13
7.07023e+13
5.79822e+13
4.55686e+13
3.34985e+13
1.47816e+14
1.34913e+14
1.21811e+14
1.0864e+14
9.5508e+13
8.25043e+13
6.97012e+13
5.7157e+13
4.49178e+13
3.30189e+13
1.44632e+14
1.31972e+14
1.19127e+14
1.06223e+14
9.33662e+13
8.06414e+13
6.81187e+13
5.58538e+13
4.38904e+13
3.22624e+13
1.40135e+14
1.27816e+14
1.15331e+14
1.02804e+14
9.0334e+13
7.80031e+13
6.58767e+13
5.40069e+13
4.24343e+13
3.119e+13
1.34164e+14
1.22282e+14
1.10266e+14
9.82319e+13
8.62727e+13
7.44642e+13
6.28659e+13
5.15246e+13
4.0476e+13
2.97473e+13
1.2651e+14
1.15157e+14
1.03718e+14
9.22996e+13
8.09878e+13
6.98481e+13
5.89313e+13
4.82759e+13
3.79107e+13
2.78565e+13
1.16891e+14
1.06138e+14
9.53786e+13
8.47078e+13
7.41969e+13
6.38978e+13
5.38471e+13
4.40707e+13
3.45859e+13
2.54042e+13
1.04905e+14
9.47809e+13
8.47877e+13
7.50033e+13
6.54749e+13
5.62289e+13
4.72785e+13
3.86285e+13
3.02786e+13
2.22254e+13
8.99098e+13
8.0349e+13
7.11872e+13
6.24591e+13
5.41581e+13
4.62594e+13
3.87322e+13
3.15461e+13
2.46731e+13
1.80888e+13
7.06705e+13
6.1419e+13
5.31941e+13
4.58485e+13
3.92152e+13
3.31512e+13
2.75445e+13
2.23102e+13
1.73845e+13
1.27194e+13
4.36674e+13
3.44673e+13
2.80201e+13
2.31582e+13
1.92586e+13
1.59737e+13
1.31018e+13
1.05205e+13
8.15269e+12
5.94778e+12
1.08189e+14
1.29059e+14
1.55856e+14
1.90217e+14
2.34436e+14
2.91897e+14
3.67838e+14
4.70953e+14
6.17263e+14
8.41466e+14
1.24363e+15
1.22958e+14
1.46655e+14
1.77101e+14
2.16133e+14
2.66352e+14
3.31589e+14
4.17758e+14
5.34648e+14
7.00184e+14
9.52593e+14
1.39588e+15
1.40827e+14
1.6793e+14
2.02776e+14
2.47434e+14
3.0486e+14
3.79398e+14
4.77725e+14
6.10806e+14
7.98431e+14
1.08139e+15
1.56e+15
1.6283e+14
1.94126e+14
2.34376e+14
2.85921e+14
3.52135e+14
4.37948e+14
5.50876e+14
7.03082e+14
9.15945e+14
1.2311e+15
1.73764e+15
1.86528e+14
2.2236e+14
2.6841e+14
3.27317e+14
4.02867e+14
5.00558e+14
6.28656e+14
8.00266e+14
1.03758e+15
1.38085e+15
1.90428e+15
2.09366e+14
2.49591e+14
3.01213e+14
3.6715e+14
4.51558e+14
5.60406e+14
7.02534e+14
8.91621e+14
1.1499e+15
1.51483e+15
2.04666e+15
2.31214e+14
2.75662e+14
3.32595e+14
4.05189e+14
4.97921e+14
6.17138e+14
7.72084e+14
9.76687e+14
1.25264e+15
1.63398e+15
2.16905e+15
2.51982e+14
3.00458e+14
3.62415e+14
4.41264e+14
5.41749e+14
6.70509e+14
8.37033e+14
1.05523e+15
1.34587e+15
1.73938e+15
2.27448e+15
2.71585e+14
3.23875e+14
3.90547e+14
4.75222e+14
5.82862e+14
7.20313e+14
8.97176e+14
1.12713e+15
1.42977e+15
1.83203e+15
2.3651e+15
2.9013e+14
3.46029e+14
4.17131e+14
5.07236e+14
6.21477e+14
7.66835e+14
9.52901e+14
1.19297e+15
1.50531e+15
1.91365e+15
2.44324e+15
3.08413e+14
3.6787e+14
4.43303e+14
5.3867e+14
6.59238e+14
8.12055e+14
1.0066e+15
1.25564e+15
1.57601e+15
1.98834e+15
2.51311e+15
3.27202e+14
3.90308e+14
4.70145e+14
5.70804e+14
6.97652e+14
8.57733e+14
1.06031e+15
1.31743e+15
1.64435e+15
2.05874e+15
2.57699e+15
3.4676e+14
4.13652e+14
4.98005e+14
6.04019e+14
7.37108e+14
9.04231e+14
1.11428e+15
1.37845e+15
1.71022e+15
2.12433e+15
2.6337e+15
3.6522e+14
4.35665e+14
5.24185e+14
6.35046e+14
7.73639e+14
9.46739e+14
1.16276e+15
1.43188e+15
1.76582e+15
2.17671e+15
2.67467e+15
3.80098e+14
4.5338e+14
5.45152e+14
6.59687e+14
8.02289e+14
9.7948e+14
1.19914e+15
1.47048e+15
1.80364e+15
2.20864e+15
2.6935e+15
3.90648e+14
4.65914e+14
5.59875e+14
6.76762e+14
8.21746e+14
1.00107e+15
1.22207e+15
1.49309e+15
1.82295e+15
2.22001e+15
2.69069e+15
3.96823e+14
4.7322e+14
5.68318e+14
6.86272e+14
8.32087e+14
1.01171e+15
1.23198e+15
1.50047e+15
1.82493e+15
2.2124e+15
2.66802e+15
3.98623e+14
4.75306e+14
5.70513e+14
6.88289e+14
8.3346e+14
1.01167e+15
1.22933e+15
1.49334e+15
1.8106e+15
2.18712e+15
2.62701e+15
3.96076e+14
4.72216e+14
5.66529e+14
6.82931e+14
8.26053e+14
1.00126e+15
1.21457e+15
1.47237e+15
1.78089e+15
2.14538e+15
2.56908e+15
3.89265e+14
4.64056e+14
5.56508e+14
6.70389e+14
8.10132e+14
9.80844e+14
1.18821e+15
1.43823e+15
1.73667e+15
2.08825e+15
2.49553e+15
3.78299e+14
4.50962e+14
5.40623e+14
6.50884e+14
7.8598e+14
9.5078e+14
1.15071e+15
1.39149e+15
1.67863e+15
2.01657e+15
2.40743e+15
3.63328e+14
4.33117e+14
5.19095e+14
6.2469e+14
7.53932e+14
9.11473e+14
1.10253e+15
1.33268e+15
1.60739e+15
1.93109e+15
2.30574e+15
3.4457e+14
4.10781e+14
4.92238e+14
5.92179e+14
7.14428e+14
8.6343e+14
1.04425e+15
1.26242e+15
1.52357e+15
1.8325e+15
2.19141e+15
3.23744e+14
3.85997e+14
4.62497e+14
5.56293e+14
6.71003e+14
8.10883e+14
9.80877e+14
1.18658e+15
1.43397e+15
1.72857e+15
2.07337e+15
3.03577e+14
3.62004e+14
4.33738e+14
5.21651e+14
6.29176e+14
7.60398e+14
9.20162e+14
1.11415e+15
1.34879e+15
1.63056e+15
1.96376e+15
2.84599e+14
3.3943e+14
4.06696e+14
4.8911e+14
5.8993e+14
7.13082e+14
8.63317e+14
1.0464e+15
1.26923e+15
1.53939e+15
1.86293e+15
2.66232e+14
3.17583e+14
3.80534e+14
4.57644e+14
5.52005e+14
6.67378e+14
8.08412e+14
9.8094e+14
1.19232e+15
1.45136e+15
1.76631e+15
2.47541e+14
2.95349e+14
3.53913e+14
4.25638e+14
5.13438e+14
6.20902e+14
7.52551e+14
9.14252e+14
1.11381e+15
1.36141e+15
1.6681e+15
2.27965e+14
2.7206e+14
3.2603e+14
3.92119e+14
4.73051e+14
5.72218e+14
6.93978e+14
8.44182e+14
1.03104e+15
1.26624e+15
1.5645e+15
2.07553e+14
2.47769e+14
2.96947e+14
3.57158e+14
4.30922e+14
5.21408e+14
6.32764e+14
7.70748e+14
9.43886e+14
1.1654e+15
1.4546e+15
1.86362e+14
2.22542e+14
2.66739e+14
3.20843e+14
3.87152e+14
4.6858e+14
5.69016e+14
6.94019e+14
8.52261e+14
1.05839e+15
1.3372e+15
1.645e+14
1.96504e+14
2.35553e+14
2.83346e+14
3.41944e+14
4.13974e+14
5.03001e+14
6.14265e+14
7.56332e+14
9.4491e+14
1.2109e+15
1.42051e+14
1.69749e+14
2.03499e+14
2.44801e+14
2.95456e+14
3.57775e+14
4.34934e+14
5.31711e+14
6.56236e+14
8.24573e+14
1.07351e+15
1.19456e+14
1.42795e+14
1.71198e+14
2.05952e+14
2.48586e+14
3.01068e+14
3.66129e+14
4.47944e+14
5.5382e+14
6.99075e+14
9.24191e+14
1.01114e+14
1.20889e+14
1.4494e+14
1.74368e+14
2.1047e+14
2.54922e+14
3.10053e+14
3.79445e+14
4.69431e+14
5.93596e+14
7.90854e+14
3.15602e+13
3.46335e+13
3.83523e+13
4.19769e+13
4.54412e+13
4.87395e+13
5.18633e+13
5.48121e+13
5.75862e+13
6.02747e+13
6.30141e+13
6.58826e+13
6.87965e+13
7.13734e+13
7.33902e+13
7.48312e+13
7.56872e+13
7.59515e+13
7.5618e+13
7.46849e+13
7.31508e+13
7.10163e+13
6.83783e+13
6.55787e+13
6.28773e+13
6.02331e+13
5.75327e+13
5.46549e+13
5.15771e+13
4.83038e+13
4.484e+13
4.11967e+13
3.77637e+13
3.49406e+13
3.25834e+13
4.53662e+13
4.75942e+13
5.03872e+13
5.31943e+13
5.5947e+13
5.86244e+13
6.12056e+13
6.36782e+13
6.60326e+13
6.83372e+13
7.07057e+13
7.32046e+13
7.5759e+13
7.80273e+13
7.98041e+13
8.10693e+13
8.18112e+13
8.20228e+13
8.16996e+13
8.08429e+13
7.94566e+13
7.75489e+13
7.52162e+13
7.27679e+13
7.04306e+13
6.81678e+13
6.58834e+13
6.34805e+13
6.09499e+13
5.83068e+13
5.55688e+13
5.27607e+13
5.01922e+13
4.81378e+13
4.64641e+13
5.52491e+13
5.7305e+13
5.98446e+13
6.23724e+13
6.48367e+13
6.72256e+13
6.95248e+13
7.17261e+13
7.38225e+13
7.58756e+13
7.79872e+13
8.0217e+13
8.2498e+13
8.45239e+13
8.61094e+13
8.72349e+13
8.78894e+13
8.80662e+13
8.77624e+13
8.69805e+13
8.57262e+13
8.401e+13
8.19215e+13
7.97386e+13
7.76619e+13
7.56568e+13
7.36371e+13
7.15164e+13
6.92854e+13
6.69552e+13
6.4538e+13
6.20495e+13
5.97572e+13
5.79069e+13
5.6384e+13
6.25328e+13
6.45715e+13
6.70624e+13
6.95177e+13
7.18914e+13
7.41762e+13
7.63623e+13
7.84447e+13
8.04197e+13
8.2347e+13
8.43228e+13
8.64029e+13
8.85245e+13
9.04033e+13
9.18696e+13
9.29071e+13
9.35069e+13
9.3664e+13
9.33761e+13
9.26459e+13
9.14787e+13
8.98836e+13
8.79427e+13
8.59123e+13
8.39778e+13
8.21063e+13
8.02165e+13
7.82261e+13
7.61239e+13
7.39175e+13
7.16147e+13
6.92264e+13
6.70069e+13
6.52004e+13
6.37027e+13
6.79653e+13
7.00355e+13
7.25489e+13
7.50111e+13
7.73777e+13
7.96438e+13
8.18014e+13
8.38477e+13
8.57807e+13
8.76602e+13
8.95804e+13
9.15949e+13
9.36424e+13
9.54495e+13
9.68557e+13
9.78482e+13
9.84201e+13
9.85679e+13
9.82897e+13
9.75883e+13
9.64676e+13
9.4935e+13
9.30667e+13
9.11074e+13
8.92354e+13
8.74192e+13
8.55796e+13
8.36353e+13
8.15738e+13
7.94005e+13
7.7121e+13
7.4744e+13
7.25218e+13
7.07039e+13
6.91904e+13
7.20454e+13
7.41619e+13
7.67224e+13
7.92218e+13
8.16159e+13
8.39008e+13
8.60695e+13
8.81203e+13
9.00523e+13
9.1926e+13
9.38356e+13
9.58337e+13
9.78593e+13
9.96424e+13
1.01027e+14
1.02003e+14
1.02565e+14
1.0271e+14
1.02437e+14
1.01749e+14
1.00648e+14
9.91395e+13
9.72973e+13
9.53608e+13
9.35063e+13
9.17027e+13
8.98715e+13
8.79312e+13
8.58682e+13
8.36866e+13
8.13912e+13
7.89894e+13
7.67359e+13
7.48869e+13
7.33438e+13
7.51285e+13
7.7293e+13
7.99064e+13
8.24522e+13
8.4886e+13
8.72043e+13
8.94008e+13
9.14742e+13
9.34242e+13
9.53126e+13
9.7234e+13
9.92415e+13
1.01273e+14
1.03059e+14
1.04444e+14
1.0542e+14
1.05982e+14
1.06129e+14
1.05859e+14
1.05174e+14
1.04077e+14
1.02572e+14
1.00731e+14
9.87921e+13
9.69319e+13
9.512e+13
9.32774e+13
9.13218e+13
8.92387e+13
8.70318e+13
8.47052e+13
8.22657e+13
7.9972e+13
7.80869e+13
7.65114e+13
7.74779e+13
7.96867e+13
8.23506e+13
8.49428e+13
8.74183e+13
8.97738e+13
9.20032e+13
9.41057e+13
9.60812e+13
9.79925e+13
9.99357e+13
1.01964e+14
1.04015e+14
1.05817e+14
1.07214e+14
1.08198e+14
1.08766e+14
1.08916e+14
1.08648e+14
1.07962e+14
1.06861e+14
1.05349e+14
1.03497e+14
1.01544e+14
9.96676e+13
9.78383e+13
9.59761e+13
9.39976e+13
9.18879e+13
8.96503e+13
8.72884e+13
8.4809e+13
8.2475e+13
8.05548e+13
7.89487e+13
7.92892e+13
8.15369e+13
8.42461e+13
8.68807e+13
8.93953e+13
9.17867e+13
9.40488e+13
9.6181e+13
9.81834e+13
1.0012e+14
1.02088e+14
1.04141e+14
1.06217e+14
1.08039e+14
1.09452e+14
1.10449e+14
1.11025e+14
1.1118e+14
1.10912e+14
1.10223e+14
1.09116e+14
1.07592e+14
1.05724e+14
1.03752e+14
1.01856e+14
1.00007e+14
9.81231e+13
9.61202e+13
9.3983e+13
9.17147e+13
8.93188e+13
8.68018e+13
8.44306e+13
8.24787e+13
8.08454e+13
8.07075e+13
8.29885e+13
8.57371e+13
8.84093e+13
9.09589e+13
9.33828e+13
9.56751e+13
9.78352e+13
9.98634e+13
1.01824e+14
1.03817e+14
1.05895e+14
1.07996e+14
1.0984e+14
1.11271e+14
1.1228e+14
1.12866e+14
1.13025e+14
1.12758e+14
1.12065e+14
1.1095e+14
1.09413e+14
1.07528e+14
1.05537e+14
1.03622e+14
1.01752e+14
9.98472e+13
9.7821e+13
9.56579e+13
9.33612e+13
9.09343e+13
8.83836e+13
8.59797e+13
8.40001e+13
8.23432e+13
8.18404e+13
8.41499e+13
8.69324e+13
8.96371e+13
9.22174e+13
9.46702e+13
9.69895e+13
9.91748e+13
1.01226e+14
1.0321e+14
1.05225e+14
1.07327e+14
1.09451e+14
1.11317e+14
1.12765e+14
1.13787e+14
1.14381e+14
1.14545e+14
1.14278e+14
1.13582e+14
1.12458e+14
1.10909e+14
1.09007e+14
1.06998e+14
1.05064e+14
1.03176e+14
1.01252e+14
9.92042e+13
9.70178e+13
9.46958e+13
9.22413e+13
8.96611e+13
8.72287e+13
8.52252e+13
8.3548e+13
8.27674e+13
8.51014e+13
8.79132e+13
9.06462e+13
9.32534e+13
9.57316e+13
9.80747e+13
1.00282e+14
1.02355e+14
1.04359e+14
1.06395e+14
1.08518e+14
1.10665e+14
1.1255e+14
1.14014e+14
1.15048e+14
1.1565e+14
1.15818e+14
1.15551e+14
1.14852e+14
1.1372e+14
1.1216e+14
1.10242e+14
1.08216e+14
1.06265e+14
1.0436e+14
1.02418e+14
1.00352e+14
9.81445e+13
9.58e+13
9.33214e+13
9.07153e+13
8.82581e+13
8.6234e+13
8.45393e+13
8.35479e+13
8.59032e+13
8.87406e+13
9.14985e+13
9.41293e+13
9.663e+13
9.89944e+13
1.01222e+14
1.03314e+14
1.05336e+14
1.0739e+14
1.09533e+14
1.11699e+14
1.13603e+14
1.15081e+14
1.16126e+14
1.16735e+14
1.16907e+14
1.16641e+14
1.15938e+14
1.148e+14
1.13228e+14
1.11297e+14
1.09255e+14
1.07289e+14
1.05369e+14
1.03411e+14
1.01327e+14
9.91013e+13
9.67368e+13
9.42368e+13
9.16079e+13
8.91289e+13
8.70867e+13
8.53768e+13
8.42262e+13
8.66005e+13
8.94608e+13
9.22408e+13
9.48929e+13
9.74138e+13
9.97974e+13
1.02043e+14
1.04152e+14
1.0619e+14
1.08262e+14
1.10423e+14
1.12607e+14
1.14527e+14
1.16018e+14
1.17074e+14
1.1769e+14
1.17865e+14
1.17599e+14
1.16893e+14
1.15748e+14
1.14167e+14
1.12222e+14
1.10166e+14
1.08186e+14
1.06252e+14
1.04279e+14
1.0218e+14
9.99375e+13
9.7555e+13
9.50357e+13
9.23863e+13
8.98878e+13
8.78294e+13
8.61059e+13
8.48363e+13
8.72279e+13
9.0109e+13
9.29095e+13
9.55811e+13
9.81205e+13
1.00522e+14
1.02784e+14
1.04909e+14
1.06962e+14
1.09049e+14
1.11227e+14
1.13429e+14
1.15364e+14
1.16868e+14
1.17932e+14
1.18554e+14
1.18733e+14
1.18467e+14
1.17758e+14
1.16606e+14
1.15016e+14
1.13059e+14
1.10989e+14
1.08997e+14
1.07049e+14
1.05064e+14
1.0295e+14
1.00692e+14
9.82926e+13
9.57555e+13
9.30873e+13
9.0571e+13
8.84978e+13
8.67618e+13
8.54048e+13
8.78127e+13
9.07135e+13
9.35332e+13
9.62231e+13
9.87801e+13
1.01198e+14
1.03476e+14
1.05616e+14
1.07684e+14
1.09786e+14
1.11979e+14
1.14197e+14
1.16147e+14
1.17662e+14
1.18736e+14
1.19364e+14
1.19546e+14
1.1928e+14
1.18567e+14
1.1741e+14
1.1581e+14
1.13841e+14
1.11759e+14
1.09754e+14
1.07794e+14
1.05796e+14
1.03668e+14
1.01395e+14
9.89804e+13
9.64266e+13
9.37406e+13
9.12074e+13
8.91202e+13
8.73725e+13
8.59536e+13
8.83772e+13
9.12972e+13
9.41355e+13
9.68433e+13
9.94174e+13
1.01852e+14
1.04145e+14
1.06299e+14
1.08382e+14
1.10498e+14
1.12707e+14
1.1494e+14
1.16904e+14
1.18431e+14
1.19513e+14
1.20147e+14
1.20331e+14
1.20065e+14
1.1935e+14
1.18186e+14
1.16578e+14
1.14598e+14
1.12503e+14
1.10485e+14
1.08513e+14
1.06502e+14
1.04362e+14
1.02074e+14
9.9644e+13
9.70737e+13
9.43704e+13
9.18208e+13
8.97201e+13
8.7961e+13
8.65013e+13
8.89408e+13
9.18799e+13
9.47369e+13
9.74627e+13
1.00054e+14
1.02504e+14
1.04814e+14
1.06982e+14
1.09079e+14
1.11209e+14
1.13433e+14
1.15683e+14
1.17661e+14
1.19199e+14
1.2029e+14
1.20929e+14
1.21117e+14
1.2085e+14
1.20132e+14
1.18962e+14
1.17344e+14
1.15352e+14
1.13245e+14
1.11215e+14
1.09231e+14
1.07207e+14
1.05053e+14
1.02751e+14
1.00305e+14
9.77188e+13
9.49981e+13
9.2432e+13
9.03177e+13
8.85472e+13
8.70652e+13
8.9521e+13
9.24799e+13
9.53561e+13
9.81004e+13
1.00709e+14
1.03176e+14
1.05502e+14
1.07685e+14
1.09796e+14
1.11942e+14
1.14182e+14
1.16447e+14
1.1844e+14
1.1999e+14
1.21089e+14
1.21735e+14
1.21925e+14
1.21658e+14
1.20936e+14
1.1976e+14
1.18133e+14
1.16129e+14
1.14008e+14
1.11965e+14
1.09969e+14
1.07932e+14
1.05764e+14
1.03447e+14
1.00985e+14
9.83815e+13
9.56429e+13
9.30598e+13
9.09315e+13
8.91492e+13
8.76618e+13
9.01348e+13
9.31146e+13
9.60112e+13
9.8775e+13
1.01403e+14
1.03888e+14
1.06229e+14
1.08429e+14
1.10556e+14
1.12717e+14
1.14974e+14
1.17256e+14
1.19264e+14
1.20827e+14
1.21935e+14
1.22587e+14
1.2278e+14
1.22513e+14
1.21787e+14
1.20604e+14
1.18966e+14
1.16949e+14
1.14814e+14
1.12758e+14
1.10748e+14
1.08697e+14
1.06514e+14
1.04182e+14
1.01703e+14
9.90813e+13
9.63236e+13
9.37226e+13
9.15794e+13
8.97846e+13
8.83079e+13
9.07996e+13
9.3802e+13
9.67207e+13
9.95057e+13
1.02153e+14
1.04658e+14
1.07018e+14
1.09234e+14
1.11378e+14
1.13557e+14
1.15831e+14
1.18132e+14
1.20157e+14
1.21733e+14
1.22851e+14
1.23509e+14
1.23705e+14
1.23437e+14
1.22707e+14
1.21517e+14
1.19868e+14
1.17837e+14
1.15687e+14
1.13615e+14
1.11591e+14
1.09525e+14
1.07326e+14
1.04976e+14
1.02479e+14
9.98374e+13
9.70591e+13
9.44386e+13
9.22793e+13
9.04711e+13
8.90214e+13
9.15338e+13
9.45612e+13
9.75043e+13
1.00313e+14
1.02983e+14
1.05508e+14
1.07888e+14
1.10124e+14
1.12286e+14
1.14483e+14
1.16778e+14
1.19099e+14
1.21142e+14
1.22732e+14
1.23861e+14
1.24526e+14
1.24725e+14
1.24457e+14
1.23722e+14
1.22523e+14
1.20862e+14
1.18815e+14
1.16648e+14
1.1456e+14
1.12519e+14
1.10437e+14
1.0822e+14
1.05851e+14
1.03333e+14
1.00671e+14
9.78695e+13
9.52274e+13
9.30503e+13
9.12271e+13
8.98222e+13
9.23577e+13
9.5413e+13
9.83835e+13
1.01218e+14
1.03913e+14
1.06462e+14
1.08865e+14
1.11121e+14
1.13304e+14
1.15523e+14
1.17839e+14
1.20184e+14
1.22247e+14
1.23853e+14
1.24994e+14
1.25667e+14
1.25869e+14
1.256e+14
1.2486e+14
1.23651e+14
1.21976e+14
1.19911e+14
1.17725e+14
1.15618e+14
1.13559e+14
1.11458e+14
1.09221e+14
1.06831e+14
1.0429e+14
1.01603e+14
9.87763e+13
9.611e+13
9.39129e+13
9.20731e+13
9.07321e+13
9.32939e+13
9.6381e+13
9.93825e+13
1.02247e+14
1.0497e+14
1.07546e+14
1.09974e+14
1.12255e+14
1.14461e+14
1.16703e+14
1.19045e+14
1.21415e+14
1.23501e+14
1.25126e+14
1.2628e+14
1.26961e+14
1.27167e+14
1.26896e+14
1.2615e+14
1.2493e+14
1.23239e+14
1.21154e+14
1.18946e+14
1.16818e+14
1.14738e+14
1.12615e+14
1.10356e+14
1.07941e+14
1.05374e+14
1.02659e+14
9.98036e+13
9.71098e+13
9.48901e+13
9.30312e+13
9.17761e+13
9.43681e+13
9.74916e+13
1.00529e+14
1.03427e+14
1.06182e+14
1.08789e+14
1.11247e+14
1.13555e+14
1.15787e+14
1.18057e+14
1.20427e+14
1.22826e+14
1.24939e+14
1.26584e+14
1.27754e+14
1.28444e+14
1.28654e+14
1.28381e+14
1.27628e+14
1.26395e+14
1.24684e+14
1.22576e+14
1.20342e+14
1.1819e+14
1.16086e+14
1.13939e+14
1.11653e+14
1.0921e+14
1.06614e+14
1.03867e+14
1.00978e+14
9.82528e+13
9.60072e+13
9.41265e+13
9.29826e+13
9.56093e+13
9.87748e+13
1.01853e+14
1.0479e+14
1.07583e+14
1.10225e+14
1.12716e+14
1.15056e+14
1.17319e+14
1.1962e+14
1.22023e+14
1.24456e+14
1.26598e+14
1.28266e+14
1.29453e+14
1.30155e+14
1.30369e+14
1.30094e+14
1.29331e+14
1.28082e+14
1.2635e+14
1.24214e+14
1.21951e+14
1.19771e+14
1.17639e+14
1.15464e+14
1.13147e+14
1.10672e+14
1.08041e+14
1.05258e+14
1.0233e+14
9.95682e+13
9.72925e+13
9.53868e+13
9.43836e+13
9.70505e+13
1.00265e+14
1.0339e+14
1.06372e+14
1.09209e+14
1.11892e+14
1.14421e+14
1.16797e+14
1.19096e+14
1.21433e+14
1.23874e+14