/*--------------------------------*- C++ -*----------------------------------*\
| =========                 |                                                 |
| \\      /  F ield         | OpenFOAM: The Open Source CFD Toolbox           |
|  \\    /   O peration     | Version:  2406                                  |
|   \\  /    A nd           | Website:  www.openfoam.com                      |
|    \\/     M anipulation  |                                                 |
\*---------------------------------------------------------------------------*/
FoamFile
{
    version     2.0;
    format      ascii;
    arch        "LSB;label=32;scalar=64";
    class       volScalarField;
    location    "0/neutroRegion";
    object      fluxStar1;
}
// * * * * * * * * * * * * * * * * * * * * * * * * * * * * * * * * * * * * * //

dimensions      [0 -2 -1 0 0 0 0];

internalField   nonuniform List<scalar> 
8595
(
5.31702e+14
8.19777e+14
9.99309e+14
1.1281e+15
1.21923e+15
1.28778e+15
1.33984e+15
1.37842e+15
1.4053e+15
1.42173e+15
1.42893e+15
1.42822e+15
1.41869e+15
1.4052e+15
1.37513e+15
1.34287e+15
1.27996e+15
1.21026e+15
1.04911e+15
9.46233e+14
8.80839e+14
8.35045e+14
8.00402e+14
7.73308e+14
7.51639e+14
7.33954e+14
7.19298e+14
7.07018e+14
6.96638e+14
6.87793e+14
6.80198e+14
6.73624e+14
6.67887e+14
6.62833e+14
6.58336e+14
6.54288e+14
6.50599e+14
6.47189e+14
6.43989e+14
6.40937e+14
6.37972e+14
6.35037e+14
6.32073e+14
6.29019e+14
6.25802e+14
6.2234e+14
6.18531e+14
6.14247e+14
6.09319e+14
6.03527e+14
5.96575e+14
5.88181e+14
5.77837e+14
5.67532e+14
5.56118e+14
5.56754e+14
3.80788e+14
6.64276e+14
1.04008e+15
1.27842e+15
1.44759e+15
1.56699e+15
1.65668e+15
1.72451e+15
1.77483e+15
1.80991e+15
1.83136e+15
1.84079e+15
1.84009e+15
1.82814e+15
1.80884e+15
1.77193e+15
1.72753e+15
1.64887e+15
1.5561e+15
1.35308e+15
1.22181e+15
1.13749e+15
1.07816e+15
1.03322e+15
9.98065e+14
9.6993e+14
9.46966e+14
9.27943e+14
9.12013e+14
8.98557e+14
8.871e+14
8.77272e+14
8.68775e+14
8.61367e+14
8.5485e+14
8.49057e+14
8.43851e+14
8.3911e+14
8.34734e+14
8.30629e+14
8.26716e+14
8.22915e+14
8.19152e+14
8.15351e+14
8.11428e+14
8.07292e+14
8.02833e+14
7.9792e+14
7.92383e+14
7.86004e+14
7.78495e+14
7.69465e+14
7.58521e+14
7.44942e+14
7.30725e+14
7.12768e+14
6.996e+14
4.71285e+14
7.87534e+14
1.24561e+15
1.53859e+15
1.74391e+15
1.88773e+15
1.99604e+15
2.07891e+15
2.14039e+15
2.1832e+15
2.20932e+15
2.22089e+15
2.21996e+15
2.20581e+15
2.18096e+15
2.13759e+15
2.08124e+15
1.98815e+15
1.87085e+15
1.63654e+15
1.48056e+15
1.37863e+15
1.30635e+15
1.2515e+15
1.20853e+15
1.17412e+15
1.14603e+15
1.12276e+15
1.10329e+15
1.08685e+15
1.07286e+15
1.06086e+15
1.0505e+15
1.04147e+15
1.03354e+15
1.02649e+15
1.02016e+15
1.0144e+15
1.00909e+15
1.00412e+15
9.99374e+14
9.94769e+14
9.9021e+14
9.85604e+14
9.80851e+14
9.75837e+14
9.70433e+14
9.64479e+14
9.57774e+14
9.5006e+14
9.40997e+14
9.30126e+14
9.16956e+14
9.00563e+14
8.82598e+14
8.57686e+14
8.28319e+14
5.51472e+14
9.05802e+14
1.43959e+15
1.78162e+15
2.01937e+15
2.18561e+15
2.31189e+15
2.40897e+15
2.48065e+15
2.53036e+15
2.56064e+15
2.574e+15
2.57265e+15
2.55633e+15
2.52635e+15
2.47653e+15
2.40888e+15
2.30193e+15
2.16185e+15
1.90186e+15
1.7244e+15
1.6064e+15
1.52195e+15
1.45762e+15
1.40711e+15
1.36659e+15
1.3335e+15
1.30608e+15
1.28312e+15
1.26374e+15
1.24726e+15
1.23314e+15
1.22094e+15
1.21033e+15
1.20101e+15
1.19273e+15
1.18531e+15
1.17856e+15
1.17234e+15
1.16652e+15
1.16097e+15
1.15558e+15
1.15025e+15
1.14487e+15
1.1393e+15
1.13344e+15
1.12712e+15
1.12015e+15
1.11231e+15
1.10331e+15
1.09276e+15
1.08016e+15
1.06493e+15
1.04594e+15
1.02437e+15
9.92484e+14
9.46353e+14
6.2559e+14
1.0245e+15
1.62673e+15
2.01131e+15
2.27745e+15
2.46367e+15
2.60633e+15
2.71596e+15
2.79635e+15
2.85166e+15
2.88522e+15
2.89991e+15
2.89791e+15
2.87932e+15
2.84458e+15
2.78843e+15
2.71029e+15
2.59024e+15
2.42964e+15
2.14888e+15
1.9528e+15
1.82023e+15
1.72441e+15
1.65108e+15
1.59335e+15
1.54696e+15
1.50903e+15
1.47759e+15
1.45127e+15
1.42905e+15
1.41016e+15
1.39397e+15
1.38001e+15
1.36786e+15
1.35719e+15
1.34774e+15
1.33926e+15
1.33156e+15
1.32446e+15
1.31782e+15
1.3115e+15
1.30536e+15
1.29929e+15
1.29315e+15
1.28682e+15
1.28014e+15
1.27294e+15
1.26502e+15
1.25612e+15
1.24593e+15
1.23404e+15
1.21991e+15
1.20291e+15
1.18176e+15
1.15714e+15
1.11908e+15
1.05775e+15
6.97941e+14
1.14895e+15
1.81128e+15
2.23094e+15
2.52087e+15
2.72549e+15
2.88223e+15
3.00157e+15
3.08861e+15
3.1481e+15
3.184e+15
3.19941e+15
3.19653e+15
3.1756e+15
3.13643e+15
3.0742e+15
2.98645e+15
2.85432e+15
2.67576e+15
2.37806e+15
2.16599e+15
2.02037e+15
1.91409e+15
1.83231e+15
1.76772e+15
1.71572e+15
1.67315e+15
1.63784e+15
1.60826e+15
1.5833e+15
1.56207e+15
1.5439e+15
1.52822e+15
1.51458e+15
1.50262e+15
1.49203e+15
1.48253e+15
1.47391e+15
1.46597e+15
1.45854e+15
1.45148e+15
1.44462e+15
1.43784e+15
1.43098e+15
1.42391e+15
1.41645e+15
1.40842e+15
1.39959e+15
1.3897e+15
1.37841e+15
1.36531e+15
1.34985e+15
1.3314e+15
1.30859e+15
1.28175e+15
1.2391e+15
1.16581e+15
7.72663e+14
1.28594e+15
1.99711e+15
2.44337e+15
2.7516e+15
2.97246e+15
3.13999e+15
3.26618e+15
3.35764e+15
3.41982e+15
3.45709e+15
3.47269e+15
3.46875e+15
3.4455e+15
3.40225e+15
3.33435e+15
3.23799e+15
3.09505e+15
2.90114e+15
2.58974e+15
2.36405e+15
2.20687e+15
2.09103e+15
2.00139e+15
1.93035e+15
1.87303e+15
1.82603e+15
1.78701e+15
1.75432e+15
1.72672e+15
1.70326e+15
1.68317e+15
1.66584e+15
1.65079e+15
1.63758e+15
1.62589e+15
1.61542e+15
1.60591e+15
1.59717e+15
1.589e+15
1.58122e+15
1.57368e+15
1.56622e+15
1.55868e+15
1.5509e+15
1.54271e+15
1.53389e+15
1.52421e+15
1.5134e+15
1.5011e+15
1.48693e+15
1.47035e+15
1.4508e+15
1.42692e+15
1.39893e+15
1.35393e+15
1.27346e+15
8.54598e+14
1.44439e+15
2.18762e+15
2.65066e+15
2.97169e+15
3.20398e+15
3.37837e+15
3.50855e+15
3.6025e+15
3.66617e+15
3.70412e+15
3.71961e+15
3.71459e+15
3.6892e+15
3.64233e+15
3.56935e+15
3.46546e+15
3.31321e+15
3.10655e+15
2.78423e+15
2.54711e+15
2.37978e+15
2.2553e+15
2.15841e+15
2.08135e+15
2.01901e+15
1.96782e+15
1.92528e+15
1.88963e+15
1.85952e+15
1.83392e+15
1.812e+15
1.7931e+15
1.77669e+15
1.7623e+15
1.74956e+15
1.73816e+15
1.72782e+15
1.71831e+15
1.70942e+15
1.70097e+15
1.69278e+15
1.68468e+15
1.67649e+15
1.66805e+15
1.65916e+15
1.6496e+15
1.63913e+15
1.62746e+15
1.61427e+15
1.59917e+15
1.5817e+15
1.56141e+15
1.53709e+15
1.50918e+15
1.46456e+15
1.38325e+15
9.5014e+14
1.6392e+15
2.38644e+15
2.85375e+15
3.17994e+15
3.41717e+15
3.59452e+15
3.72651e+15
3.82171e+15
3.88626e+15
3.92466e+15
3.94004e+15
3.93414e+15
3.90697e+15
3.85706e+15
3.77973e+15
3.66951e+15
3.50959e+15
3.29273e+15
2.96184e+15
2.71532e+15
2.53921e+15
2.407e+15
2.3035e+15
2.22087e+15
2.15386e+15
2.09874e+15
2.05289e+15
2.01442e+15
1.98193e+15
1.9543e+15
1.93065e+15
1.91026e+15
1.89255e+15
1.87704e+15
1.86331e+15
1.85103e+15
1.83989e+15
1.82966e+15
1.8201e+15
1.81101e+15
1.80221e+15
1.7935e+15
1.7847e+15
1.77563e+15
1.76609e+15
1.75583e+15
1.74462e+15
1.73218e+15
1.71818e+15
1.7023e+15
1.68416e+15
1.66348e+15
1.63937e+15
1.61284e+15
1.5716e+15
1.49716e+15
1.06847e+15
1.88108e+15
2.58919e+15
3.04485e+15
3.36835e+15
3.60633e+15
3.78485e+15
3.91797e+15
4.01427e+15
4.07976e+15
4.1188e+15
4.13434e+15
4.12793e+15
4.09942e+15
4.0471e+15
3.96625e+15
3.85094e+15
3.68509e+15
3.46035e+15
3.12291e+15
2.86883e+15
2.68514e+15
2.54602e+15
2.43654e+15
2.34881e+15
2.27748e+15
2.2187e+15
2.16975e+15
2.12866e+15
2.09394e+15
2.06441e+15
2.03912e+15
2.01733e+15
1.99841e+15
1.98183e+15
1.96718e+15
1.95407e+15
1.94219e+15
1.93128e+15
1.92109e+15
1.9114e+15
1.90202e+15
1.89274e+15
1.88338e+15
1.87372e+15
1.86356e+15
1.85267e+15
1.84078e+15
1.82763e+15
1.81292e+15
1.79639e+15
1.77778e+15
1.75706e+15
1.73375e+15
1.70978e+15
1.67491e+15
1.61562e+15
1.22329e+15
1.00222e+15
8.36076e+14
7.18236e+14
6.2855e+14
5.55584e+14
4.92537e+14
4.35047e+14
3.80027e+14
3.24908e+14
2.67672e+14
1.33732e+15
1.19729e+15
1.07291e+15
9.61746e+14
8.60341e+14
7.65655e+14
6.75036e+14
5.86176e+14
4.96847e+14
4.05394e+14
1.43075e+15
1.3048e+15
1.18393e+15
1.06815e+15
9.56646e+14
8.48483e+14
7.42651e+14
6.38212e+14
5.34264e+14
4.30083e+14
1.49124e+15
1.37128e+15
1.25216e+15
1.13452e+15
1.0184e+15
9.03729e+14
7.90287e+14
6.77827e+14
5.66035e+14
4.54407e+14
1.53338e+15
1.4158e+15
1.29716e+15
1.17825e+15
1.05945e+15
9.41044e+14
8.23172e+14
7.05903e+14
5.89237e+14
4.72741e+14
1.56807e+15
1.45103e+15
1.33193e+15
1.21165e+15
1.09071e+15
9.69574e+14
8.48543e+14
7.27833e+14
6.0762e+14
4.87453e+14
1.59634e+15
1.47898e+15
1.359e+15
1.23732e+15
1.11454e+15
9.91228e+14
8.67764e+14
7.44441e+14
6.21545e+14
4.98613e+14
1.61993e+15
1.50184e+15
1.38078e+15
1.25773e+15
1.13334e+15
1.00821e+15
8.82783e+14
7.57394e+14
6.32396e+14
5.07317e+14
1.6398e+15
1.52081e+15
1.39865e+15
1.27432e+15
1.14851e+15
1.02183e+15
8.94784e+14
7.67717e+14
6.4103e+14
5.14245e+14
1.65673e+15
1.53681e+15
1.4136e+15
1.2881e+15
1.16103e+15
1.03303e+15
9.04619e+14
7.7616e+14
6.48084e+14
5.19906e+14
1.67137e+15
1.55055e+15
1.42634e+15
1.29979e+15
1.1716e+15
1.04246e+15
9.1288e+14
7.83242e+14
6.53996e+14
5.24653e+14
1.68424e+15
1.56256e+15
1.43744e+15
1.30992e+15
1.18075e+15
1.0506e+15
9.19995e+14
7.89335e+14
6.5908e+14
5.28738e+14
1.69576e+15
1.57327e+15
1.44731e+15
1.31892e+15
1.18885e+15
1.05779e+15
9.26279e+14
7.94714e+14
6.63567e+14
5.32346e+14
1.70629e+15
1.58305e+15
1.4563e+15
1.32709e+15
1.1962e+15
1.06431e+15
9.31974e+14
7.99587e+14
6.67633e+14
5.35616e+14
1.71615e+15
1.59219e+15
1.46468e+15
1.33472e+15
1.20305e+15
1.07038e+15
9.37272e+14
8.0412e+14
6.71416e+14
5.38661e+14
1.7256e+15
1.60093e+15
1.47271e+15
1.342e+15
1.20959e+15
1.07618e+15
9.4233e+14
8.08447e+14
6.75027e+14
5.41568e+14
1.73489e+15
1.60952e+15
1.48058e+15
1.34914e+15
1.216e+15
1.08186e+15
9.47284e+14
8.12685e+14
6.78565e+14
5.44417e+14
1.74423e+15
1.61816e+15
1.48849e+15
1.35632e+15
1.22244e+15
1.08756e+15
9.52258e+14
8.1694e+14
6.82115e+14
5.47276e+14
1.75384e+15
1.62704e+15
1.49663e+15
1.3637e+15
1.22906e+15
1.09342e+15
9.57369e+14
8.2131e+14
6.85762e+14
5.50213e+14
1.76395e+15
1.63638e+15
1.50518e+15
1.37145e+15
1.23601e+15
1.09958e+15
9.62732e+14
8.25895e+14
6.89587e+14
5.53291e+14
1.77478e+15
1.64638e+15
1.51433e+15
1.37975e+15
1.24345e+15
1.10616e+15
9.68469e+14
8.30798e+14
6.93675e+14
5.5658e+14
1.78658e+15
1.65728e+15
1.5243e+15
1.38879e+15
1.25155e+15
1.11332e+15
9.74709e+14
8.36128e+14
6.98118e+14
5.60152e+14
1.79963e+15
1.66932e+15
1.53532e+15
1.39877e+15
1.26049e+15
1.12123e+15
9.81595e+14
8.42008e+14
7.03016e+14
5.64088e+14
1.81423e+15
1.6828e+15
1.54765e+15
1.40993e+15
1.27049e+15
1.13007e+15
9.89287e+14
8.48574e+14
7.08482e+14
5.68478e+14
1.83075e+15
1.69804e+15
1.56158e+15
1.42254e+15
1.28178e+15
1.14005e+15
9.97969e+14
8.55981e+14
7.14646e+14
5.73425e+14
1.84958e+15
1.71541e+15
1.57746e+15
1.43691e+15
1.29464e+15
1.15141e+15
1.00785e+15
8.64409e+14
7.21656e+14
5.79047e+14
1.87121e+15
1.73535e+15
1.59568e+15
1.45339e+15
1.30938e+15
1.16443e+15
1.01917e+15
8.74064e+14
7.29681e+14
5.85482e+14
1.89618e+15
1.75836e+15
1.6167e+15
1.4724e+15
1.32639e+15
1.17944e+15
1.03222e+15
8.85184e+14
7.38922e+14
5.92887e+14
1.92514e+15
1.78504e+15
1.64106e+15
1.49442e+15
1.34608e+15
1.19682e+15
1.04732e+15
8.98049e+14
7.49608e+14
6.01447e+14
1.95883e+15
1.81606e+15
1.66937e+15
1.52002e+15
1.36895e+15
1.217e+15
1.06485e+15
9.12985e+14
7.62011e+14
6.11378e+14
1.99813e+15
1.85224e+15
1.70239e+15
1.54985e+15
1.39561e+15
1.24052e+15
1.08528e+15
9.30377e+14
7.76449e+14
6.22936e+14
2.0441e+15
1.89455e+15
1.74099e+15
1.58471e+15
1.42676e+15
1.26799e+15
1.10913e+15
9.5069e+14
7.93309e+14
6.3643e+14
2.09803e+15
1.94417e+15
1.78624e+15
1.62559e+15
1.46327e+15
1.3002e+15
1.13709e+15
9.74501e+14
8.1307e+14
6.52242e+14
2.16153e+15
2.0026e+15
1.83954e+15
1.67373e+15
1.50629e+15
1.33814e+15
1.17005e+15
1.00257e+15
8.36365e+14
6.70881e+14
2.23675e+15
2.07184e+15
1.90274e+15
1.73087e+15
1.55738e+15
1.38324e+15
1.20923e+15
1.03596e+15
8.64089e+14
6.93067e+14
2.32661e+15
2.15465e+15
1.97843e+15
1.79939e+15
1.61874e+15
1.43748e+15
1.25644e+15
1.07623e+15
8.97556e+14
7.19861e+14
2.43512e+15
2.25487e+15
2.07028e+15
1.8828e+15
1.69368e+15
1.50393e+15
1.31443e+15
1.12581e+15
9.38813e+14
7.52913e+14
2.56892e+15
2.37905e+15
2.18474e+15
1.98742e+15
1.78831e+15
1.58846e+15
1.38872e+15
1.18974e+15
9.92293e+14
7.95886e+14
2.74113e+15
2.54019e+15
2.33461e+15
2.12584e+15
1.91509e+15
1.70333e+15
1.49131e+15
1.27957e+15
1.06867e+15
8.57879e+14
2.95719e+15
2.74324e+15
2.52507e+15
2.30406e+15
2.08125e+15
1.85736e+15
1.63276e+15
1.40745e+15
1.18155e+15
9.51459e+14
3.0705e+15
2.84404e+15
2.61397e+15
2.38148e+15
2.14739e+15
1.91218e+15
1.67608e+15
1.43922e+15
1.20217e+15
9.64114e+14
3.13499e+15
2.89943e+15
2.66154e+15
2.4224e+15
2.18265e+15
1.94257e+15
1.70218e+15
1.46141e+15
1.22062e+15
9.78979e+14
3.16167e+15
2.9194e+15
2.67624e+15
2.43302e+15
2.19014e+15
1.94797e+15
1.70658e+15
1.46551e+15
1.2246e+15
9.82618e+14
3.16548e+15
2.91969e+15
2.67442e+15
2.43016e+15
2.18712e+15
1.94525e+15
1.70431e+15
1.4638e+15
1.22346e+15
9.81946e+14
3.15534e+15
2.90837e+15
2.6628e+15
2.41913e+15
2.17738e+15
1.93699e+15
1.69742e+15
1.45816e+15
1.21893e+15
9.78445e+14
3.13847e+15
2.89213e+15
2.64753e+15
2.40548e+15
2.16535e+15
1.92647e+15
1.68831e+15
1.45038e+15
1.21236e+15
9.73282e+14
3.11595e+15
2.87159e+15
2.62913e+15
2.38878e+15
2.1502e+15
1.91285e+15
1.67621e+15
1.43984e+15
1.2033e+15
9.66119e+14
3.08515e+15
2.84354e+15
2.60362e+15
2.36551e+15
2.12903e+15
1.89374e+15
1.65919e+15
1.42497e+15
1.19058e+15
9.56025e+14
3.04166e+15
2.80335e+15
2.56674e+15
2.33182e+15
2.09843e+15
1.86621e+15
1.63476e+15
1.40369e+15
1.17254e+15
9.41699e+14
2.98135e+15
2.74712e+15
2.51476e+15
2.28415e+15
2.05509e+15
1.82726e+15
1.60027e+15
1.37377e+15
1.14736e+15
9.21681e+14
2.8996e+15
2.67025e+15
2.44322e+15
2.21825e+15
1.99506e+15
1.7733e+15
1.55256e+15
1.33251e+15
1.11279e+15
8.94165e+14
2.79111e+15
2.56736e+15
2.34679e+15
2.12895e+15
1.91345e+15
1.69983e+15
1.48762e+15
1.27645e+15
1.06594e+15
8.56837e+14
2.64858e+15
2.43067e+15
2.21753e+15
2.0085e+15
1.80291e+15
1.60011e+15
1.39944e+15
1.2004e+15
1.00247e+15
8.0621e+14
2.46202e+15
2.24932e+15
2.04423e+15
1.84577e+15
1.65285e+15
1.4644e+15
1.27938e+15
1.09694e+15
9.1622e+14
7.37376e+14
2.21382e+15
2.0032e+15
1.80596e+15
1.62038e+15
1.4443e+15
1.27563e+15
1.1125e+15
9.5333e+14
7.96638e+14
6.41896e+14
1.87177e+15
1.65554e+15
1.46621e+15
1.29862e+15
1.14745e+15
1.00824e+15
8.77358e+14
7.52038e+14
6.29772e+14
5.09109e+14
1.34475e+15
1.10987e+15
9.40899e+14
8.11198e+14
7.05665e+14
6.15319e+14
5.34462e+14
4.59366e+14
3.86884e+14
3.15096e+14
2.77327e+15
3.18161e+15
3.71089e+15
4.39131e+15
5.26705e+15
6.4022e+15
7.89408e+15
9.89976e+15
1.26964e+16
1.68477e+16
2.38401e+16
3.03657e+15
3.48334e+15
4.06265e+15
4.80737e+15
5.76566e+15
7.00744e+15
8.63873e+15
1.08301e+16
1.38808e+16
1.83921e+16
2.58702e+16
3.35341e+15
3.84649e+15
4.48602e+15
5.30793e+15
6.36502e+15
7.73379e+15
9.52983e+15
1.19378e+16
1.52776e+16
2.01731e+16
2.80508e+16
3.74152e+15
4.29157e+15
5.0048e+15
5.92085e+15
7.09782e+15
8.61965e+15
1.06121e+16
1.32736e+16
1.69397e+16
2.22321e+16
3.04002e+16
4.15709e+15
4.76874e+15
5.56088e+15
6.57709e+15
7.8807e+15
9.56262e+15
1.17574e+16
1.46731e+16
1.86503e+16
2.4279e+16
3.25903e+16
4.55564e+15
5.22698e+15
6.09471e+15
7.20618e+15
8.62928e+15
1.04605e+16
1.28407e+16
1.59827e+16
2.02218e+16
2.61004e+16
3.44495e+16
4.93548e+15
5.66424e+15
6.60386e+15
7.80518e+15
9.33994e+15
1.1309e+16
1.3857e+16
1.71974e+16
2.1653e+16
2.77119e+16
3.6037e+16
5.29555e+15
6.07913e+15
7.08664e+15
8.37204e+15
1.00103e+16
1.21053e+16
1.48035e+16
1.83154e+16
2.29467e+16
2.91304e+16
3.7395e+16
5.63488e+15
6.47038e+15
7.5415e+15
8.90494e+15
1.06381e+16
1.2847e+16
1.5678e+16
1.9336e+16
2.41068e+16
3.03718e+16
3.85537e+16
5.9557e+15
6.84043e+15
7.97122e+15
9.40713e+15
1.12275e+16
1.35392e+16
1.64871e+16
2.02686e+16
2.51484e+16
3.14602e+16
3.95449e+16
6.27223e+15
7.20553e+15
8.39459e+15
9.90048e+15
1.18039e+16
1.42118e+16
1.72662e+16
2.11549e+16
2.61204e+16
3.24517e+16
4.04233e+16
6.59834e+15
7.58153e+15
8.82975e+15
1.04058e+16
1.23911e+16
1.48917e+16
1.80452e+16
2.20278e+16
2.70578e+16
3.33811e+16
4.12163e+16
6.93968e+15
7.97472e+15
9.28353e+15
1.09302e+16
1.29962e+16
1.55855e+16
1.88292e+16
2.28897e+16
2.79587e+16
3.42406e+16
4.19062e+16
7.26567e+15
8.3495e+15
9.71412e+15
1.14242e+16
1.35605e+16
1.62233e+16
1.9536e+16
2.36454e+16
2.87171e+16
3.49186e+16
4.23825e+16
7.53433e+15
8.6573e+15
1.00653e+16
1.1823e+16
1.40093e+16
1.67204e+16
2.00712e+16
2.41938e+16
2.92313e+16
3.53209e+16
4.25675e+16
7.73302e+15
8.88358e+15
1.03207e+16
1.21082e+16
1.43229e+16
1.70564e+16
2.04156e+16
2.45194e+16
2.94922e+16
3.54481e+16
4.24704e+16
7.86107e+15
9.02768e+15
1.04798e+16
1.228e+16
1.45025e+16
1.72345e+16
2.05752e+16
2.46329e+16
2.95161e+16
3.53213e+16
4.21146e+16
7.91829e+15
9.08951e+15
1.05428e+16
1.23391e+16
1.45499e+16
1.72582e+16
2.05566e+16
2.45439e+16
2.93171e+16
3.49581e+16
4.15197e+16
7.90465e+15
9.06925e+15
1.05102e+16
1.22867e+16
1.44674e+16
1.71312e+16
2.03654e+16
2.42614e+16
2.8907e+16
3.43739e+16
4.07036e+16
7.82068e+15
8.96775e+15
1.03834e+16
1.21248e+16
1.42579e+16
1.6858e+16
2.00078e+16
2.37935e+16
2.82967e+16
3.35822e+16
3.96826e+16
7.66714e+15
8.7861e+15
1.0164e+16
1.18557e+16
1.39245e+16
1.64425e+16
1.94891e+16
2.3147e+16
2.74945e+16
3.2593e+16
3.84694e+16
7.44512e+15
8.52579e+15
9.85381e+15
1.14818e+16
1.34705e+16
1.5889e+16
1.88143e+16
2.23275e+16
2.65069e+16
3.14146e+16
3.70754e+16
7.1565e+15
8.18924e+15
9.45606e+15
1.10071e+16
1.29005e+16
1.52029e+16
1.79894e+16
2.13415e+16
2.53406e+16
3.00543e+16
3.55111e+16
6.82669e+15
7.80619e+15
9.00583e+15
1.04734e+16
1.22643e+16
1.44431e+16
1.70839e+16
2.02696e+16
2.40877e+16
2.86168e+16
3.38964e+16
6.50002e+15
7.42791e+15
8.56286e+15
9.95048e+15
1.16438e+16
1.37055e+16
1.6209e+16
1.92392e+16
2.28908e+16
2.72572e+16
3.23957e+16
6.18689e+15
7.06615e+15
8.14038e+15
9.4532e+15
1.10556e+16
1.30082e+16
1.53838e+16
1.82695e+16
2.17677e+16
2.59882e+16
3.10128e+16
5.8788e+15
6.71091e+15
7.72642e+15
8.96706e+15
1.04817e+16
1.23291e+16
1.45813e+16
1.73273e+16
2.06769e+16
2.47587e+16
2.96858e+16
5.56029e+15
6.34434e+15
7.30004e+15
8.46729e+15
9.89271e+15
1.16332e+16
1.37594e+16
1.63619e+16
1.95582e+16
2.34976e+16
2.8334e+16
5.2212e+15
5.95477e+15
6.84775e+15
7.93809e+15
9.27004e+15
1.08981e+16
1.28914e+16
1.53413e+16
1.83727e+16
2.21579e+16
2.69037e+16
4.8615e+15
5.54224e+15
6.36963e+15
7.37964e+15
8.61388e+15
1.01242e+16
1.19774e+16
1.42646e+16
1.71173e+16
2.07318e+16
2.53813e+16
4.48125e+15
5.10688e+15
5.86592e+15
6.79229e+15
7.92471e+15
9.31184e+15
1.10176e+16
1.31316e+16
1.57894e+16
1.92107e+16
2.37492e+16
4.08136e+15
4.64976e+15
5.33795e+15
6.1777e+15
7.20455e+15
8.46358e+15
1.00148e+16
1.19447e+16
1.43898e+16
1.75888e+16
2.19863e+16
3.6623e+15
4.17146e+15
4.78649e+15
5.53686e+15
6.45468e+15
7.58092e+15
8.97084e+15
1.07056e+16
1.29184e+16
1.58582e+16
2.00605e+16
3.23108e+15
3.67997e+15
4.22103e+15
4.88113e+15
5.68865e+15
6.68006e+15
7.90494e+15
9.43721e+15
1.14011e+16
1.40418e+16
1.79597e+16
2.87303e+15
3.27187e+15
3.75225e+15
4.33847e+15
5.05572e+15
5.93655e+15
7.02527e+15
8.38832e+15
1.01384e+16
1.2502e+16
1.60754e+16
1.3653e+15
1.45624e+15
1.56459e+15
1.66809e+15
1.76479e+15
1.85459e+15
1.9374e+15
2.01334e+15
2.08259e+15
2.14749e+15
2.21106e+15
2.27438e+15
2.33438e+15
2.38219e+15
2.41403e+15
2.43033e+15
2.43156e+15
2.41811e+15
2.39024e+15
2.34831e+15
2.29228e+15
2.22254e+15
2.14226e+15
2.06064e+15
1.98388e+15
1.90999e+15
1.83538e+15
1.75649e+15
1.67257e+15
1.58356e+15
1.48945e+15
1.39037e+15
1.29679e+15
1.21965e+15
1.15514e+15
1.69667e+15
1.74976e+15
1.81536e+15
1.88019e+15
1.9426e+15
2.00208e+15
2.05815e+15
2.11056e+15
2.15911e+15
2.20521e+15
2.25088e+15
2.29678e+15
2.3405e+15
2.37519e+15
2.39774e+15
2.40813e+15
2.40652e+15
2.39307e+15
2.36794e+15
2.33145e+15
2.28375e+15
2.22528e+15
2.15879e+15
2.09204e+15
2.03004e+15
1.97114e+15
1.91254e+15
1.85162e+15
1.78811e+15
1.72231e+15
1.65463e+15
1.58559e+15
1.52271e+15
1.47254e+15
1.43173e+15
1.74127e+15
1.78417e+15
1.8362e+15
1.88702e+15
1.93559e+15
1.98173e+15
2.0252e+15
2.06586e+15
2.10364e+15
2.13964e+15
2.17546e+15
2.2117e+15
2.24653e+15
2.27451e+15
2.29292e+15
2.30162e+15
2.30057e+15
2.28984e+15
2.26953e+15
2.23989e+15
2.20114e+15
2.1536e+15
2.09957e+15
2.04549e+15
1.99538e+15
1.94787e+15
1.90063e+15
1.85158e+15
1.80044e+15
1.74744e+15
1.69279e+15
1.63682e+15
1.58545e+15
1.54408e+15
1.5101e+15
1.77018e+15
1.80888e+15
1.8553e+15
1.90018e+15
1.94276e+15
1.98296e+15
2.02064e+15
2.05579e+15
2.08837e+15
2.11939e+15
2.15027e+15
2.18153e+15
2.21161e+15
2.23582e+15
2.25183e+15
2.2595e+15
2.25883e+15
2.24984e+15
2.23259e+15
2.20725e+15
2.17396e+15
2.13296e+15
2.08621e+15
2.03927e+15
1.99568e+15
1.95424e+15
1.91295e+15
1.86994e+15
1.82493e+15
1.77807e+15
1.72949e+15
1.67939e+15
1.63304e+15
1.59544e+15
1.56434e+15
1.79177e+15
1.82878e+15
1.87285e+15
1.91519e+15
1.9551e+15
1.99257e+15
2.02753e+15
2.05999e+15
2.08997e+15
2.11842e+15
2.14666e+15
2.17519e+15
2.2026e+15
2.22465e+15
2.23926e+15
2.24634e+15
2.24588e+15
2.2379e+15
2.22246e+15
2.19967e+15
2.16966e+15
2.1326e+15
2.0902e+15
2.04748e+15
2.00767e+15
1.96969e+15
1.9317e+15
1.89197e+15
1.85021e+15
1.80651e+15
1.76096e+15
1.71369e+15
1.66967e+15
1.63374e+15
1.60387e+15
1.81419e+15
1.85054e+15
1.89369e+15
1.93499e+15
1.9738e+15
2.01011e+15
2.04388e+15
2.07515e+15
2.10396e+15
2.13123e+15
2.15825e+15
2.18549e+15
2.21162e+15
2.23264e+15
2.24659e+15
2.25342e+15
2.25314e+15
2.24578e+15
2.23139e+15
2.21006e+15
2.18189e+15
2.14699e+15
2.10692e+15
2.06644e+15
2.02857e+15
1.99235e+15
1.95601e+15
1.91789e+15
1.87768e+15
1.83545e+15
1.79127e+15
1.74524e+15
1.70221e+15
1.66696e+15
1.63758e+15
1.83475e+15
1.87096e+15
1.91387e+15
1.95488e+15
1.99334e+15
2.02927e+15
2.06262e+15
2.09346e+15
2.12184e+15
2.14867e+15
2.17523e+15
2.20198e+15
2.22764e+15
2.24829e+15
2.26204e+15
2.26887e+15
2.26879e+15
2.26184e+15
2.24808e+15
2.22757e+15
2.20038e+15
2.16662e+15
2.12775e+15
2.08837e+15
2.05146e+15
2.01606e+15
1.98049e+15
1.94308e+15
1.90355e+15
1.86194e+15
1.81829e+15
1.77272e+15
1.73001e+15
1.69495e+15
1.66569e+15
1.85355e+15
1.88988e+15
1.93289e+15
1.97396e+15
2.01244e+15
2.04836e+15
2.08168e+15
2.11247e+15
2.14079e+15
2.16755e+15
2.19403e+15
2.2207e+15
2.24629e+15
2.26691e+15
2.2807e+15
2.28763e+15
2.28775e+15
2.28109e+15
2.26769e+15
2.24762e+15
2.22095e+15
2.18773e+15
2.14942e+15
2.11053e+15
2.07401e+15
2.03895e+15
2.00366e+15
1.96651e+15
1.92718e+15
1.88574e+15
1.8422e+15
1.79668e+15
1.75395e+15
1.71885e+15
1.68951e+15
1.87045e+15
1.90699e+15
1.95025e+15
1.99155e+15
2.03023e+15
2.06631e+15
2.09979e+15
2.13072e+15
2.15915e+15
2.18602e+15
2.21261e+15
2.2394e+15
2.26512e+15
2.28588e+15
2.29981e+15
2.30691e+15
2.30721e+15
2.30074e+15
2.28756e+15
2.26772e+15
2.24128e+15
2.2083e+15
2.17019e+15
2.13145e+15
2.09504e+15
2.06004e+15
2.02478e+15
1.98763e+15
1.94828e+15
1.90677e+15
1.86313e+15
1.81746e+15
1.77455e+15
1.73928e+15
1.70978e+15
1.88557e+15
1.92238e+15
1.96595e+15
2.00754e+15
2.04649e+15
2.08283e+15
2.11654e+15
2.14768e+15
2.17631e+15
2.20337e+15
2.23016e+15
2.25715e+15
2.28309e+15
2.30405e+15
2.31818e+15
2.32545e+15
2.3259e+15
2.31958e+15
2.30652e+15
2.28679e+15
2.26043e+15
2.22749e+15
2.1894e+15
2.15063e+15
2.11417e+15
2.0791e+15
2.04375e+15
2.00648e+15
1.96699e+15
1.92529e+15
1.88144e+15
1.83553e+15
1.79238e+15
1.75689e+15
1.7272e+15
1.89915e+15
1.93624e+15
1.98014e+15
2.02204e+15
2.06128e+15
2.0979e+15
2.13186e+15
2.16324e+15
2.1921e+15
2.21939e+15
2.24639e+15
2.27363e+15
2.29981e+15
2.32101e+15
2.33533e+15
2.34276e+15
2.34335e+15
2.33712e+15
2.32413e+15
2.30443e+15
2.27807e+15
2.24509e+15
2.20691e+15
2.16802e+15
2.13143e+15
2.09622e+15
2.06072e+15
2.02328e+15
1.98358e+15
1.94166e+15
1.89756e+15
1.85137e+15
1.80794e+15
1.77222e+15
1.74233e+15
1.91146e+15
1.94881e+15
1.99303e+15
2.03524e+15
2.07478e+15
2.11167e+15
2.1459e+15
2.17752e+15
2.20661e+15
2.23412e+15
2.26136e+15
2.28883e+15
2.31527e+15
2.33669e+15
2.3512e+15
2.35878e+15
2.35948e+15
2.35333e+15
2.34037e+15
2.32066e+15
2.29425e+15
2.26117e+15
2.22285e+15
2.1838e+15
2.14705e+15
2.11167e+15
2.07598e+15
2.03834e+15
1.99842e+15
1.95626e+15
1.9119e+15
1.86542e+15
1.82172e+15
1.78576e+15
1.75567e+15
1.92275e+15
1.96036e+15
2.00489e+15
2.0474e+15
2.08722e+15
2.12438e+15
2.15886e+15
2.19072e+15
2.22004e+15
2.24776e+15
2.27522e+15
2.30293e+15
2.3296e+15
2.35124e+15
2.36593e+15
2.37365e+15
2.37444e+15
2.36834e+15
2.35539e+15
2.33565e+15
2.30915e+15
2.27596e+15
2.23747e+15
2.19824e+15
2.1613e+15
2.12574e+15
2.08987e+15
2.05202e+15
2.01188e+15
1.96947e+15
1.92484e+15
1.87808e+15
1.83411e+15
1.79793e+15
1.76765e+15
1.93329e+15
1.97115e+15
2.01597e+15
2.05876e+15
2.09885e+15
2.13627e+15
2.17099e+15
2.20308e+15
2.23261e+15
2.26054e+15
2.28822e+15
2.31615e+15
2.34305e+15
2.36489e+15
2.37974e+15
2.38758e+15
2.38845e+15
2.38238e+15
2.36943e+15
2.34964e+15
2.32306e+15
2.28972e+15
2.25106e+15
2.21164e+15
2.17452e+15
2.13877e+15
2.1027e+15
2.06465e+15
2.02428e+15
1.98164e+15
1.93675e+15
1.88971e+15
1.84548e+15
1.80908e+15
1.77862e+15
1.94331e+15
1.9814e+15
2.02651e+15
2.06957e+15
2.10992e+15
2.14759e+15
2.18254e+15
2.21485e+15
2.24459e+15
2.27272e+15
2.30059e+15
2.32874e+15
2.35585e+15
2.37789e+15
2.39289e+15
2.40084e+15
2.40178e+15
2.39574e+15
2.38277e+15
2.36292e+15
2.33624e+15
2.30276e+15
2.26392e+15
2.22431e+15
2.18699e+15
2.15106e+15
2.1148e+15
2.07654e+15
2.03595e+15
1.99307e+15
1.94793e+15
1.90063e+15
1.85614e+15
1.81954e+15
1.7889e+15
1.95303e+15
1.99135e+15
2.03673e+15
2.08006e+15
2.12067e+15
2.15857e+15
2.19375e+15
2.22628e+15
2.25621e+15
2.28454e+15
2.31261e+15
2.34096e+15
2.36829e+15
2.39051e+15
2.40565e+15
2.4137e+15
2.4147e+15
2.40868e+15
2.39569e+15
2.37578e+15
2.34899e+15
2.31536e+15
2.27634e+15
2.23653e+15
2.19903e+15
2.16291e+15
2.12646e+15
2.08799e+15
2.04718e+15
2.00407e+15
1.95868e+15
1.91112e+15
1.86638e+15
1.82957e+15
1.79876e+15
1.96266e+15
2.00121e+15
2.04687e+15
2.09046e+15
2.13132e+15
2.16946e+15
2.20487e+15
2.2376e+15
2.26773e+15
2.29625e+15
2.32452e+15
2.35307e+15
2.3806e+15
2.403e+15
2.41828e+15
2.42643e+15
2.42749e+15
2.42149e+15
2.40847e+15
2.38849e+15
2.36159e+15
2.32781e+15
2.2886e+15
2.24859e+15
2.21089e+15
2.17458e+15
2.13794e+15
2.09927e+15
2.05824e+15
2.01489e+15
1.96926e+15
1.92143e+15
1.87645e+15
1.83943e+15
1.80845e+15
1.97241e+15
2.01119e+15
2.05712e+15
2.10098e+15
2.14209e+15
2.18047e+15
2.21611e+15
2.24906e+15
2.27939e+15
2.30811e+15
2.33657e+15
2.36533e+15
2.39307e+15
2.41565e+15
2.43107e+15
2.43932e+15
2.44043e+15
2.43444e+15
2.42139e+15
2.40134e+15
2.37432e+15
2.34038e+15
2.30098e+15
2.26076e+15
2.22286e+15
2.18636e+15
2.14952e+15
2.11064e+15
2.06938e+15
2.0258e+15
1.97991e+15
1.93182e+15
1.88658e+15
1.84936e+15
1.8182e+15
1.98247e+15
2.02148e+15
2.0677e+15
2.11184e+15
2.15322e+15
2.19185e+15
2.22772e+15
2.2609e+15
2.29144e+15
2.32035e+15
2.34902e+15
2.37799e+15
2.40594e+15
2.42871e+15
2.44428e+15
2.45262e+15
2.45379e+15
2.44781e+15
2.43473e+15
2.4146e+15
2.38746e+15
2.35335e+15
2.31374e+15
2.27331e+15
2.23521e+15
2.1985e+15
2.16146e+15
2.12236e+15
2.08087e+15
2.03703e+15
1.99088e+15
1.94251e+15
1.89702e+15
1.85958e+15
1.82825e+15
1.99305e+15
2.03232e+15
2.07884e+15
2.12328e+15
2.16493e+15
2.20383e+15
2.23996e+15
2.27337e+15
2.30413e+15
2.33326e+15
2.36214e+15
2.39133e+15
2.41951e+15
2.44248e+15
2.45819e+15
2.46665e+15
2.46787e+15
2.46191e+15
2.44879e+15
2.42857e+15
2.4013e+15
2.36702e+15
2.32719e+15
2.28653e+15
2.2482e+15
2.21129e+15
2.17402e+15
2.13469e+15
2.09295e+15
2.04885e+15
2.00242e+15
1.95376e+15
1.90799e+15
1.87033e+15
1.83881e+15
2.00439e+15
2.04393e+15
2.09078e+15
2.13553e+15
2.17749e+15
2.21668e+15
2.25307e+15
2.28673e+15
2.31773e+15
2.34709e+15
2.37621e+15
2.40565e+15
2.43407e+15
2.45725e+15
2.47313e+15
2.4817e+15
2.48299e+15
2.47703e+15
2.46387e+15
2.44357e+15
2.41615e+15
2.38168e+15
2.34162e+15
2.30071e+15
2.26215e+15
2.225e+15
2.1875e+15
2.14791e+15
2.10591e+15
2.06153e+15
2.0148e+15
1.96583e+15
1.91976e+15
1.88185e+15
1.85012e+15
2.01673e+15
2.05657e+15
2.10378e+15
2.14888e+15
2.19117e+15
2.23067e+15
2.26736e+15
2.30131e+15
2.33257e+15
2.36218e+15
2.39155e+15
2.42126e+15
2.44995e+15
2.47336e+15
2.48943e+15
2.49812e+15
2.49948e+15
2.49354e+15
2.48033e+15
2.45993e+15
2.43236e+15
2.39767e+15
2.35735e+15
2.31618e+15
2.27736e+15
2.23995e+15
2.2022e+15
2.16234e+15
2.12004e+15
2.07535e+15
2.02829e+15
1.97898e+15
1.93258e+15
1.89441e+15
1.86246e+15
2.03036e+15
2.07053e+15
2.11814e+15
2.16363e+15
2.20629e+15
2.24614e+15
2.28317e+15
2.31742e+15
2.34897e+15
2.37887e+15
2.40853e+15
2.43853e+15
2.46753e+15
2.4912e+15
2.50747e+15
2.5163e+15
2.51773e+15
2.51181e+15
2.49856e+15
2.47805e+15
2.4503e+15
2.41538e+15
2.37478e+15
2.3333e+15
2.29419e+15
2.25651e+15
2.21846e+15
2.1783e+15
2.13568e+15
2.09064e+15
2.04322e+15
1.99352e+15
1.94677e+15
1.90829e+15
1.87609e+15
2.0456e+15
2.08615e+15
2.13421e+15
2.18014e+15
2.22321e+15
2.26346e+15
2.30086e+15
2.33547e+15
2.36735e+15
2.39756e+15
2.42755e+15
2.45789e+15
2.48722e+15
2.51119e+15
2.52769e+15
2.53668e+15
2.5382e+15
2.53229e+15
2.51899e+15
2.49836e+15
2.47042e+15
2.43523e+15
2.3943e+15
2.35249e+15
2.31305e+15
2.27505e+15
2.23668e+15
2.19618e+15
2.15319e+15
2.10777e+15
2.05994e+15
2.0098e+15
1.96265e+15
1.92384e+15
1.89136e+15
2.06284e+15
2.10382e+15
2.15239e+15
2.19882e+15
2.24237e+15
2.28307e+15
2.32089e+15
2.3559e+15
2.38816e+15
2.41874e+15
2.44909e+15
2.47981e+15
2.50953e+15
2.53385e+15
2.5506e+15
2.55977e+15
2.56139e+15
2.5555e+15
2.54214e+15
2.52136e+15
2.4932e+15
2.45771e+15
2.41642e+15
2.37421e+15
2.33441e+15
2.29604e+15
2.25731e+15
2.21641e+15
2.17301e+15
2.12715e+15
2.07885e+15
2.02823e+15
1.98061e+15
1.94143e+15
1.90863e+15
2.08252e+15
2.12399e+15
2.17315e+15
2.22015e+15
2.26425e+15
2.30547e+15
2.34378e+15
2.37925e+15
2.41194e+15
2.44294e+15
2.47371e+15
2.50488e+15
2.53505e+15
2.55974e+15
2.57679e+15
2.58617e+15
2.5879e+15
2.58203e+15
2.5686e+15
2.54765e+15
2.51924e+15
2.4834e+15
2.44168e+15
2.39903e+15
2.3588e+15
2.32002e+15
2.28086e+15
2.23952e+15
2.19564e+15
2.14926e+15
2.10043e+15
2.04925e+15
2.00111e+15
1.96149e+15
1.92833e+15
2.1052e+15
2.14723e+15
2.19708e+15
2.24474e+15
2.28946e+15
2.33128e+15
2.37016e+15
2.40616e+15
2.43935e+15