/*--------------------------------*- C++ -*----------------------------------*\
| =========                 |                                                 |
| \\      /  F ield         | OpenFOAM: The Open Source CFD Toolbox           |
|  \\    /   O peration     | Version:  2406                                  |
|   \\  /    A nd           | Website:  www.openfoam.com                      |
|    \\/     M anipulation  |                                                 |
\*---------------------------------------------------------------------------*/
FoamFile
{
    version     2.0;
    format      ascii;
    arch        "LSB;label=32;scalar=64";
    class       volScalarField;
    location    "0/neutroRegion";
    object      flux3;
}
// * * * * * * * * * * * * * * * * * * * * * * * * * * * * * * * * * * * * * //

dimensions      [0 -2 -1 0 0 0 0];

internalField   nonuniform List<scalar> 
8595
(
3.44246e+14
6.79431e+14
9.30858e+14
1.11443e+15
1.24695e+15
1.34316e+15
1.41293e+15
1.46257e+15
1.49618e+15
1.51644e+15
1.52509e+15
1.52316e+15
1.51082e+15
1.48839e+15
1.45389e+15
1.40812e+15
1.34741e+15
1.27508e+15
1.18521e+15
1.10472e+15
1.03687e+15
9.80652e+14
9.34403e+14
8.96513e+14
8.65499e+14
8.40056e+14
8.191e+14
8.0175e+14
7.87295e+14
7.75168e+14
7.64913e+14
7.56167e+14
7.48638e+14
7.4209e+14
7.36332e+14
7.31206e+14
7.2658e+14
7.22346e+14
7.18409e+14
7.14687e+14
7.11107e+14
7.07597e+14
7.04092e+14
7.00516e+14
6.96784e+14
6.92781e+14
6.88339e+14
6.83191e+14
6.76892e+14
6.68674e+14
6.57207e+14
6.40191e+14
6.13654e+14
5.71208e+14
5.02e+14
3.91929e+14
2.05648e+14
4.79969e+14
9.47527e+14
1.29708e+15
1.55153e+15
1.73513e+15
1.8685e+15
1.96525e+15
2.03415e+15
2.08083e+15
2.10898e+15
2.12101e+15
2.11836e+15
2.10127e+15
2.06989e+15
2.02215e+15
1.95822e+15
1.87418e+15
1.77343e+15
1.64969e+15
1.53831e+15
1.44413e+15
1.366e+15
1.30168e+15
1.24896e+15
1.20581e+15
1.17041e+15
1.14126e+15
1.11714e+15
1.09705e+15
1.0802e+15
1.06597e+15
1.05384e+15
1.04341e+15
1.03435e+15
1.02639e+15
1.01931e+15
1.01293e+15
1.00709e+15
1.00167e+15
9.96551e+14
9.91625e+14
9.86797e+14
9.81974e+14
9.77053e+14
9.71913e+14
9.66395e+14
9.60269e+14
9.53165e+14
9.4447e+14
9.33127e+14
9.173e+14
8.93815e+14
8.57172e+14
7.98414e+14
7.02142e+14
5.47247e+14
2.86748e+14
6.17517e+14
1.21518e+15
1.65883e+15
1.98042e+15
2.21229e+15
2.38092e+15
2.50348e+15
2.59084e+15
2.65006e+15
2.68579e+15
2.70106e+15
2.69766e+15
2.67594e+15
2.63582e+15
2.57521e+15
2.49355e+15
2.38697e+15
2.25846e+15
2.10325e+15
1.9624e+15
1.84275e+15
1.74325e+15
1.66124e+15
1.59398e+15
1.53889e+15
1.49368e+15
1.45645e+15
1.42564e+15
1.39999e+15
1.37848e+15
1.36032e+15
1.34485e+15
1.33155e+15
1.32e+15
1.30987e+15
1.30086e+15
1.29274e+15
1.28533e+15
1.27844e+15
1.27193e+15
1.26568e+15
1.25955e+15
1.25343e+15
1.24718e+15
1.24066e+15
1.23366e+15
1.22589e+15
1.21689e+15
1.20589e+15
1.19159e+15
1.17167e+15
1.14217e+15
1.09616e+15
1.0222e+15
9.00352e+14
7.01935e+14
3.68557e+14
7.59208e+14
1.48337e+15
2.01515e+15
2.39886e+15
2.67552e+15
2.87714e+15
3.02396e+15
3.12869e+15
3.19973e+15
3.24261e+15
3.26093e+15
3.25674e+15
3.23054e+15
3.18199e+15
3.10897e+15
3.01024e+15
2.88206e+15
2.7271e+15
2.54265e+15
2.37402e+15
2.23002e+15
2.10992e+15
2.01076e+15
1.92934e+15
1.86259e+15
1.80779e+15
1.76264e+15
1.72527e+15
1.69415e+15
1.66807e+15
1.64604e+15
1.62728e+15
1.61117e+15
1.59718e+15
1.5849e+15
1.574e+15
1.56418e+15
1.55521e+15
1.54688e+15
1.53902e+15
1.53147e+15
1.52406e+15
1.51667e+15
1.50912e+15
1.50124e+15
1.4928e+15
1.48344e+15
1.47262e+15
1.45944e+15
1.44236e+15
1.41868e+15
1.38372e+15
1.32928e+15
1.24163e+15
1.09643e+15
8.57078e+14
4.52905e+14
9.08661e+14
1.75394e+15
2.36576e+15
2.80525e+15
3.12243e+15
3.3542e+15
3.52331e+15
3.64407e+15
3.72602e+15
3.77551e+15
3.79662e+15
3.79164e+15
3.76113e+15
3.70455e+15
3.61968e+15
3.50474e+15
3.35612e+15
3.17634e+15
2.96498e+15
2.77043e+15
2.60342e+15
2.46366e+15
2.34802e+15
2.25292e+15
2.17488e+15
2.11076e+15
2.05791e+15
2.01414e+15
1.9777e+15
1.94715e+15
1.92135e+15
1.89939e+15
1.88052e+15
1.86415e+15
1.84978e+15
1.83702e+15
1.82554e+15
1.81506e+15
1.80533e+15
1.79614e+15
1.78732e+15
1.77867e+15
1.77004e+15
1.76123e+15
1.75204e+15
1.7422e+15
1.73131e+15
1.71876e+15
1.70355e+15
1.68393e+15
1.65688e+15
1.61714e+15
1.55544e+15
1.45602e+15
1.29052e+15
1.01437e+15
5.42483e+14
1.07119e+15
2.02939e+15
2.71065e+15
3.19825e+15
3.55108e+15
3.80968e+15
3.99874e+15
4.13396e+15
4.22582e+15
4.28132e+15
4.30494e+15
4.29916e+15
4.26457e+15
4.20044e+15
4.1044e+15
3.97426e+15
3.80653e+15
3.6038e+15
3.36788e+15
3.14941e+15
2.96089e+15
2.80254e+15
2.67121e+15
2.56302e+15
2.47413e+15
2.40102e+15
2.34072e+15
2.29077e+15
2.24917e+15
2.21428e+15
2.18482e+15
2.15975e+15
2.1382e+15
2.11951e+15
2.10312e+15
2.08857e+15
2.07547e+15
2.06352e+15
2.05243e+15
2.04196e+15
2.0319e+15
2.02205e+15
2.01222e+15
2.00219e+15
1.99174e+15
1.98055e+15
1.96821e+15
1.95405e+15
1.93696e+15
1.91507e+15
1.88509e+15
1.84133e+15
1.77369e+15
1.66483e+15
1.48297e+15
1.1759e+15
6.41148e+14
1.25481e+15
2.31264e+15
3.04982e+15
3.5766e+15
3.95959e+15
4.24131e+15
4.44781e+15
4.5958e+15
4.6965e+15
4.75739e+15
4.78327e+15
4.77671e+15
4.73832e+15
4.66717e+15
4.56076e+15
4.41655e+15
4.23123e+15
4.00756e+15
3.74942e+15
3.50911e+15
3.30066e+15
3.12493e+15
2.97879e+15
2.85818e+15
2.75893e+15
2.67723e+15
2.60979e+15
2.55389e+15
2.50731e+15
2.46825e+15
2.43526e+15
2.40718e+15
2.38306e+15
2.36213e+15
2.34378e+15
2.3275e+15
2.31285e+15
2.29947e+15
2.28707e+15
2.27536e+15
2.26412e+15
2.25311e+15
2.24212e+15
2.23092e+15
2.21926e+15
2.2068e+15
2.19309e+15
2.17743e+15
2.15864e+15
2.13475e+15
2.10233e+15
2.05537e+15
1.98327e+15
1.8676e+15
1.67412e+15
1.3441e+15
7.54578e+14
1.47169e+15
2.60676e+15
3.38295e+15
3.93899e+15
4.34603e+15
4.64693e+15
4.86829e+15
5.02738e+15
5.13586e+15
5.20157e+15
5.22947e+15
5.22222e+15
5.18037e+15
5.10281e+15
4.98692e+15
4.82989e+15
4.62861e+15
4.38609e+15
4.10806e+15
3.84799e+15
3.62131e+15
3.42947e+15
3.26949e+15
3.13719e+15
3.02815e+15
2.93828e+15
2.86403e+15
2.80245e+15
2.75112e+15
2.70806e+15
2.67169e+15
2.64073e+15
2.61413e+15
2.59106e+15
2.57083e+15
2.55289e+15
2.53674e+15
2.52201e+15
2.50835e+15
2.49546e+15
2.48308e+15
2.47096e+15
2.45887e+15
2.44655e+15
2.43374e+15
2.42007e+15
2.40509e+15
2.38803e+15
2.36773e+15
2.34214e+15
2.30776e+15
2.25848e+15
2.18344e+15
2.06381e+15
1.86417e+15
1.52147e+15
8.91323e+14
1.74079e+15
2.91424e+15
3.70899e+15
4.28363e+15
4.70838e+15
5.02453e+15
5.25824e+15
5.42685e+15
5.54217e+15
5.61218e+15
5.64195e+15
5.63413e+15
5.58922e+15
5.50594e+15
5.38152e+15
5.213e+15
4.99746e+15
4.73823e+15
4.44258e+15
4.16486e+15
3.92166e+15
3.71505e+15
3.54226e+15
3.39905e+15
3.28082e+15
3.18326e+15
3.10258e+15
3.03562e+15
2.97978e+15
2.93292e+15
2.89333e+15
2.85962e+15
2.83066e+15
2.80555e+15
2.78354e+15
2.764e+15
2.74644e+15
2.73042e+15
2.71556e+15
2.70154e+15
2.68808e+15
2.67491e+15
2.66177e+15
2.64839e+15
2.63448e+15
2.61969e+15
2.60351e+15
2.5852e+15
2.56356e+15
2.53657e+15
2.50072e+15
2.44996e+15
2.37354e+15
2.25285e+15
2.05288e+15
1.71018e+15
1.06452e+15
2.09078e+15
3.2348e+15
4.02522e+15
4.60795e+15
5.04448e+15
5.3723e+15
5.61614e+15
5.79286e+15
5.91417e+15
5.98805e+15
6.01959e+15
6.01139e+15
5.96385e+15
5.87557e+15
5.74365e+15
5.565e+15
5.33695e+15
5.06311e+15
4.75207e+15
4.45877e+15
4.20075e+15
3.98074e+15
3.79621e+15
3.64293e+15
3.51617e+15
3.41142e+15
3.32472e+15
3.2527e+15
3.1926e+15
3.14216e+15
3.09953e+15
3.06322e+15
3.03204e+15
3.00499e+15
2.98129e+15
2.96026e+15
2.94135e+15
2.9241e+15
2.90811e+15
2.89303e+15
2.87855e+15
2.86438e+15
2.85025e+15
2.83588e+15
2.82095e+15
2.8051e+15
2.78782e+15
2.76838e+15
2.74559e+15
2.71747e+15
2.68063e+15
2.62919e+15
2.55286e+15
2.4339e+15
2.23937e+15
1.9109e+15
1.2947e+15
1.18747e+15
9.34549e+14
7.5902e+14
6.28456e+14
5.25122e+14
4.38923e+14
3.63888e+14
2.96362e+14
2.34025e+14
1.75407e+14
1.75906e+15
1.52651e+15
1.32263e+15
1.14281e+15
9.81925e+14
8.35626e+14
7.00543e+14
5.74176e+14
4.54716e+14
3.4094e+14
2.07261e+15
1.85353e+15
1.64513e+15
1.4477e+15
1.26057e+15
1.08271e+15
9.13126e+14
7.50959e+14
5.95553e+14
4.4646e+14
2.2646e+15
2.05086e+15
1.84016e+15
1.6339e+15
1.43284e+15
1.23738e+15
1.04775e+15
8.64075e+14
6.8648e+14
5.15073e+14
2.38687e+15
2.1747e+15
1.96179e+15
1.74993e+15
1.54044e+15
1.33437e+15
1.13255e+15
9.35641e+14
7.4423e+14
5.58777e+14
2.46836e+15
2.25602e+15
2.04091e+15
1.82498e+15
1.60985e+15
1.39688e+15
1.18721e+15
9.81822e+14
7.81543e+14
5.87049e+14
2.52512e+15
2.31181e+15
2.09457e+15
1.87548e+15
1.65629e+15
1.43855e+15
1.22357e+15
1.01249e+15
8.06304e+14
6.05811e+14
2.56668e+15
2.35206e+15
2.13284e+15
1.91116e+15
1.68888e+15
1.46763e+15
1.24885e+15
1.03376e+15
8.23452e+14
6.188e+14
2.59869e+15
2.38264e+15
2.16159e+15
1.93772e+15
1.71296e+15
1.48901e+15
1.26735e+15
1.04928e+15
8.35944e+14
6.28259e+14
2.62456e+15
2.40707e+15
2.18433e+15
1.95856e+15
1.73174e+15
1.50558e+15
1.28164e+15
1.06123e+15
8.45545e+14
6.35528e+14
2.64637e+15
2.42748e+15
2.20318e+15
1.97572e+15
1.74711e+15
1.51909e+15
1.29324e+15
1.07092e+15
8.53318e+14
6.41412e+14
2.66543e+15
2.4452e+15
2.21945e+15
1.99046e+15
1.76025e+15
1.53061e+15
1.30311e+15
1.07914e+15
8.59908e+14
6.46402e+14
2.68262e+15
2.4611e+15
2.23399e+15
2.00359e+15
1.77193e+15
1.54081e+15
1.31184e+15
1.0864e+15
8.65724e+14
6.50807e+14
2.69855e+15
2.47579e+15
2.24738e+15
2.01564e+15
1.78263e+15
1.55015e+15
1.31981e+15
1.09303e+15
8.71035e+14
6.5483e+14
2.71367e+15
2.48971e+15
2.26005e+15
2.02703e+15
1.79272e+15
1.55894e+15
1.32732e+15
1.09927e+15
8.76032e+14
6.58617e+14
2.72838e+15
2.50322e+15
2.27233e+15
2.03806e+15
1.80249e+15
1.56745e+15
1.33458e+15
1.1053e+15
8.8086e+14
6.62277e+14
2.74299e+15
2.51664e+15
2.28452e+15
2.049e+15
1.81217e+15
1.57588e+15
1.34177e+15
1.11127e+15
8.8564e+14
6.65901e+14
2.75785e+15
2.53027e+15
2.2969e+15
2.0601e+15
1.82199e+15
1.58443e+15
1.34905e+15
1.11732e+15
8.90484e+14
6.69573e+14
2.77326e+15
2.54441e+15
2.30972e+15
2.07161e+15
1.83217e+15
1.59328e+15
1.3566e+15
1.12358e+15
8.95498e+14
6.73373e+14
2.78957e+15
2.55936e+15
2.32329e+15
2.08377e+15
1.84292e+15
1.60263e+15
1.36457e+15
1.1302e+15
9.00792e+14
6.77385e+14
2.80713e+15
2.57546e+15
2.3379e+15
2.09686e+15
1.85449e+15
1.6127e+15
1.37315e+15
1.13731e+15
9.06486e+14
6.81696e+14
2.82637e+15
2.5931e+15
2.35389e+15
2.11119e+15
1.86716e+15
1.62371e+15
1.38253e+15
1.1451e+15
9.12709e+14
6.86407e+14
2.84775e+15
2.61269e+15
2.37166e+15
2.12711e+15
1.88123e+15
1.63594e+15
1.39294e+15
1.15373e+15
9.19611e+14
6.91628e+14
2.87182e+15
2.63474e+15
2.39164e+15
2.14501e+15
1.89704e+15
1.64968e+15
1.40465e+15
1.16343e+15
9.27365e+14
6.9749e+14
2.89921e+15
2.65983e+15
2.41438e+15
2.16537e+15
1.91503e+15
1.66531e+15
1.41795e+15
1.17446e+15
9.3617e+14
7.04143e+14
2.93067e+15
2.68864e+15
2.44049e+15
2.18875e+15
1.93567e+15
1.68324e+15
1.43321e+15
1.1871e+15
9.46264e+14
7.11765e+14
2.96711e+15
2.722e+15
2.47071e+15
2.2158e+15
1.95955e+15
1.70398e+15
1.45086e+15
1.20172e+15
9.57928e+14
7.20568e+14
3.00958e+15
2.76088e+15
2.50591e+15
2.24731e+15
1.98736e+15
1.72813e+15
1.47139e+15
1.21872e+15
9.71496e+14
7.30803e+14
3.05937e+15
2.80643e+15
2.54716e+15
2.2842e+15
2.01992e+15
1.75639e+15
1.49543e+15
1.23862e+15
9.87365e+14
7.42768e+14
3.11798e+15
2.86003e+15
2.59567e+15
2.32759e+15
2.0582e+15
1.78961e+15
1.52367e+15
1.26199e+15
1.006e+15
7.56815e+14
3.18716e+15
2.92329e+15
2.6529e+15
2.37877e+15
2.10334e+15
1.82877e+15
1.55696e+15
1.28954e+15
1.02796e+15
7.73359e+14
3.26897e+15
2.99806e+15
2.72053e+15
2.43923e+15
2.15665e+15
1.87502e+15
1.59626e+15
1.32206e+15
1.05387e+15
7.9288e+14
3.3657e+15
3.08645e+15
2.80046e+15
2.51066e+15
2.21964e+15
1.92965e+15
1.64268e+15
1.36046e+15
1.08447e+15
8.15923e+14
3.47985e+15
3.19072e+15
2.89474e+15
2.59492e+15
2.29392e+15
1.99408e+15
1.69743e+15
1.40574e+15
1.12055e+15
8.43089e+14
3.6139e+15
3.31317e+15
3.00546e+15
2.69387e+15
2.38117e+15
2.06976e+15
1.76174e+15
1.45893e+15
1.16294e+15
8.75003e+14
3.76998e+15
3.45577e+15
3.13443e+15
2.80918e+15
2.48288e+15
2.15801e+15
1.83675e+15
1.521e+15
1.2124e+15
9.12245e+14
3.94914e+15
3.61953e+15
3.28263e+15
2.94178e+15
2.59992e+15
2.25965e+15
1.92321e+15
1.59257e+15
1.26945e+15
9.55214e+14
4.15021e+15
3.80347e+15
3.44929e+15
3.0911e+15
2.73194e+15
2.37446e+15
2.02102e+15
1.67366e+15
1.33416e+15
1.00398e+15
4.3678e+15
4.00274e+15
3.63012e+15
3.25344e+15
2.87582e+15
2.49997e+15
2.1283e+15
1.76289e+15
1.40559e+15
1.05791e+15
4.58645e+15
4.20282e+15
3.8117e+15
3.41667e+15
3.02086e+15
2.62698e+15
2.23742e+15
1.85425e+15
1.4793e+15
1.11388e+15
4.76506e+15
4.36418e+15
3.95618e+15
3.54465e+15
3.13273e+15
2.72314e+15
2.3183e+15
1.92032e+15
1.53115e+15
1.15239e+15
4.90124e+15
4.48595e+15
4.06422e+15
3.63964e+15
3.21534e+15
2.79398e+15
2.37795e+15
1.9693e+15
1.56996e+15
1.18149e+15
4.99575e+15
4.56926e+15
4.13717e+15
3.70302e+15
3.26987e+15
2.84035e+15
2.41676e+15
2.00109e+15
1.59513e+15
1.20038e+15
5.05382e+15
4.61954e+15
4.18053e+15
3.74024e+15
3.30161e+15
2.86716e+15
2.43907e+15
2.01927e+15
1.60947e+15
1.21111e+15
5.08089e+15
4.64199e+15
4.19911e+15
3.75563e+15
3.31435e+15
2.87767e+15
2.44765e+15
2.02615e+15
1.61483e+15
1.2151e+15
5.08145e+15
4.6408e+15
4.19676e+15
3.75263e+15
3.31107e+15
2.87437e+15
2.44455e+15
2.0234e+15
1.61252e+15
1.21332e+15
5.05733e+15
4.61752e+15
4.17478e+15
3.73225e+15
3.29254e+15
2.85789e+15
2.43026e+15
2.01138e+15
1.60282e+15
1.20598e+15
5.00765e+15
4.57105e+15
4.13189e+15
3.69321e+15
3.25757e+15
2.82714e+15
2.40382e+15
1.98931e+15
1.58511e+15
1.19261e+15
4.92914e+15
4.49806e+15
4.06486e+15
3.63247e+15
3.20336e+15
2.77961e+15
2.36306e+15
1.95534e+15
1.5579e+15
1.1721e+15
4.81662e+15
4.39345e+15
3.96876e+15
3.54536e+15
3.12558e+15
2.71142e+15
2.30459e+15
1.90663e+15
1.5189e+15
1.1427e+15
4.66279e+15
4.24993e+15
3.8365e+15
3.42514e+15
3.01802e+15
2.61695e+15
2.2235e+15
1.83902e+15
1.46475e+15
1.10186e+15
4.45767e+15
4.05739e+15
3.65811e+15
3.26226e+15
2.87177e+15
2.48815e+15
2.1127e+15
1.74652e+15
1.3906e+15
1.04591e+15
4.18741e+15
3.80139e+15
3.41913e+15
3.04274e+15
2.67371e+15
2.31311e+15
1.96173e+15
1.62027e+15
1.28928e+15
9.69405e+14
3.83219e+15
3.46064e+15
3.0979e+15
2.74552e+15
2.40418e+15
2.07405e+15
1.75509e+15
1.44719e+15
1.15028e+15
8.64395e+14
3.36123e+15
3.00095e+15
2.65962e+15
2.33732e+15
2.03274e+15
1.74415e+15
1.46984e+15
1.20837e+15
9.58549e+14
7.19589e+14
2.72008e+15
2.36076e+15
2.04453e+15
1.76468e+15
1.51384e+15
1.28579e+15
1.07566e+15
8.79864e+14
6.95767e+14
5.21546e+14
1.768e+15
1.39887e+15
1.13938e+15
9.44103e+14
7.88181e+14
6.5747e+14
5.43589e+14
4.41407e+14
3.47643e+14
2.60219e+14
3.37612e+15
3.90179e+15
4.58651e+15
5.47087e+15
6.61327e+15
8.10061e+15
1.00676e+16
1.27374e+16
1.65178e+16
2.22792e+16
3.24722e+16
3.79647e+15
4.38707e+15
5.15684e+15
6.15087e+15
7.43462e+15
9.10542e+15
1.13139e+16
1.43085e+16
1.8541e+16
2.49612e+16
3.60975e+16
4.30552e+15
4.97455e+15
5.84709e+15
6.97336e+15
8.42704e+15
1.03174e+16
1.28129e+16
1.61893e+16
2.09406e+16
2.80725e+16
4.00103e+16
4.93307e+15
5.69907e+15
6.69809e+15
7.9865e+15
9.64763e+15
1.18044e+16
1.46447e+16
1.84718e+16
2.3815e+16
3.16937e+16
4.42537e+16
5.60978e+15
6.48131e+15
7.61654e+15
9.07857e+15
1.09604e+16
1.3398e+16
1.65966e+16
2.08806e+16
2.67961e+16
3.53233e+16
4.82445e+16
6.26265e+15
7.23706e+15
8.50352e+15
1.01317e+16
1.22231e+16
1.49248e+16
1.84548e+16
2.315e+16
2.95549e+16
3.85789e+16
5.16649e+16
6.88793e+15
7.96185e+15
9.35377e+15
1.11396e+16
1.34282e+16
1.63754e+16
2.02082e+16
2.52683e+16
3.2085e+16
4.1482e+16
5.4615e+16
7.483e+15
8.65241e+15
1.01634e+16
1.20976e+16
1.45702e+16
1.77434e+16
2.18498e+16
2.72293e+16
3.43871e+16
4.4058e+16
5.7166e+16
8.04546e+15
9.30575e+15
1.09289e+16
1.30015e+16
1.56441e+16
1.90234e+16
2.3374e+16
2.90295e+16
3.64653e+16
4.63307e+16
5.9368e+16
8.57834e+15
9.92516e+15
1.1654e+16
1.3856e+16
1.66555e+16
2.02225e+16
2.47906e+16
3.06833e+16
3.83431e+16
4.83407e+16
6.12759e+16
9.10466e+15
1.05373e+16
1.23698e+16
1.46974e+16
1.76476e+16
2.13918e+16
2.61604e+16
3.22633e+16
4.01075e+16
5.0189e+16
6.29924e+16
9.64689e+15
1.1168e+16
1.31065e+16
1.55608e+16
1.86609e+16
2.25777e+16
2.75361e+16
3.38284e+16
4.18224e+16
5.19418e+16
6.45741e+16
1.02134e+16
1.18271e+16
1.38747e+16
1.64577e+16
1.97071e+16
2.37917e+16
2.89272e+16
3.53841e+16
4.34872e+16
5.35898e+16
6.5996e+16
1.07513e+16
1.24528e+16
1.4602e+16
1.73021e+16
2.06838e+16
2.49112e+16
3.01881e+16
3.67606e+16
4.49104e+16
5.49276e+16
6.70501e+16
1.11891e+16
1.29618e+16
1.51913e+16
1.7981e+16
2.14597e+16
2.57854e+16
3.1149e+16
3.77727e+16
4.59005e+16
5.57714e+16
6.75736e+16
1.15049e+16
1.33288e+16
1.56133e+16
1.84613e+16
2.19985e+16
2.63762e+16
3.17723e+16
3.83879e+16
4.64353e+16
5.61136e+16
6.75734e+16
1.1697e+16
1.35517e+16
1.58664e+16
1.87422e+16
2.23011e+16
2.66873e+16
3.2067e+16
3.86227e+16
4.65409e+16
5.59895e+16
6.7089e+16
1.1765e+16
1.36303e+16
1.59505e+16
1.88245e+16
2.237e+16
2.67243e+16
3.20429e+16
3.84931e+16
4.62407e+16
5.54293e+16
6.61547e+16
1.17089e+16
1.35649e+16
1.58667e+16
1.87102e+16
2.22088e+16
2.64932e+16
3.17099e+16
3.80137e+16
4.55551e+16
5.44593e+16
6.48021e+16
1.15304e+16
1.33576e+16
1.56177e+16
1.84032e+16
2.1823e+16
2.6002e+16
3.10788e+16
3.71994e+16
4.45035e+16
5.31039e+16
6.30608e+16
1.12318e+16
1.30114e+16
1.52072e+16
1.79083e+16
2.12189e+16
2.52585e+16
3.01598e+16
3.60627e+16
4.31013e+16
5.13821e+16
6.09547e+16
1.08165e+16
1.25303e+16
1.46403e+16
1.72317e+16
2.0404e+16
2.42718e+16
2.89634e+16
3.46156e+16
4.13621e+16
4.93101e+16
5.85057e+16
1.02899e+16
1.19206e+16
1.39244e+16
1.63821e+16
1.93886e+16
2.30538e+16
2.75027e+16
3.2872e+16
3.93002e+16
4.6904e+16
5.57354e+16
9.70002e+15
1.1238e+16
1.31246e+16
1.54364e+16
1.82636e+16
2.17119e+16
2.59038e+16
3.09781e+16
3.70828e+16
4.43533e+16
5.28607e+16
9.12505e+15
1.05728e+16
1.23464e+16
1.45181e+16
1.7174e+16
2.0416e+16
2.43646e+16
2.91614e+16
3.49661e+16
4.19387e+16
5.01817e+16
8.58138e+15
9.94408e+15
1.16114e+16
1.36519e+16
1.61478e+16
1.91972e+16
2.29189e+16
2.7457e+16
3.29835e+16
3.96863e+16
4.77107e+16
8.05316e+15
9.33328e+15
1.08977e+16
1.28116e+16
1.51531e+16
1.80167e+16
2.1519e+16
2.58063e+16
3.10627e+16
3.75071e+16
4.53396e+16
7.51385e+15
8.70973e+15
1.01694e+16
1.19546e+16
1.41391e+16
1.68137e+16
2.0092e+16
2.41218e+16
2.90988e+16
3.52769e+16
4.29265e+16
6.94732e+15
8.05469e+15
9.40462e+15
1.10549e+16
1.30751e+16
1.55512e+16
1.85933e+16
2.23493e+16
2.70258e+16
3.29144e+16
4.03774e+16
6.35499e+15
7.36976e+15
8.60501e+15
1.01146e+16
1.19632e+16
1.42315e+16
1.7025e+16
2.04896e+16
2.48406e+16
3.04089e+16
3.76711e+16
5.7386e+15
6.65685e+15
7.77282e+15
9.13614e+15
1.08062e+16
1.28577e+16
1.539e+16
1.85449e+16
2.2542e+16
2.77488e+16
3.47792e+16
5.10143e+15
5.91964e+15
6.91226e+15
8.12447e+15
9.60991e+15
1.14364e+16
1.36958e+16
1.65226e+16
2.01346e+16
2.49275e+16
3.16681e+16
4.44615e+15
5.16104e+15
6.02667e+15
7.08347e+15
8.3788e+15
9.97292e+15
1.19483e+16
1.44289e+16
1.76226e+16
2.19363e+16
2.82854e+16
3.78589e+15
4.39604e+15
5.13353e+15
6.03369e+15
7.13722e+15
8.49608e+15
1.01821e+16
1.23048e+16
1.50532e+16
1.88183e+16
2.46131e+16
3.24971e+15
3.77403e+15
4.40725e+15
5.18009e+15
6.1276e+15
7.29459e+15
8.74324e+15
1.05688e+16
1.29372e+16
1.61993e+16
2.13381e+16
1.50872e+15
1.64662e+15
1.81295e+15
1.97439e+15
2.1279e+15
2.27318e+15
2.40983e+15
2.53782e+15
2.65719e+15
2.77175e+15
2.88713e+15
3.00614e+15
3.1245e+15
3.22593e+15
3.30176e+15
3.35179e+15
3.37606e+15
3.37466e+15
3.3477e+15
3.29543e+15
3.218e+15
3.11571e+15
2.99321e+15
2.8658e+15
2.74441e+15
2.62666e+15
2.50723e+15
2.38071e+15
2.24609e+15
2.10358e+15
1.95341e+15
1.79607e+15
1.64832e+15
1.52715e+15
1.42616e+15
2.05143e+15
2.14421e+15
2.26002e+15
2.37583e+15
2.48873e+15
2.59781e+15
2.70219e+15
2.80135e+15
2.89492e+15
2.98556e+15
3.07757e+15
3.17307e+15
3.26845e+15
3.35018e+15
3.41082e+15
3.44992e+15
3.46733e+15
3.46304e+15
3.43718e+15
3.39002e+15
3.32191e+15
3.23338e+15
3.1288e+15
3.02142e+15
2.92031e+15
2.82337e+15
2.72624e+15
2.62471e+15
2.51838e+15
2.40786e+15
2.29389e+15
2.17747e+15
2.07137e+15
1.98674e+15
1.91794e+15
2.36155e+15
2.44106e+15
2.53867e+15
2.63516e+15
2.72855e+15
2.8184e+15
2.90415e+15
2.98552e+15
3.06225e+15
3.13658e+15
3.21203e+15
3.29034e+15
3.36847e+15
3.43519e+15
3.48431e+15
3.51534e+15
3.5281e+15
3.52256e+15
3.49881e+15
3.45714e+15
3.39791e+15
3.32168e+15
3.23229e+15
3.14106e+15
3.05555e+15
2.97385e+15
2.89222e+15
2.8071e+15
2.7181e+15
2.62565e+15
2.5302e+15
2.43238e+15
2.34263e+15
2.2704e+15
2.2111e+15
2.54906e+15
2.62334e+15
2.71335e+15
2.80132e+15
2.88562e+15
2.96602e+15
3.0422e+15
3.11405e+15
3.18144e+15
3.24642e+15
3.3121e+15
3.37996e+15
3.44732e+15
3.50448e+15
3.54617e+15
3.57204e+15
3.58196e+15
3.57592e+15
3.55403e+15
3.51651e+15
3.46369e+15
3.39598e+15
3.31677e+15
3.23595e+15
3.16014e+15
3.08761e+15
3.01498e+15
2.93904e+15
2.85932e+15
2.77611e+15
2.68968e+15
2.60042e+15
2.51777e+15
2.45068e+15
2.39516e+15
2.66521e+15
2.73732e+15
2.82405e+15
2.90817e+15
2.98821e+15
3.06406e+15
3.1355e+15
3.2025e+15
3.26502e+15
3.32502e+15
3.38539e+15
3.44746e+15
3.50874e+15
3.56043e+15
3.59785e+15
3.62078e+15
3.62918e+15
3.62306e+15
3.60253e+15
3.56779e+15
3.51908e+15
3.45672e+15
3.3837e+15
3.30905e+15
3.23886e+15
3.1715e+15
3.10384e+15
3.03283e+15
2.95798e+15
2.87946e+15
2.79747e+15
2.71227e+15
2.63287e+15
2.56804e+15
2.51415e+15
2.7406e+15
2.81192e+15
2.89734e+15
2.97983e+15
3.058e+15
3.13178e+15
3.201e+15
3.26567e+15
3.32582e+15
3.38336e+15
3.44105e+15
3.50017e+15
3.55833e+15
3.60717e+15
3.64239e+15
3.66385e+15
3.67156e+15
3.66557e+15
3.64598e+15
3.61297e+15
3.56672e+15
3.50748e+15
3.43798e+15
3.36677e+15
3.29964e+15
3.23504e+15
3.16999e+15
3.10151e+15
3.02909e+15
2.95287e+15
2.87298e+15
2.78964e+15
2.71164e+15
2.64774e+15
2.59447e+15
2.79199e+15
2.86318e+15
2.94825e+15
3.03022e+15
3.10771e+15
3.18069e+15
3.24901e+15
3.31271e+15
3.37183e+15
3.42829e+15
3.48479e+15
3.54257e+15
3.59929e+15
3.64684e+15
3.68108e+15
3.70192e+15
3.70942e+15
3.70364e+15
3.68469e+15
3.65272e+15
3.60788e+15
3.55036e+15
3.48276e+15
3.41335e+15
3.34778e+15
3.28457e+15
3.22079e+15
3.15351e+15
3.08222e+15
3.00702e+15
2.928e+15
2.84538e+15
2.76785e+15
2.70422e+15
2.65108e+15
2.82922e+15
2.9006e+15
2.9858e+15
3.06779e+15
3.14522e+15
3.21805e+15
3.28616e+15
3.34959e+15
3.4084e+15
3.46451e+15
3.52061e+15
3.57792e+15
3.63414e+15
3.68125e+15
3.71516e+15
3.73585e+15
3.74338e+15
3.73784e+15
3.71931e+15
3.68795e+15
3.64388e+15
3.58724e+15
3.52059e+15
3.45203e+15
3.38718e+15
3.32458e+15
3.26133e+15
3.19453e+15
3.12365e+15
3.04877e+15
2.96999e+15
2.88749e+15
2.80997e+15
2.74626e+15
2.69301e+15
2.85791e+15
2.92964e+15
3.0152e+15
3.0975e+15
3.17516e+15
3.24817e+15
3.31641e+15
3.37993e+15
3.43881e+15
3.49494e+15
3.55105e+15
3.60836e+15
3.66457e+15
3.71166e+15
3.74561e+15
3.76638e+15
3.77405e+15
3.76872e+15
3.75047e+15
3.71945e+15
3.67576e+15
3.61953e+15
3.55327e+15
3.48503e+15
3.42042e+15
3.358e+15
3.29488e+15
3.22816e+15
3.15731e+15
3.08239e+15
3.0035e+15
2.92082e+15
2.84306e+15
2.77911e+15
2.72563e+15
2.88136e+15
2.9535e+15
3.03952e+15
3.12224e+15
3.20029e+15
3.27363e+15
3.34218e+15
3.40597e+15
3.46508e+15
3.52144e+15
3.57776e+15
3.63529e+15
3.69172e+15
3.73902e+15
3.77317e+15
3.79412e+15
3.80198e+15
3.79683e+15
3.77876e+15
3.74791e+15
3.70437e+15
3.64827e+15
3.58209e+15
3.51389e+15
3.44925e+15
3.38677e+15
3.32356e+15
3.25671e+15
3.18568e+15
3.11055e+15
3.03138e+15
2.94836e+15
2.87024e+15
2.80597e+15
2.75221e+15
2.90148e+15
2.97405e+15
3.06057e+15
3.14376e+15
3.22225e+15
3.29601e+15
3.36493e+15
3.42907e+15
3.4885e+15
3.54517e+15
3.6018e+15
3.65965e+15
3.71641e+15
3.76402e+15
3.79843e+15
3.81961e+15
3.82766e+15
3.82266e+15
3.8047e+15
3.77391e+15
3.7304e+15
3.67427e+15
3.608e+15
3.53965e+15
3.47486e+15
3.4122e+15
3.34878e+15
3.28169e+15
3.21038e+15
3.13493e+15
3.05539e+15
2.97197e+15
2.89344e+15
2.82883e+15
2.77476e+15
2.91943e+15
2.99242e+15
3.07945e+15
3.16313e+15
3.24208e+15
3.31627e+15
3.38559e+15
3.45011e+15
3.5099e+15
3.56691e+15
3.62389e+15
3.68211e+15
3.73924e+15
3.7872e+15
3.82189e+15
3.84331e+15
3.85152e+15
3.84664e+15
3.82875e+15
3.79797e+15
3.7544e+15
3.69814e+15
3.63168e+15
3.56311e+15
3.49808e+15
3.43518e+15
3.3715e+15
3.30411e+15
3.23248e+15
3.15665e+15
3.07672e+15
2.99286e+15
2.91391e+15
2.84894e+15
2.79456e+15
2.93593e+15
3.00934e+15
3.09688e+15
3.18104e+15
3.26045e+15
3.33507e+15
3.40481e+15
3.46971e+15
3.52987e+15
3.58722e+15
3.64456e+15
3.70316e+15
3.76068e+15
3.80898e+15
3.84397e+15
3.8656e+15
3.87398e+15
3.86919e+15
3.85133e+15
3.82052e+15
3.77684e+15
3.72041e+15
3.65371e+15
3.58487e+15
3.51956e+15
3.45638e+15
3.3924e+15
3.3247e+15
3.25271e+15
3.17651e+15
3.09617e+15
3.01186e+15
2.93249e+15
2.86715e+15
2.81248e+15
2.9515e+15
3.02532e+15
3.11334e+15
3.19798e+15
3.27785e+15
3.3529e+15
3.42304e+15
3.48833e+15
3.54884e+15
3.60655e+15
3.66424e+15
3.72321e+15
3.78112e+15
3.82977e+15
3.86503e+15
3.88688e+15
3.8954e+15
3.89069e+15
3.87283e+15
3.84196e+15
3.79815e+15
3.74151e+15
3.67454e+15
3.6054e+15
3.5398e+15
3.47632e+15
3.41204e+15
3.34401e+15
3.27166e+15
3.19507e+15
3.11431e+15
3.02957e+15
2.94977e+15
2.88409e+15
2.82911e+15
2.9665e+15
3.04072e+15
3.12923e+15
3.21434e+15
3.29465e+15
3.37013e+15
3.44067e+15
3.50634e+15
3.56721e+15
3.62526e+15
3.6833e+15
3.74264e+15
3.80093e+15
3.84992e+15
3.88545e+15
3.9075e+15
3.91615e+15
3.9115e+15
3.89364e+15
3.86268e+15
3.81872e+15
3.76186e+15
3.6946e+15
3.62515e+15
3.55924e+15
3.49546e+15
3.43087e+15
3.3625e+15
3.28979e+15
3.21281e+15
3.13163e+15
3.04645e+15
2.96623e+15
2.9002e+15
2.84493e+15
2.98125e+15
3.05587e+15
3.14486e+15
3.23044e+15
3.31119e+15
3.38709e+15
3.45803e+15
3.52408e+15
3.5853e+15
3.6437e+15
3.70209e+15
3.7618e+15
3.82046e+15
3.86978e+15
3.90557e+15
3.92782e+15
3.93659e+15
3.932e+15
3.91411e+15
3.88306e+15
3.83893e+15
3.78183e+15
3.71428e+15
3.6445e+15
3.57828e+15
3.51419e+15
3.44928e+15
3.38056e+15
3.30749e+15
3.23012e+15
3.14853e+15
3.0629e+15
2.98226e+15
2.91588e+15
2.86033e+15
2.99604e+15
3.07107e+15
3.16054e+15
3.24658e+15
3.32779e+15
3.40411e+15
3.47546e+15
3.54189e+15
3.60347e+15
3.66221e+15
3.72096e+15
3.78103e+15
3.84006e+15
3.88972e+15
3.92577e+15
3.9482e+15
3.9571e+15
3.95255e+15
3.93463e+15
3.90348e+15
3.85917e+15
3.80182e+15
3.73395e+15
3.66384e+15
3.5973e+15
3.53289e+15
3.46765e+15
3.39859e+15
3.32514e+15
3.24737e+15
3.16535e+15
3.07928e+15
2.99822e+15
2.93149e+15
2.87564e+15
3.01117e+15
3.0866e+15
3.17657e+15
3.26309e+15
3.34476e+15
3.42152e+15
3.49328e+15
3.56009e+15
3.62204e+15
3.68114e+15
3.74024e+15
3.8007e+15
3.86011e+15
3.9101e+15
3.94642e+15
3.96905e+15
3.97806e+15
3.97354e+15
3.95559e+15
3.92433e+15
3.87983e+15
3.82222e+15
3.75402e+15
3.68357e+15
3.61668e+15
3.55194e+15
3.48637e+15
3.41695e+15
3.34311e+15
3.26493e+15
3.18248e+15
3.09594e+15
3.01445e+15
2.94736e+15
2.89121e+15
3.02691e+15
3.10278e+15
3.19326e+15
3.28029e+15
3.36243e+15
3.43965e+15
3.51185e+15
3.57907e+15
3.64139e+15
3.70086e+15
3.76034e+15
3.82119e+15
3.881e+15
3.93134e+15
3.96794e+15
3.99076e+15
3.99988e+15
3.99541e+15
3.97742e+15
3.94603e+15
3.90134e+15
3.84345e+15
3.7749e+15
3.70408e+15
3.63684e+15
3.57175e+15
3.50582e+15
3.43602e+15
3.36178e+15
3.28316e+15
3.20026e+15
3.11324e+15
3.03129e+15
2.96383e+15
2.90737e+15
3.04361e+15
3.11993e+15
3.21097e+15
3.29853e+15
3.38118e+15
3.45889e+15
3.53154e+15
3.59919e+15
3.66193e+15
3.72178e+15
3.78167e+15
3.84293e+15
3.90316e+15
3.95388e+15
3.99076e+15
4.01379e+15
4.02304e+15
4.0186e+15
4.00056e+15
3.96904e+15
3.92413e+15
3.86594e+15
3.79703e+15
3.72581e+15
3.65819e+15
3.59273e+15
3.52642e+15
3.45622e+15
3.38155e+15
3.30247e+15
3.21908e+15
3.13155e+15
3.04912e+15
2.98127e+15
2.92447e+15
3.06163e+15
3.13844e+15
3.23007e+15
3.31822e+15
3.40142e+15
3.47965e+15
3.55279e+15
3.62092e+15
3.68409e+15
3.74437e+15
3.80468e+15
3.8664e+15
3.92708e+15
3.9782e+15
4.0154e+15
4.03865e+15
4.04803e+15
4.04363e+15
4.02554e+15
3.99388e+15
3.94873e+15
3.89022e+15
3.8209e+15
3.74925e+15
3.68122e+15
3.61536e+15
3.54864e+15
3.478e+15
3.40286e+15
3.32329e+15
3.23937e+15
3.15129e+15
3.06834e+15
3.00005e+15
2.94289e+15
3.08138e+15
3.15874e+15
3.25102e+15
3.3398e+15
3.42361e+15
3.50241e+15
3.5761e+15
3.64474e+15
3.70839e+15
3.76914e+15
3.82993e+15
3.89214e+15
3.95333e+15
4.00489e+15
4.04243e+15
4.06592e+15
4.07544e+15
4.07109e+15
4.05294e+15
4.02112e+15
3.97571e+15
3.91683e+15
3.84707e+15
3.77495e+15
3.70647e+15
3.64017e+15
3.57299e+15
3.50187e+15
3.42621e+15
3.3461e+15
3.2616e+15
3.17291e+15
3.08939e+15
3.02062e+15
2.96307e+15
3.10335e+15
3.18131e+15
3.27433e+15
3.36381e+15
3.4483e+15
3.52775e+15
3.60204e+15
3.67125e+15
3.73544e+15
3.79671e+15
3.85803e+15
3.92079e+15
3.98254e+15
4.03459e+15
4.07251e+15
4.09627e+15
4.10595e+15
4.10164e+15
4.08343e+15
4.05142e+15
4.00573e+15
3.94645e+15
3.87619e+15
3.80354e+15
3.73455e+15
3.66775e+15
3.60008e+15
3.52842e+15
3.45218e+15
3.37146e+15
3.28631e+15
3.19695e+15
3.11278e+15
3.04349e+15
2.9855e+15
3.12812e+15
3.20676e+15
3.3006e+15
3.39089e+15
3.47613e+15
3.55631e+15
3.63129e+15
3.70115e+15
3.76595e+15
3.8278e+15
3.88972e+15
3.9531e+15
4.01547e+15
4.06808e+15
4.10643e+15
4.13049e+15
4.14035e+15
4.13609e+15
4.1178e+15
4.08559e+15
4.03956e+15
3.97982e+15
3.90899e+15
3.83575e+15
3.76619e+15
3.69883e+15
3.63058e+15
3.55831e+15
3.48143e+15
3.40002e+15
3.31414e+15
3.22401e+15
3.13912e+15
3.06924e+15
3.01075e+15
3.15638e+15
3.2358e+15
3.33058e+15
3.42178e+15
3.5079e+15
3.5889e+15
3.66467e+15
3.73526e+15
3.80075e+15
3.86327e+15
3.92587e+15
3.98996e+15
4.05305e+15
4.10628e+15
4.14512e+15
4.16953e+15
4.17959e+15
4.17538e+15
4.15699e+15
4.12454e+15
4.07813e+15
4.01785e+15
3.94638e+15
3.87246e+15
3.80224e+15
3.73423e+15
3.66533e+15
3.59237e+15
3.51474e+15
3.43254e+15
3.34583e+15
3.25482e+15
3.16911e+15
3.09855e+15
3.03949e+15
3.18896e+15
3.26928e+15
3.36514e+15
3.4574e+15
3.54452e+15
3.62648e+15
3.70315e+15
3.77459e+15
3.84088e+15
3.90417e+15
3.96755e+15
4.03245e+15
4.09637e+15
4.15032e+15
4.18971e+15
4.2145e+15
4.22478e+15
4.22063e+15
4.20212e+15
4.16939e+15
4.12252e+15
4.06163e+15
3.9894e+15
3.91468e+15
3.8437e+15
3.77495e+15
3.70529e+15
3.63152e+15
3.55304e+15
3.46992e+15
3.38226e+15
3.29023e+15
3.20357e+15
3.13222e+15
3.07251e+15
3.22689e+15
3.30826e+15
3.40538e+15
3.49886e+15
3.58715e+15
3.67021e+15
3.74793e+15
3.82036e+15
3.88757e+15
3.95175e+15
4.01603e+15