/*--------------------------------*- C++ -*----------------------------------*\
| =========                 |                                                 |
| \\      /  F ield         | OpenFOAM: The Open Source CFD Toolbox           |
|  \\    /   O peration     | Version:  2406                                  |
|   \\  /    A nd           | Website:  www.openfoam.com                      |
|    \\/     M anipulation  |                                                 |
\*---------------------------------------------------------------------------*/
FoamFile
{
    version     2.0;
    format      ascii;
    arch        "LSB;label=32;scalar=64";
    class       volScalarField;
    location    "0/neutroRegion";
    object      flux0;
}
// * * * * * * * * * * * * * * * * * * * * * * * * * * * * * * * * * * * * * //

dimensions      [0 -2 -1 0 0 0 0];

internalField   nonuniform List<scalar> 
8595
(
8.19221e+13
1.26919e+14
1.63926e+14
1.93176e+14
2.15811e+14
2.33187e+14
2.46369e+14
2.56127e+14
2.63018e+14
2.67434e+14
2.69656e+14
2.6987e+14
2.68164e+14
2.6462e+14
2.59108e+14
2.51758e+14
2.42321e+14
2.31224e+14
2.18165e+14
2.05909e+14
1.9502e+14
1.85545e+14
1.77392e+14
1.70431e+14
1.64518e+14
1.59507e+14
1.55264e+14
1.51672e+14
1.48625e+14
1.46034e+14
1.43824e+14
1.41928e+14
1.40293e+14
1.38871e+14
1.37624e+14
1.36517e+14
1.35522e+14
1.34615e+14
1.33772e+14
1.32973e+14
1.322e+14
1.31433e+14
1.3065e+14
1.29829e+14
1.2894e+14
1.27946e+14
1.26797e+14
1.25418e+14
1.23705e+14
1.21496e+14
1.1855e+14
1.14499e+14
1.08786e+14
1.00611e+14
8.88031e+13
7.20498e+13
4.76368e+13
9.92944e+13
1.53742e+14
1.98357e+14
2.33535e+14
2.60742e+14
2.81636e+14
2.97492e+14
3.09238e+14
3.17535e+14
3.22855e+14
3.25532e+14
3.25792e+14
3.23738e+14
3.1945e+14
3.12817e+14
3.03931e+14
2.92567e+14
2.79163e+14
2.63456e+14
2.48696e+14
2.3557e+14
2.24143e+14
2.14309e+14
2.05912e+14
1.98777e+14
1.92732e+14
1.87614e+14
1.83282e+14
1.79608e+14
1.76485e+14
1.73822e+14
1.71539e+14
1.6957e+14
1.67859e+14
1.66359e+14
1.65029e+14
1.63834e+14
1.62744e+14
1.61733e+14
1.60775e+14
1.59848e+14
1.58927e+14
1.57988e+14
1.57002e+14
1.55936e+14
1.54742e+14
1.53361e+14
1.51706e+14
1.49648e+14
1.46997e+14
1.43463e+14
1.38607e+14
1.3176e+14
1.21956e+14
1.07755e+14
8.74639e+13
5.78556e+13
1.17588e+14
1.81603e+14
2.33702e+14
2.74639e+14
3.0628e+14
3.30602e+14
3.49086e+14
3.62792e+14
3.72479e+14
3.78693e+14
3.81822e+14
3.82122e+14
3.79718e+14
3.74682e+14
3.66924e+14
3.56493e+14
3.43202e+14
3.27471e+14
3.09188e+14
2.91945e+14
2.7658e+14
2.63189e+14
2.51657e+14
2.41807e+14
2.33436e+14
2.26343e+14
2.20337e+14
2.15253e+14
2.10942e+14
2.07279e+14
2.04155e+14
2.01478e+14
1.9917e+14
1.97166e+14
1.95409e+14
1.93851e+14
1.92453e+14
1.91179e+14
1.89996e+14
1.88876e+14
1.87792e+14
1.86716e+14
1.85619e+14
1.84467e+14
1.8322e+14
1.81826e+14
1.80213e+14
1.78282e+14
1.75885e+14
1.72802e+14
1.687e+14
1.63074e+14
1.55151e+14
1.438e+14
1.27303e+14
1.03528e+14
6.86568e+13
1.36907e+14
2.10392e+14
2.69639e+14
3.16024e+14
3.5188e+14
3.79488e+14
4.00505e+14
4.16106e+14
4.27142e+14
4.34226e+14
4.37793e+14
4.3813e+14
4.35378e+14
4.29604e+14
4.2073e+14
4.08773e+14
3.93581e+14
3.75565e+14
3.54794e+14
3.3513e+14
3.17559e+14
3.02221e+14
2.89e+14
2.77699e+14
2.68091e+14
2.59946e+14
2.53049e+14
2.4721e+14
2.42259e+14
2.38052e+14
2.34465e+14
2.31391e+14
2.28742e+14
2.26442e+14
2.24427e+14
2.22641e+14
2.21038e+14
2.19577e+14
2.18222e+14
2.1694e+14
2.15698e+14
2.14466e+14
2.13209e+14
2.11891e+14
2.10464e+14
2.0887e+14
2.07028e+14
2.04825e+14
2.02097e+14
1.98599e+14
1.93958e+14
1.87612e+14
1.78693e+14
1.65919e+14
1.47297e+14
1.20215e+14
8.01413e+13
1.57468e+14
2.40088e+14
3.05926e+14
3.5731e+14
3.97068e+14
4.27755e+14
4.51163e+14
4.68561e+14
4.80882e+14
4.88798e+14
4.92785e+14
4.93154e+14
4.90061e+14
4.83568e+14
4.73606e+14
4.60164e+14
4.43126e+14
4.22907e+14
3.99767e+14
3.77775e+14
3.58062e+14
3.40819e+14
3.25935e+14
3.13202e+14
3.02369e+14
2.93181e+14
2.85399e+14
2.78809e+14
2.73221e+14
2.68473e+14
2.64424e+14
2.60956e+14
2.57967e+14
2.55372e+14
2.53098e+14
2.51085e+14
2.49278e+14
2.47632e+14
2.46105e+14
2.4466e+14
2.43262e+14
2.41874e+14
2.4046e+14
2.38976e+14
2.37371e+14
2.3558e+14
2.33513e+14
2.31047e+14
2.28002e+14
2.2411e+14
2.18968e+14
2.11964e+14
2.02156e+14
1.88126e+14
1.67629e+14
1.37561e+14
9.24921e+13
1.79621e+14
2.70728e+14
3.42363e+14
3.9816e+14
4.4144e+14
4.74942e+14
5.00554e+14
5.19626e+14
5.33152e+14
5.41851e+14
5.46235e+14
5.46633e+14
5.43212e+14
5.36029e+14
5.2502e+14
5.10155e+14
4.9135e+14
4.69041e+14
4.43671e+14
4.19469e+14
3.97702e+14
3.78616e+14
3.62116e+14
3.47984e+14
3.35951e+14
3.25739e+14
3.17086e+14
3.09756e+14
3.03541e+14
2.98258e+14
2.93753e+14
2.89895e+14
2.8657e+14
2.83683e+14
2.81155e+14
2.78917e+14
2.76908e+14
2.75079e+14
2.73382e+14
2.71778e+14
2.70224e+14
2.68684e+14
2.67113e+14
2.65467e+14
2.63687e+14
2.61703e+14
2.59419e+14
2.567e+14
2.53353e+14
2.49095e+14
2.43498e+14
2.35911e+14
2.25337e+14
2.10256e+14
1.88216e+14
1.55639e+14
1.05987e+14
2.03896e+14
3.02383e+14
3.78764e+14
4.38265e+14
4.84619e+14
5.20626e+14
5.48231e+14
5.68835e+14
5.83473e+14
5.92904e+14
5.97659e+14
5.98085e+14
5.94355e+14
5.86519e+14
5.74518e+14
5.5831e+14
5.3784e+14
5.13576e+14
4.86131e+14
4.59854e+14
4.3614e+14
4.15294e+14
3.97239e+14
3.81754e+14
3.68556e+14
3.57348e+14
3.47846e+14
3.39794e+14
3.32964e+14
3.27159e+14
3.22208e+14
3.17967e+14
3.14313e+14
3.11141e+14
3.08364e+14
3.05904e+14
3.03698e+14
3.01689e+14
2.99827e+14
2.98065e+14
2.96361e+14
2.9467e+14
2.92947e+14
2.91142e+14
2.89192e+14
2.87022e+14
2.84528e+14
2.81568e+14
2.7794e+14
2.73347e+14
2.67343e+14
2.59258e+14
2.48057e+14
2.32162e+14
2.08981e+14
1.74548e+14
1.21032e+14
2.31064e+14
3.35119e+14
4.14927e+14
4.77332e+14
5.26248e+14
5.64421e+14
5.93791e+14
6.15776e+14
6.31433e+14
6.41539e+14
6.46644e+14
6.471e+14
6.43084e+14
6.34644e+14
6.21717e+14
6.04259e+14
5.82245e+14
5.56178e+14
5.26822e+14
4.98622e+14
4.73083e+14
4.50572e+14
4.31036e+14
4.14256e+14
3.9994e+14
3.87771e+14
3.7745e+14
3.68699e+14
3.61273e+14
3.5496e+14
3.49576e+14
3.44964e+14
3.4099e+14
3.37541e+14
3.34521e+14
3.31847e+14
3.29449e+14
3.27265e+14
3.25242e+14
3.23327e+14
3.21476e+14
3.19639e+14
3.17769e+14
3.1581e+14
3.13696e+14
3.11347e+14
3.08653e+14
3.05467e+14
3.01579e+14
2.96683e+14
2.90327e+14
2.81831e+14
2.70152e+14
2.53701e+14
2.2984e+14
1.94386e+14
1.38212e+14
2.62257e+14
3.68937e+14
4.50604e+14
5.15045e+14
5.65981e+14
6.05971e+14
6.36879e+14
6.60097e+14
6.7668e+14
6.8741e+14
6.92844e+14
6.93336e+14
6.89066e+14
6.80074e+14
6.66299e+14
6.47696e+14
6.2427e+14
5.96563e+14
5.6547e+14
5.35506e+14
5.08276e+14
4.84208e+14
4.63277e+14
4.45271e+14
4.29889e+14
4.16804e+14
4.05697e+14
3.96275e+14
3.88278e+14
3.81477e+14
3.75676e+14
3.70706e+14
3.66424e+14
3.62707e+14
3.59453e+14
3.56572e+14
3.53989e+14
3.51637e+14
3.49458e+14
3.47397e+14
3.45403e+14
3.43426e+14
3.41414e+14
3.39307e+14
3.37037e+14
3.34517e+14
3.31634e+14
3.28237e+14
3.24111e+14
3.18948e+14
3.12294e+14
3.03477e+14
2.91471e+14
2.74727e+14
2.50679e+14
2.15205e+14
1.58361e+14
2.99019e+14
4.03612e+14
4.85423e+14
5.51043e+14
6.03483e+14
6.44962e+14
6.77193e+14
7.01505e+14
7.18925e+14
7.30231e+14
7.35976e+14
7.36515e+14
7.32024e+14
7.22541e+14
7.08003e+14
6.88368e+14
6.63672e+14
6.34495e+14
6.01839e+14
5.70278e+14
5.415e+14
5.15991e+14
4.9376e+14
4.74604e+14
4.58219e+14
4.44267e+14
4.32415e+14
4.22356e+14
4.13814e+14
4.06548e+14
4.00348e+14
3.95037e+14
3.9046e+14
3.86487e+14
3.83009e+14
3.79931e+14
3.7717e+14
3.74658e+14
3.72329e+14
3.70128e+14
3.67999e+14
3.65888e+14
3.6374e+14
3.61493e+14
3.59073e+14
3.56392e+14
3.53333e+14
3.49741e+14
3.454e+14
3.40003e+14
3.33106e+14
3.24055e+14
3.11869e+14
2.95087e+14
2.71335e+14
2.3693e+14
1.82684e+14
1.73973e+14
1.45948e+14
1.24362e+14
1.07021e+14
9.25937e+13
8.02514e+13
6.94627e+13
5.98803e+13
5.12721e+13
4.34842e+13
2.25667e+14
1.9997e+14
1.76863e+14
1.56139e+14
1.37479e+14
1.20581e+14
1.05194e+14
9.11238e+13
7.82267e+13
6.6404e+13
2.59294e+14
2.34739e+14
2.11324e+14
1.89191e+14
1.68373e+14
1.48849e+14
1.30583e+14
1.13536e+14
9.7675e+13
8.29788e+13
2.83051e+14
2.58816e+14
2.35068e+14
2.12034e+14
1.8987e+14
1.68681e+14
1.48543e+14
1.29509e+14
1.11623e+14
9.49179e+13
3.00232e+14
2.75944e+14
2.51797e+14
2.28058e+14
2.04934e+14
1.82593e+14
1.61168e+14
1.40766e+14
1.21475e+14
1.03365e+14
3.12946e+14
2.88439e+14
2.63879e+14
2.3955e+14
2.15692e+14
1.92504e+14
1.70151e+14
1.48773e+14
1.28485e+14
1.09377e+14
3.22538e+14
2.9775e+14
2.72793e+14
2.47967e+14
2.23528e+14
1.99694e+14
1.76651e+14
1.54557e+14
1.33542e+14
1.13713e+14
3.29928e+14
3.04848e+14
2.7953e+14
2.54283e+14
2.29374e+14
2.05035e+14
1.81464e+14
1.58829e+14
1.37274e+14
1.16911e+14
3.35749e+14
3.1039e+14
2.84749e+14
2.59145e+14
2.33851e+14
2.09109e+14
1.85123e+14
1.6207e+14
1.401e+14
1.19332e+14
3.40444e+14
3.14827e+14
2.88902e+14
2.62992e+14
2.37379e+14
2.12306e+14
1.87987e+14
1.64602e+14
1.42305e+14
1.21219e+14
3.44325e+14
3.18473e+14
2.92298e+14
2.66125e+14
2.4024e+14
2.14892e+14
1.90297e+14
1.66641e+14
1.44079e+14
1.22738e+14
3.47617e+14
3.21553e+14
2.95155e+14
2.68751e+14
2.42632e+14
2.17049e+14
1.92221e+14
1.68336e+14
1.45553e+14
1.24e+14
3.50486e+14
3.24229e+14
2.9763e+14
2.71021e+14
2.44694e+14
2.18905e+14
1.93874e+14
1.69791e+14
1.46818e+14
1.25082e+14
3.53058e+14
3.26622e+14
2.99839e+14
2.73042e+14
2.46528e+14
2.20553e+14
1.95341e+14
1.71082e+14
1.47939e+14
1.26042e+14
3.55431e+14
3.28826e+14
3.0187e+14
2.74899e+14
2.48211e+14
2.22065e+14
1.96685e+14
1.72264e+14
1.48966e+14
1.26921e+14
3.57684e+14
3.30918e+14
3.03795e+14
2.76658e+14
2.49804e+14
2.23494e+14
1.97955e+14
1.73381e+14
1.49936e+14
1.27752e+14
3.59887e+14
3.3296e+14
3.05674e+14
2.78373e+14
2.51356e+14
2.24887e+14
1.99193e+14
1.74468e+14
1.5088e+14
1.2856e+14
3.62099e+14
3.3501e+14
3.0756e+14
2.80093e+14
2.52913e+14
2.26283e+14
2.00433e+14
1.75558e+14
1.51827e+14
1.29371e+14
3.6438e+14
3.37123e+14
3.09502e+14
2.81865e+14
2.54515e+14
2.2772e+14
2.01709e+14
1.7668e+14
1.528e+14
1.30204e+14
3.66787e+14
3.39352e+14
3.11551e+14
2.83733e+14
2.56204e+14
2.29234e+14
2.03053e+14
1.77861e+14
1.53825e+14
1.31082e+14
3.6938e+14
3.41753e+14
3.13757e+14
2.85744e+14
2.58023e+14
2.30863e+14
2.045e+14
1.79131e+14
1.54928e+14
1.32026e+14
3.72224e+14
3.44386e+14
3.16175e+14
2.87948e+14
2.60015e+14
2.32649e+14
2.06084e+14
1.80523e+14
1.56135e+14
1.33059e+14
3.7539e+14
3.47316e+14
3.18867e+14
2.90401e+14
2.62232e+14
2.34635e+14
2.07846e+14
1.82069e+14
1.57477e+14
1.34206e+14
3.7896e+14
3.50619e+14
3.219e+14
2.93164e+14
2.64729e+14
2.36871e+14
2.0983e+14
1.83811e+14
1.58987e+14
1.35497e+14
3.83025e+14
3.5438e+14
3.25353e+14
2.96309e+14
2.6757e+14
2.39415e+14
2.12086e+14
1.8579e+14
1.60703e+14
1.36964e+14
3.8769e+14
3.58695e+14
3.29313e+14
2.99916e+14
2.70827e+14
2.42331e+14
2.14672e+14
1.88058e+14
1.62669e+14
1.38644e+14
3.93077e+14
3.63676e+14
3.33883e+14
3.04077e+14
2.74585e+14
2.45694e+14
2.17653e+14
1.90673e+14
1.64934e+14
1.40579e+14
3.99323e+14
3.69449e+14
3.3918e+14
3.08897e+14
2.78936e+14
2.49588e+14
2.21104e+14
1.93699e+14
1.67555e+14
1.42817e+14
4.06583e+14
3.76158e+14
3.45332e+14
3.14496e+14
2.83989e+14
2.54108e+14
2.25109e+14
1.97209e+14
1.70595e+14
1.45413e+14
4.15032e+14
3.83962e+14
3.52488e+14
3.21005e+14
2.89862e+14
2.5936e+14
2.29761e+14
2.01287e+14
1.74125e+14
1.48426e+14
4.24861e+14
3.93038e+14
3.60805e+14
3.28569e+14
2.96684e+14
2.6546e+14
2.35163e+14
2.0602e+14
1.78223e+14
1.51923e+14
4.36271e+14
4.0357e+14
3.70454e+14
3.37341e+14
3.04594e+14
2.72531e+14
2.41423e+14
2.11504e+14
1.82969e+14
1.55973e+14
4.4947e+14
4.15749e+14
3.81608e+14
3.47478e+14
3.13733e+14
2.80697e+14
2.48652e+14
2.17835e+14
1.88446e+14
1.60646e+14
4.64653e+14
4.29752e+14
3.94429e+14
3.59127e+14
3.24232e+14
2.90077e+14
2.56953e+14
2.25103e+14
1.94735e+14
1.6601e+14
4.81977e+14
4.45726e+14
4.09052e+14
3.7241e+14
3.36201e+14
3.0077e+14
2.66414e+14
2.33386e+14
2.01899e+14
1.72121e+14
5.01525e+14
4.63747e+14
4.25545e+14
3.87392e+14
3.497e+14
3.12828e+14
2.77082e+14
2.42725e+14
2.09976e+14
1.79009e+14
5.23236e+14
4.83762e+14
4.43865e+14
4.04034e+14
3.64698e+14
3.26226e+14
2.88937e+14
2.53103e+14
2.18951e+14
1.86663e+14
5.46816e+14
5.05503e+14
4.63771e+14
4.22127e+14
3.81011e+14
3.40807e+14
3.01846e+14
2.64408e+14
2.28731e+14
1.95004e+14
5.71585e+14
5.28344e+14
4.84695e+14
4.41159e+14
3.98189e+14
3.56181e+14
3.15473e+14
2.76357e+14
2.39079e+14
2.03835e+14
5.96053e+14
5.50881e+14
5.05329e+14
4.5993e+14
4.15145e+14
3.71378e+14
3.28974e+14
2.88226e+14
2.49388e+14
2.12647e+14
6.16758e+14
5.69789e+14
5.22486e+14
4.75389e+14
4.2897e+14
3.83634e+14
3.39731e+14
2.97563e+14
2.57392e+14
2.19428e+14
6.33224e+14
5.84726e+14
5.35962e+14
4.87479e+14
4.39748e+14
3.93177e+14
3.48115e+14
3.04862e+14
2.63678e+14
2.24774e+14
6.45264e+14
5.95554e+14
5.45656e+14
4.96117e+14
4.47406e+14
3.99928e+14
3.54031e+14
3.10009e+14
2.68113e+14
2.2855e+14
6.53083e+14
6.02512e+14
5.51831e+14
5.01582e+14
4.52227e+14
4.04164e+14
3.57733e+14
3.13221e+14
2.70877e+14
2.30899e+14
6.56947e+14
6.05861e+14
5.54732e+14
5.04097e+14
4.5441e+14
4.06057e+14
3.5937e+14
3.1463e+14
2.72082e+14
2.31921e+14
6.57074e+14
6.05805e+14
5.54549e+14
5.03833e+14
4.54101e+14
4.05729e+14
3.59043e+14
3.1432e+14
2.71798e+14
2.31673e+14
6.53484e+14
6.02353e+14
5.51278e+14
5.00772e+14
4.51272e+14
4.03149e+14
3.56721e+14
3.12261e+14
2.69999e+14
2.30133e+14
6.45981e+14
5.95296e+14
5.44703e+14
4.94705e+14
4.45728e+14
3.98137e+14
3.52241e+14
3.08307e+14
2.66559e+14
2.27192e+14
6.34174e+14
5.8424e+14
5.3444e+14
4.85264e+14
4.37125e+14
3.90375e+14
3.45316e+14
3.02204e+14
2.61256e+14
2.22661e+14
6.17509e+14
5.68633e+14
5.1995e+14
4.71931e+14
4.24972e+14
3.79412e+14
3.35535e+14
2.93584e+14
2.53767e+14
2.16262e+14
5.95261e+14
5.47744e+14
5.00509e+14
4.54006e+14
4.08608e+14
3.64628e+14
3.22332e+14
2.81943e+14
2.43649e+14
2.07615e+14
5.66524e+14
5.20633e+14
4.75173e+14
4.30563e+14
3.87144e+14
3.45195e+14
3.04949e+14
2.66598e+14
2.30303e+14
1.96205e+14
5.30159e+14
4.86083e+14
4.4269e+14
4.0036e+14
3.59383e+14
3.19987e+14
2.82351e+14
2.46621e+14
2.12913e+14
1.81332e+14
4.84738e+14
4.42494e+14
4.01379e+14
3.61712e+14
3.23702e+14
2.87487e+14
2.53157e+14
2.2078e+14
1.90404e+14
1.62074e+14
4.28366e+14
3.87619e+14
3.48855e+14
3.12266e+14
2.77889e+14
2.45683e+14
2.15583e+14
1.87523e+14
1.61443e+14
1.37303e+14
3.58178e+14
3.17896e+14
2.81511e+14
2.4873e+14
2.19107e+14
1.92217e+14
1.67705e+14
1.45293e+14
1.2477e+14
1.05986e+14
2.67011e+14
2.25542e+14
1.93106e+14
1.66702e+14
1.44505e+14
1.25373e+14
1.08573e+14
9.36183e+13
8.01811e+13
6.80393e+13
7.38172e+14
8.73144e+14
1.04439e+15
1.26257e+15
1.5418e+15
1.90193e+15
2.37219e+15
2.99792e+15
3.85498e+15
5.08652e+15
7.03203e+15
7.85325e+14
9.28756e+14
1.11084e+15
1.34283e+15
1.63966e+15
2.0224e+15
2.52199e+15
3.18631e+15
4.09511e+15
5.39732e+15
7.43091e+15
8.42866e+14
9.9647e+14
1.19167e+15
1.44031e+15
1.75832e+15
2.16809e+15
2.70242e+15
3.41179e+15
4.37937e+15
5.75649e+15
7.85983e+15
9.14418e+14
1.08054e+15
1.29188e+15
1.56096e+15
1.9048e+15
2.3473e+15
2.92318e+15
3.68531e+15
4.719e+15
6.17265e+15
8.32238e+15
9.92306e+14
1.17199e+15
1.4007e+15
1.69166e+15
2.06297e+15
2.53985e+15
3.15863e+15
3.97366e+15
5.07007e+15
6.58743e+15
8.75378e+15
1.06806e+15
1.26091e+15
1.50634e+15
1.81823e+15
2.21557e+15
2.72464e+15
3.38282e+15
4.24489e+15
5.39379e+15
6.95723e+15
9.11984e+15
1.14112e+15
1.34666e+15
1.60804e+15
1.93976e+15
2.36153e+15
2.9004e+15
3.59429e+15
4.49751e+15
5.68939e+15
7.28472e+15
9.4318e+15
1.21106e+15
1.42874e+15
1.70524e+15
2.05558e+15
2.50005e+15
3.06621e+15
3.79204e+15
4.73071e+15
5.95703e+15
7.57296e+15
9.69767e+15
1.27749e+15
1.5067e+15
1.79739e+15
2.16506e+15
2.63042e+15
3.22128e+15
3.97531e+15
4.94401e+15
6.19717e+15
7.82476e+15
9.92309e+15
1.34068e+15
1.58083e+15
1.88486e+15
2.26865e+15
2.7532e+15
3.36635e+15
4.14517e+15
5.13903e+15
6.41255e+15
8.04473e+15
1.0114e+16
1.4033e+15
1.65425e+15
1.97131e+15
2.37068e+15
2.87353e+15
3.50752e+15
4.30878e+15
5.32422e+15
6.61298e+15
8.24383e+15
1.02805e+16
1.46798e+15
1.73003e+15
2.06032e+15
2.4753e+15
2.99616e+15
3.65015e+15
4.47213e+15
5.50602e+15
6.80511e+15
8.42826e+15
1.04268e+16
1.53566e+15
1.80923e+15
2.15304e+15
2.5837e+15
3.12224e+15
3.79522e+15
4.63573e+15
5.68419e+15
6.98754e+15
8.59498e+15
1.05472e+16
1.59993e+15
1.88429e+15
2.2405e+15
2.68514e+15
3.23891e+15
3.92733e+15
4.78142e+15
5.83772e+15
7.13692e+15
8.71958e+15
1.06177e+16
1.65205e+15
1.94499e+15
2.31072e+15
2.76569e+15
3.33003e+15
4.02811e+15
4.88877e+15
5.9449e+15
7.2317e+15
8.78272e+15
1.06234e+16
1.68928e+15
1.98813e+15
2.36008e+15
2.82127e+15
3.39121e+15
4.09303e+15
4.95351e+15
6.0023e+15
7.27005e+15
8.78479e+15
1.05669e+16
1.71136e+15
2.01344e+15
2.38831e+15
2.85174e+15
3.42252e+15
4.12258e+15
4.97681e+15
6.01209e+15
7.25532e+15
8.73018e+15
1.0453e+16
1.71818e+15
2.02083e+15
2.39541e+15
2.85722e+15
3.42432e+15
4.11752e+15
4.96002e+15
5.97639e+15
7.19055e+15
8.62275e+15
1.0286e+16
1.7098e+15
2.01041e+15
2.38156e+15
2.83805e+15
3.39719e+15
4.07877e+15
4.90456e+15
5.89727e+15
7.07854e+15
8.46604e+15
1.007e+16
1.68648e+15
1.98251e+15
2.3472e+15
2.79483e+15
3.34199e+15
4.00753e+15
4.81206e+15
5.77689e+15
6.92209e+15
8.26346e+15
9.80908e+15
1.6486e+15
1.9376e+15
2.29294e+15
2.72834e+15
3.25971e+15
3.90505e+15
4.68409e+15
5.6172e+15
6.72351e+15
8.01784e+15
9.50669e+15
1.59672e+15
1.87635e+15
2.2196e+15
2.63958e+15
3.15154e+15
3.77279e+15
4.52236e+15
5.42015e+15
6.48507e+15
7.73183e+15
9.16625e+15
1.53167e+15
1.79976e+15
2.12833e+15
2.52993e+15
3.01914e+15
3.61262e+15
4.32897e+15
5.18802e+15
6.20919e+15
7.4082e+15
8.79133e+15
1.45951e+15
1.71493e+15
2.0276e+15
2.40946e+15
2.87448e+15
3.43881e+15
4.12075e+15
4.94042e+15
5.91842e+15
7.07266e+15
8.4115e+15
1.38978e+15
1.63303e+15
1.93052e+15
2.29368e+15
2.73591e+15
3.27292e+15
3.92283e+15
4.70621e+15
5.64518e+15
6.76061e+15
8.06445e+15
1.32433e+15
1.55621e+15
1.83958e+15
2.18537e+15
2.60654e+15
3.11834e+15
3.73878e+15
4.48887e+15
5.39241e+15
6.4737e+15
7.74956e+15
1.26118e+15
1.48211e+15
1.75192e+15
2.0811e+15
2.48211e+15
2.96983e+15
3.56209e+15
4.28036e+15
5.15013e+15
6.19956e+15
7.4517e+15
1.19713e+15
1.40698e+15
1.6631e+15
1.97551e+15
2.3562e+15
2.81962e+15
3.3834e+15
4.06938e+15
4.90481e+15
5.92222e+15
7.15272e+15
1.13033e+15
1.32864e+15
1.5705e+15
1.86548e+15
2.22506e+15
2.66319e+15
3.19721e+15
3.84926e+15
4.6483e+15
5.6318e+15
6.84139e+15
1.06101e+15
1.24734e+15
1.47444e+15
1.75138e+15
2.08908e+15
2.50095e+15
3.00393e+15
3.62027e+15
4.38046e+15
5.32728e+15
6.51568e+15
9.89468e+14
1.16342e+15
1.37528e+15
1.63363e+15
1.94876e+15
2.33345e+15
2.80411e+15
3.38283e+15
4.10132e+15
5.00757e+15
6.17281e+15
9.16154e+14
1.0774e+15
1.27366e+15
1.51294e+15
1.80492e+15
2.16165e+15
2.5988e+15
3.13805e+15
3.81166e+15
4.67221e+15
5.80953e+15
8.41462e+14
9.89731e+14
1.17007e+15
1.38993e+15
1.65827e+15
1.98634e+15
2.38893e+15
2.88684e+15
3.51213e+15
4.32038e+15
5.42052e+15
7.66968e+14
9.02241e+14
1.06667e+15
1.26713e+15
1.51185e+15
1.81116e+15
2.1788e+15
2.63431e+15
3.20848e+15
3.95727e+15
5.00454e+15
7.07117e+14
8.31887e+14
9.83514e+14
1.16836e+15
1.39403e+15
1.6701e+15
2.00929e+15
2.4298e+15
2.96052e+15
3.65489e+15
4.6388e+15
2.02919e+14
2.15964e+14
2.31758e+14
2.47178e+14
2.61946e+14
2.76031e+14
2.89388e+14
3.02001e+14
3.1386e+14
3.25335e+14
3.36992e+14
3.49134e+14
3.61355e+14
3.71985e+14
3.80085e+14
3.85592e+14
3.88479e+14
3.88735e+14
3.86354e+14
3.81357e+14
3.73766e+14
3.63621e+14
3.51412e+14
3.38697e+14
3.26594e+14
3.14876e+14
3.03021e+14
2.90499e+14
2.77223e+14
2.63223e+14
2.48528e+14
2.33184e+14
2.18815e+14
2.07041e+14
1.97221e+14
2.5185e+14
2.61664e+14
2.73869e+14
2.86055e+14
2.97937e+14
3.09435e+14
3.20466e+14
3.30979e+14
3.40939e+14
3.50632e+14
3.60525e+14
3.70868e+14
3.81297e+14
3.90361e+14
3.97226e+14
4.01821e+14
4.04111e+14
4.04081e+14
4.01731e+14
3.97086e+14
3.9018e+14
3.8107e+14
3.70219e+14
3.59023e+14
3.48455e+14
3.38306e+14
3.28123e+14
3.1747e+14
3.063e+14
2.94675e+14
2.82664e+14
2.70362e+14
2.59109e+14
2.50096e+14
2.42737e+14
2.84886e+14
2.9371e+14
3.04554e+14
3.15291e+14
3.25701e+14
3.35739e+14
3.45346e+14
3.54489e+14
3.63144e+14
3.71561e+14
3.80149e+14
3.89122e+14
3.98162e+14
4.05999e+14
4.11907e+14
4.15818e+14
4.17698e+14
4.17535e+14
4.15328e+14
4.11104e+14
4.049e+14
3.96771e+14
3.87136e+14
3.77235e+14
3.67915e+14
3.58983e+14
3.50037e+14
3.40689e+14
3.30895e+14
3.207e+14
3.10155e+14
2.99324e+14
2.89365e+14
2.81336e+14
2.74733e+14
3.08158e+14
3.16614e+14
3.26908e+14
3.37012e+14
3.46737e+14
3.56054e+14
3.64922e+14
3.73322e+14
3.8124e+14
3.88915e+14
3.96719e+14
4.04846e+14
4.13004e+14
4.20048e+14
4.25332e+14
4.288e+14
4.30429e+14
4.30208e+14
4.2814e+14
4.24248e+14
4.18562e+14
4.1113e+14
4.02328e+14
3.93279e+14
3.84751e+14
3.76565e+14
3.6835e+14
3.59743e+14
3.50695e+14
3.4124e+14
3.3141e+14
3.21254e+14
3.11848e+14
3.04213e+14
2.97898e+14
3.24813e+14
3.33155e+14
3.43251e+14
3.53105e+14
3.62539e+14
3.71532e+14
3.80052e+14
3.8809e+14
3.95638e+14
4.02928e+14
4.10316e+14
4.17983e+14
4.25651e+14
4.32247e+14
4.37176e+14
4.40397e+14
4.41893e+14
4.41657e+14
4.39695e+14
4.36025e+14
4.30672e+14
4.23675e+14
4.15376e+14
4.06825e+14
3.98747e+14
3.90974e+14
3.83151e+14
3.74929e+14
3.66257e+14
3.57157e+14
3.47656e+14
3.3779e+14
3.28606e+14
3.21117e+14
3.14899e+14
3.3703e+14
3.45375e+14
3.5544e+14
3.65231e+14
3.74574e+14
3.83453e+14
3.9184e+14
3.99731e+14
4.07121e+14
4.14241e+14
4.21439e+14
4.28891e+14
4.36326e+14
4.42706e+14
4.47464e+14
4.50568e+14
4.52008e+14
4.51781e+14
4.49892e+14
4.46358e+14
4.41198e+14
4.34444e+14
4.26418e+14
4.18129e+14
4.1028e+14
4.0271e+14
3.95074e+14
3.87029e+14
3.78519e+14
3.69566e+14
3.60188e+14
3.50419e+14
3.41294e+14
3.33832e+14
3.27622e+14
3.46183e+14
3.54583e+14
3.64697e+14
3.74516e+14
3.8387e+14
3.92742e+14
4.01109e+14
4.08968e+14
4.16317e+14
4.23387e+14
4.30525e+14
4.37904e+14
4.45256e+14
4.51557e+14
4.56254e+14
4.59322e+14
4.60752e+14
4.60545e+14
4.58705e+14
4.55249e+14
4.50192e+14
4.43559e+14
4.35662e+14
4.27491e+14
4.19741e+14
4.12252e+14
4.04686e+14
3.96701e+14
3.88241e+14
3.79321e+14
3.69961e+14
3.6019e+14
3.51044e+14
3.43553e+14
3.3731e+14
3.53208e+14
3.61686e+14
3.71883e+14
3.81773e+14
3.91184e+14
4.00102e+14
4.08506e+14
4.16391e+14
4.23759e+14
4.30843e+14
4.37989e+14
4.45372e+14
4.52722e+14
4.59021e+14
4.63719e+14
4.66792e+14
4.68236e+14
4.68053e+14
4.66246e+14
4.6283e+14
4.5782e+14
4.51238e+14
4.43388e+14
4.35253e+14
4.27527e+14
4.20054e+14
4.12494e+14
4.04508e+14
3.96035e+14
3.87093e+14
3.77697e+14
3.67877e+14
3.58672e+14
3.51126e+14
3.44832e+14
3.58739e+14
3.67299e+14
3.7759e+14
3.87567e+14
3.97056e+14
4.06044e+14
4.14508e+14
4.22448e+14
4.29864e+14
4.36991e+14
4.44179e+14
4.51603e+14
4.58994e+14
4.65329e+14
4.70057e+14
4.73157e+14
4.74626e+14
4.74466e+14
4.72681e+14
4.69284e+14
4.6429e+14
4.57717e+14
4.49868e+14
4.41725e+14
4.33984e+14
4.26491e+14
4.18906e+14
4.10886e+14
4.02373e+14
3.9338e+14
3.83924e+14
3.74034e+14
3.64756e+14
3.57146e+14
3.50794e+14
3.63208e+14
3.7185e+14
3.82236e+14
3.92302e+14
4.01874e+14
4.10939e+14
4.19474e+14
4.27478e+14
4.34953e+14
4.42137e+14
4.49381e+14
4.56863e+14
4.64312e+14
4.70699e+14
4.75472e+14
4.78608e+14
4.80105e+14
4.79967e+14
4.78195e+14
4.74804e+14
4.69807e+14
4.63222e+14
4.5535e+14
4.47177e+14
4.39402e+14
4.31872e+14
4.24246e+14
4.16179e+14
4.07611e+14
3.98557e+14
3.89032e+14
3.79065e+14
3.69711e+14
3.62035e+14
3.55627e+14
3.66919e+14
3.75637e+14
3.86114e+14
3.96267e+14
4.0592e+14
4.15061e+14
4.23668e+14
4.31739e+14
4.39276e+14
4.46519e+14
4.53824e+14
4.61369e+14
4.68882e+14
4.75328e+14
4.80148e+14
4.83323e+14
4.84848e+14
4.84728e+14
4.82965e+14
4.79573e+14
4.74563e+14
4.67954e+14
4.60048e+14
4.51833e+14
4.44016e+14
4.36442e+14
4.28769e+14
4.2065e+14
4.12024e+14
4.02906e+14
3.9331e+14
3.83266e+14
3.73838e+14
3.66099e+14
3.59637e+14
3.70088e+14
3.78876e+14
3.89437e+14
3.99671e+14
4.09402e+14
4.18616e+14
4.27292e+14
4.35428e+14
4.43026e+14
4.50328e+14
4.57692e+14
4.65299e+14
4.72878e+14
4.79382e+14
4.84249e+14
4.87461e+14
4.89013e+14
4.88908e+14
4.87151e+14
4.83752e+14
4.78725e+14
4.72087e+14
4.6414e+14
4.55881e+14
4.48018e+14
4.40398e+14
4.32676e+14
4.24504e+14
4.1582e+14
4.06639e+14
3.96975e+14
3.86858e+14
3.77359e+14
3.69561e+14
3.63049e+14
3.7287e+14
3.81723e+14
3.92362e+14
4.02673e+14
4.12476e+14
4.21759e+14
4.305e+14
4.38697e+14
4.46353e+14
4.53711e+14
4.61133e+14
4.68801e+14
4.76441e+14
4.83001e+14
4.87914e+14
4.9116e+14
4.92737e+14
4.92645e+14
4.9089e+14
4.87483e+14
4.82436e+14
4.75766e+14
4.67778e+14
4.59472e+14
4.51564e+14
4.43897e+14
4.36127e+14
4.27904e+14
4.19164e+14
4.09921e+14
4.00192e+14
3.90006e+14
3.80441e+14
3.72587e+14
3.66029e+14
3.75384e+14
3.84298e+14
3.9501e+14
4.05391e+14
4.15262e+14
4.2461e+14
4.33412e+14
4.41668e+14
4.49379e+14
4.5679e+14
4.64266e+14
4.71992e+14
4.79691e+14
4.86304e+14
4.9126e+14
4.94539e+14
4.96137e+14
4.96057e+14
4.94302e+14
4.90885e+14
4.85816e+14
4.79114e+14
4.71084e+14
4.62733e+14
4.54779e+14
4.47067e+14
4.39251e+14
4.30977e+14
4.22183e+14
4.12882e+14
4.03091e+14
3.92839e+14
3.83211e+14
3.75306e+14
3.68704e+14
3.77721e+14
3.86691e+14
3.97473e+14
4.07922e+14
4.17858e+14
4.27267e+14
4.36128e+14
4.44439e+14
4.52202e+14
4.59665e+14
4.67193e+14
4.74974e+14
4.82729e+14
4.89393e+14
4.9439e+14
4.97699e+14
4.99318e+14
4.99247e+14
4.97491e+14
4.94062e+14
4.88972e+14
4.82237e+14
4.74165e+14
4.65768e+14
4.57769e+14
4.50013e+14
4.42152e+14
4.33829e+14
4.24982e+14
4.15626e+14
4.05776e+14
3.9546e+14
3.85773e+14
3.77818e+14
3.71176e+14
3.79955e+14
3.88981e+14
3.99829e+14
4.10344e+14
4.20342e+14
4.29812e+14
4.38729e+14
4.47094e+14
4.54908e+14
4.6242e+14
4.69999e+14
4.77833e+14
4.85643e+14
4.92356e+14
4.97392e+14
5.0073e+14
5.02367e+14
5.02305e+14
5.00548e+14
4.97107e+14
4.91993e+14
4.85225e+14
4.77111e+14
4.68669e+14
4.60626e+14
4.52826e+14
4.4492e+14
4.36549e+14
4.27651e+14
4.1824e+14
4.08332e+14
3.97955e+14
3.8821e+14
3.80207e+14
3.73524e+14
3.8215e+14
3.91231e+14
4.02145e+14
4.12725e+14
4.22785e+14
4.32314e+14
4.41288e+14
4.49707e+14
4.57571e+14
4.65132e+14
4.72761e+14
4.80647e+14
4.88511e+14
4.95272e+14
5.00346e+14
5.03713e+14
5.05368e+14
5.05314e+14
5.03554e+14
5.001e+14
4.94963e+14
4.88161e+14
4.80004e+14
4.71516e+14
4.63428e+14
4.55585e+14
4.47634e+14
4.39216e+14
4.30266e+14
4.208e+14
4.10834e+14
4.00396e+14
3.90593e+14
3.82544e+14
3.75821e+14
3.84365e+14
3.93501e+14
4.04483e+14
4.15128e+14
4.25251e+14
4.3484e+14
4.43871e+14
4.52344e+14
4.60259e+14
4.67869e+14
4.75549e+14
4.83489e+14
4.91407e+14
4.98217e+14
5.03329e+14
5.06724e+14
5.08397e+14
5.08351e+14
5.06587e+14
5.03119e+14
4.97958e+14
4.91121e+14
4.8292e+14
4.74385e+14
4.66251e+14
4.58363e+14
4.50367e+14
4.41899e+14
4.32897e+14
4.23376e+14
4.13351e+14
4.02851e+14
3.9299e+14
3.84892e+14
3.78129e+14
3.86656e+14
3.9585e+14
4.06901e+14
4.17614e+14
4.27802e+14
4.37453e+14
4.46544e+14
4.55072e+14
4.6304e+14
4.70702e+14
4.78434e+14
4.86429e+14
4.94403e+14
5.01263e+14
5.06415e+14
5.09839e+14
5.1153e+14
5.11491e+14
5.09723e+14
5.06241e+14
5.01053e+14
4.94179e+14
4.85933e+14
4.77348e+14
4.69167e+14
4.61232e+14
4.53188e+14
4.44669e+14
4.35613e+14
4.26034e+14
4.15947e+14
4.05383e+14
3.95461e+14
3.87314e+14
3.80509e+14
3.89079e+14
3.98333e+14
4.09458e+14
4.20243e+14
4.30501e+14
4.40218e+14
4.49371e+14
4.57958e+14
4.65982e+14
4.73698e+14
4.81486e+14
4.89539e+14
4.97574e+14
5.04486e+14
5.0968e+14
5.13135e+14
5.14845e+14
5.14812e+14
5.13041e+14
5.09542e+14
5.04327e+14
4.97413e+14
4.89117e+14
4.80479e+14
4.72248e+14
4.64263e+14
4.56168e+14
4.47595e+14
4.38481e+14
4.2884e+14
4.18689e+14
4.08056e+14
3.9807e+14
3.8987e+14
3.83021e+14
3.91693e+14
4.01014e+14
4.12219e+14
4.23081e+14
4.33414e+14
4.43202e+14
4.52423e+14
4.61074e+14
4.69159e+14
4.76934e+14
4.84782e+14
4.92898e+14
5.00996e+14
5.07966e+14
5.13205e+14
5.16692e+14
5.18422e+14
5.18398e+14
5.16621e+14
5.13104e+14
5.07858e+14
5.00902e+14
4.92552e+14
4.83857e+14
4.7557e+14
4.67532e+14
4.59381e+14
4.5075e+14
4.41573e+14
4.31865e+14
4.21644e+14
4.10938e+14
4.00882e+14
3.92624e+14
3.85727e+14
3.94566e+14
4.03959e+14
4.15251e+14
4.262e+14
4.36614e+14
4.46481e+14
4.55776e+14
4.64498e+14
4.72649e+14
4.80489e+14
4.88403e+14
4.96588e+14
5.04757e+14
5.11789e+14
5.17078e+14
5.206e+14
5.22353e+14
5.22336e+14
5.20553e+14
5.17016e+14
5.11737e+14
5.04733e+14
4.96323e+14
4.87566e+14
4.79218e+14
4.7112e+14
4.62908e+14
4.54212e+14
4.44966e+14
4.35185e+14
4.24886e+14
4.14098e+14
4.03966e+14
3.95645e+14
3.88696e+14
3.9777e+14
4.07244e+14
4.18634e+14
4.29678e+14
4.40184e+14
4.50139e+14
4.59517e+14
4.68318e+14
4.76543e+14
4.84455e+14
4.92442e+14
5.00705e+14
5.08952e+14
5.16054e+14
5.21398e+14
5.2496e+14
5.26737e+14
5.26729e+14
5.24939e+14
5.21379e+14
5.16061e+14
5.09003e+14
5.00527e+14
4.91699e+14
4.83283e+14
4.75118e+14
4.66838e+14
4.5807e+14
4.48746e+14
4.38883e+14
4.28497e+14
4.17619e+14
4.07401e+14
3.9901e+14
3.92002e+14
4.0139e+14
4.10955e+14
4.22457e+14
4.33609e+14
4.44219e+14
4.54272e+14
4.63744e+14
4.72634e+14
4.80944e+14
4.88936e+14
4.97007e+14
5.05356e+14
5.13693e+14
5.20873e+14
5.26278e+14
5.29885e+14
5.31688e+14
5.31689e+14
5.29891e+14
5.26305e+14
5.20944e+14
5.13824e+14
5.05273e+14
4.96364e+14
4.8787e+14
4.7963e+14
4.71273e+14
4.62422e+14
4.53011e+14
4.43055e+14
4.32571e+14
4.21589e+14
4.11274e+14
4.02804e+14
3.95729e+14
4.05525e+14
4.15195e+14
4.26822e+14
4.38098e+14
4.48826e+14
4.58993e+14
4.68572e+14
4.77564e+14
4.85969e+14
4.94054e+14
5.02219e+14
5.10668e+14
5.19105e+14
5.26374e+14
5.3185e+14
5.35506e+14
5.37339e+14
5.3735e+14
5.35541e+14
5.31925e+14
5.26513e+14
5.19323e+14
5.10684e+14
5.01683e+14
4.931e+14
4.84772e+14
4.76327e+14
4.67382e+14
4.5787e+14
4.47808e+14
4.37211e+14
4.26112e+14
4.15687e+14
4.07125e+14
3.99974e+14
4.10289e+14
4.20079e+14
4.31852e+14
4.4327e+14
4.54135e+14
4.64431e+14
4.74134e+14
4.83242e+14
4.91757e+14
4.99949e+14
5.08222e+14
5.16785e+14
5.25337e+14
5.32708e+14
5.38263e+14
5.41976e+14
5.43843e+14
5.43864e+14
5.42041e+14
5.38389e+14
5.32917e+14
5.25644e+14
5.16904e+14
5.07795e+14
4.99109e+14
4.90681e+14
4.82133e+14
4.7308e+14
4.63452e+14
4.53266e+14
4.4254e+14
4.31305e+14
4.20752e+14
4.12086e+14
4.04847e+14
4.15817e+14
4.25747e+14
4.37689e+14
4.49272e+14
4.60294e+14
4.7074e+14
4.80586e+14
4.89829e+14
4.9847e+14
5.06785e+14
5.15184e+14
5.23877e+14