/*--------------------------------*- C++ -*----------------------------------*\
| =========                 |                                                 |
| \\      /  F ield         | OpenFOAM: The Open Source CFD Toolbox           |
|  \\    /   O peration     | Version:  2406                                  |
|   \\  /    A nd           | Website:  www.openfoam.com                      |
|    \\/     M anipulation  |                                                 |
\*---------------------------------------------------------------------------*/
FoamFile
{
    version     2.0;
    format      ascii;
    arch        "LSB;label=32;scalar=64";
    class       volScalarField;
    location    "0/neutroRegion";
    object      flux2;
}
// * * * * * * * * * * * * * * * * * * * * * * * * * * * * * * * * * * * * * //

dimensions      [0 -2 -1 0 0 0 0];

internalField   nonuniform List<scalar> 
8595
(
9.14325e+14
1.66529e+15
2.11754e+15
2.42489e+15
2.63104e+15
2.77896e+15
2.88715e+15
2.96488e+15
3.01734e+15
3.04792e+15
3.05948e+15
3.05489e+15
3.03166e+15
3.00046e+15
2.93217e+15
2.85909e+15
2.71657e+15
2.56046e+15
2.19811e+15
1.96882e+15
1.82351e+15
1.72287e+15
1.64832e+15
1.59155e+15
1.54741e+15
1.51231e+15
1.48385e+15
1.46042e+15
1.44086e+15
1.42434e+15
1.41021e+15
1.398e+15
1.38733e+15
1.3779e+15
1.36947e+15
1.36185e+15
1.35486e+15
1.34838e+15
1.34228e+15
1.33645e+15
1.3308e+15
1.32525e+15
1.31971e+15
1.31411e+15
1.30836e+15
1.30238e+15
1.29607e+15
1.28929e+15
1.28184e+15
1.27333e+15
1.26302e+15
1.24973e+15
1.23063e+15
1.20636e+15
1.16677e+15
1.13338e+15
6.61872e+14
1.26519e+15
2.36751e+15
3.04449e+15
3.4997e+15
3.80453e+15
4.02292e+15
4.1819e+15
4.2962e+15
4.37341e+15
4.41844e+15
4.43562e+15
4.42945e+15
4.39665e+15
4.34598e+15
4.25192e+15
4.13756e+15
3.9374e+15
3.70103e+15
3.19339e+15
2.86432e+15
2.65274e+15
2.50542e+15
2.39624e+15
2.31308e+15
2.24839e+15
2.19697e+15
2.15532e+15
2.12105e+15
2.09249e+15
2.06838e+15
2.04781e+15
2.03005e+15
2.01456e+15
2.0009e+15
1.98872e+15
1.97771e+15
1.96764e+15
1.95831e+15
1.94954e+15
1.94117e+15
1.93306e+15
1.92509e+15
1.91713e+15
1.90907e+15
1.90078e+15
1.89215e+15
1.88303e+15
1.87322e+15
1.86239e+15
1.85e+15
1.83495e+15
1.81544e+15
1.78719e+15
1.74935e+15
1.68268e+15
1.59045e+15
9.04004e+14
1.58414e+15
3.01476e+15
3.90153e+15
4.49055e+15
4.88229e+15
5.16328e+15
5.37011e+15
5.51876e+15
5.61901e+15
5.67736e+15
5.69976e+15
5.69142e+15
5.6499e+15
5.58043e+15
5.46233e+15
5.30736e+15
5.0546e+15
4.73505e+15
4.11633e+15
3.69986e+15
3.42657e+15
3.23477e+15
3.09237e+15
2.98382e+15
2.89934e+15
2.83219e+15
2.77781e+15
2.73312e+15
2.69588e+15
2.66449e+15
2.63772e+15
2.61464e+15
2.59452e+15
2.5768e+15
2.56101e+15
2.54677e+15
2.53375e+15
2.5217e+15
2.51037e+15
2.49957e+15
2.48912e+15
2.47884e+15
2.46858e+15
2.45819e+15
2.44752e+15
2.4364e+15
2.42467e+15
2.41206e+15
2.3982e+15
2.3824e+15
2.36329e+15
2.33851e+15
2.30244e+15
2.25168e+15
2.15687e+15
1.99686e+15
1.11337e+15
1.88584e+15
3.61944e+15
4.69584e+15
5.40508e+15
5.87606e+15
6.21632e+15
6.46773e+15
6.64744e+15
6.76806e+15
6.83804e+15
6.86472e+15
6.8537e+15
6.80373e+15
6.71677e+15
6.57532e+15
6.38187e+15
6.07947e+15
5.68283e+15
4.97284e+15
4.48021e+15
4.15061e+15
3.91711e+15
3.74317e+15
3.61031e+15
3.50675e+15
3.42437e+15
3.35766e+15
3.30282e+15
3.25716e+15
3.21867e+15
3.18588e+15
3.15763e+15
3.13303e+15
3.11138e+15
3.0921e+15
3.07473e+15
3.05887e+15
3.0442e+15
3.03042e+15
3.01729e+15
3.00458e+15
2.99209e+15
2.97963e+15
2.967e+15
2.95403e+15
2.94053e+15
2.92629e+15
2.91102e+15
2.89428e+15
2.8753e+15
2.85249e+15
2.82302e+15
2.78005e+15
2.71719e+15
2.59478e+15
2.36558e+15
1.3038e+15
2.18748e+15
4.19767e+15
5.43992e+15
6.2541e+15
6.79511e+15
7.18866e+15
7.47912e+15
7.68515e+15
7.82219e+15
7.90127e+15
7.93084e+15
7.91667e+15
7.85819e+15
7.75493e+15
7.59105e+15
7.36192e+15
7.0133e+15
6.54731e+15
5.76294e+15
5.20436e+15
4.82383e+15
4.55163e+15
4.34797e+15
4.192e+15
4.07023e+15
3.97327e+15
3.89473e+15
3.83016e+15
3.77641e+15
3.73112e+15
3.69255e+15
3.65934e+15
3.63045e+15
3.60503e+15
3.58242e+15
3.56206e+15
3.54349e+15
3.52632e+15
3.51021e+15
3.49486e+15
3.48001e+15
3.46542e+15
3.45086e+15
3.43611e+15
3.42098e+15
3.40523e+15
3.38865e+15
3.37093e+15
3.35161e+15
3.32986e+15
3.30398e+15
3.27079e+15
3.22239e+15
3.1496e+15
3.00298e+15
2.71063e+15
1.48892e+15
2.50697e+15
4.76458e+15
6.14482e+15
7.04649e+15
7.65011e+15
8.08898e+15
8.40983e+15
8.63599e+15
8.78525e+15
8.87062e+15
8.90145e+15
8.88354e+15
8.81658e+15
8.69819e+15
8.51315e+15
8.25145e+15
7.86066e+15
7.33394e+15
6.48862e+15
5.87343e+15
5.44749e+15
5.13985e+15
4.90849e+15
4.73077e+15
4.59174e+15
4.4809e+15
4.39106e+15
4.31718e+15
4.25568e+15
4.20387e+15
4.15976e+15
4.1218e+15
4.08879e+15
4.05978e+15
4.03399e+15
4.01077e+15
3.98962e+15
3.97006e+15
3.95173e+15
3.93427e+15
3.91739e+15
3.90081e+15
3.88426e+15
3.86751e+15
3.85032e+15
3.83247e+15
3.8137e+15
3.79373e+15
3.77208e+15
3.74795e+15
3.71962e+15
3.68374e+15
3.6317e+15
3.55212e+15
3.38742e+15
3.04401e+15
1.68239e+15
2.86827e+15
5.33469e+15
6.82046e+15
7.78903e+15
8.44604e+15
8.91964e+15
9.26211e+15
9.50181e+15
9.65888e+15
9.7478e+15
9.77842e+15
9.75636e+15
9.68121e+15
9.54899e+15
9.34447e+15
9.05363e+15
8.62537e+15
8.0467e+15
7.15173e+15
6.48844e+15
6.02245e+15
5.68269e+15
5.42575e+15
5.22773e+15
5.07247e+15
4.94851e+15
4.84794e+15
4.76522e+15
4.69634e+15
4.63832e+15
4.58894e+15
4.54646e+15
4.50954e+15
4.4771e+15
4.44828e+15
4.42236e+15
4.39875e+15
4.37695e+15
4.35651e+15
4.33706e+15
4.31826e+15
4.29979e+15
4.28137e+15
4.26274e+15
4.24363e+15
4.2238e+15
4.20301e+15
4.18098e+15
4.15729e+15
4.13119e+15
4.10106e+15
4.06363e+15
4.01001e+15
3.92765e+15
3.75337e+15
3.37678e+15
1.90117e+15
3.30555e+15
5.92157e+15
7.47424e+15
8.48843e+15
9.18269e+15
9.67871e+15
1.00342e+16
1.02816e+16
1.04429e+16
1.05333e+16
1.05629e+16
1.05368e+16
1.04541e+16
1.03097e+16
1.00878e+16
9.77156e+15
9.31105e+15
8.6891e+15
7.75422e+15
7.05061e+15
6.54972e+15
6.18113e+15
5.90083e+15
5.68402e+15
5.5136e+15
5.37732e+15
5.26665e+15
5.17557e+15
5.09971e+15
5.03581e+15
4.98143e+15
4.93467e+15
4.89404e+15
4.85836e+15
4.82668e+15
4.79821e+15
4.77229e+15
4.74836e+15
4.72594e+15
4.70462e+15
4.68401e+15
4.66378e+15
4.6436e+15
4.62319e+15
4.60228e+15
4.58062e+15
4.55798e+15
4.53409e+15
4.50863e+15
4.48098e+15
4.44973e+15
4.41191e+15
4.35894e+15
4.27839e+15
4.10496e+15
3.71909e+15
2.16929e+15
3.87672e+15
6.53907e+15
8.11002e+15
9.1427e+15
9.85377e+15
1.03601e+16
1.07217e+16
1.0973e+16
1.11365e+16
1.12277e+16
1.12562e+16
1.12267e+16
1.11377e+16
1.09829e+16
1.07463e+16
1.04086e+16
9.92147e+15
9.26459e+15
8.29813e+15
7.56134e+15
7.03043e+15
6.63629e+15
6.3349e+15
6.1009e+15
5.91647e+15
5.76872e+15
5.6486e+15
5.54967e+15
5.46724e+15
5.3978e+15
5.33871e+15
5.28791e+15
5.24379e+15
5.20507e+15
5.17069e+15
5.13982e+15
5.11172e+15
5.0858e+15
5.06153e+15
5.03845e+15
5.01616e+15
4.99427e+15
4.97245e+15
4.95039e+15
4.92781e+15
4.90445e+15
4.8801e+15
4.85456e+15
4.8276e+15
4.79879e+15
4.76705e+15
4.73001e+15
4.67995e+15
4.60601e+15
4.44503e+15
4.07962e+15
2.52366e+15
4.64502e+15
7.17925e+15
8.70849e+15
9.73213e+15
1.04457e+16
1.09559e+16
1.13208e+16
1.15749e+16
1.17406e+16
1.18328e+16
1.1861e+16
1.18291e+16
1.17353e+16
1.15723e+16
1.13236e+16
1.09686e+16
1.04606e+16
9.77645e+15
8.78551e+15
8.02204e+15
7.4655e+15
7.04883e+15
6.72853e+15
6.47894e+15
6.28168e+15
6.12335e+15
5.99447e+15
5.88825e+15
5.7997e+15
5.7251e+15
5.66162e+15
5.60705e+15
5.55966e+15
5.51809e+15
5.48121e+15
5.4481e+15
5.41798e+15
5.3902e+15
5.36421e+15
5.3395e+15
5.31563e+15
5.29221e+15
5.26887e+15
5.24528e+15
5.22115e+15
5.19624e+15
5.17034e+15
5.14333e+15
5.11511e+15
5.08552e+15
5.0539e+15
5.0187e+15
4.97364e+15
4.9108e+15
4.77381e+15
4.46201e+15
3.02331e+15
2.45263e+15
1.94098e+15
1.60639e+15
1.36747e+15
1.18134e+15
1.02414e+15
8.81527e+14
7.4386e+14
6.03431e+14
4.54069e+14
3.6612e+15
3.22358e+15
2.84309e+15
2.50781e+15
2.20395e+15
1.91995e+15
1.64622e+15
1.37479e+15
1.09837e+15
8.11413e+14
4.02765e+15
3.63694e+15
3.2633e+15
2.90547e+15
2.5598e+15
2.22241e+15
1.88956e+15
1.55796e+15
1.22479e+15
8.87977e+14
4.22025e+15
3.85142e+15
3.48407e+15
3.11938e+15
2.75693e+15
2.39602e+15
2.03567e+15
1.67501e+15
1.31313e+15
9.48795e+14
4.32885e+15
3.97032e+15
3.60641e+15
3.23894e+15
2.86868e+15
2.49621e+15
2.1218e+15
1.74565e+15
1.36788e+15
9.87603e+14
4.4052e+15
4.05094e+15
3.68779e+15
3.31791e+15
2.94257e+15
2.56294e+15
2.17985e+15
1.79399e+15
1.40601e+15
1.01507e+15
4.46238e+15
4.10925e+15
3.74535e+15
3.37299e+15
2.9937e+15
2.60894e+15
2.21981e+15
1.82726e+15
1.43228e+15
1.03402e+15
4.50896e+15
4.15528e+15
3.78975e+15
3.41479e+15
3.03207e+15
2.64319e+15
2.24944e+15
1.85188e+15
1.4517e+15
1.04805e+15
4.54867e+15
4.19359e+15
3.82601e+15
3.44844e+15
3.06262e+15
2.67025e+15
2.27271e+15
1.87114e+15
1.46686e+15
1.05902e+15
4.58362e+15
4.22672e+15
3.85695e+15
3.47682e+15
3.08816e+15
2.69271e+15
2.29194e+15
1.88701e+15
1.47933e+15
1.06805e+15
4.61502e+15
4.25615e+15
3.88414e+15
3.50157e+15
3.11029e+15
2.71209e+15
2.30846e+15
1.90062e+15
1.49001e+15
1.07578e+15
4.64368e+15
4.28281e+15
3.90863e+15
3.52374e+15
3.13002e+15
2.7293e+15
2.3231e+15
1.91266e+15
1.49945e+15
1.08262e+15
4.67024e+15
4.3074e+15
3.93111e+15
3.54402e+15
3.14802e+15
2.74497e+15
2.33641e+15
1.92359e+15
1.50802e+15
1.08884e+15
4.69524e+15
4.33046e+15
3.95215e+15
3.56294e+15
3.16479e+15
2.75955e+15
2.34878e+15
1.93375e+15
1.51599e+15
1.09462e+15
4.71916e+15
4.35249e+15
3.9722e+15
3.58096e+15
3.18074e+15
2.7734e+15
2.36052e+15
1.94339e+15
1.52354e+15
1.10011e+15
4.74247e+15
4.37393e+15
3.99169e+15
3.59846e+15
3.19621e+15
2.78683e+15
2.37191e+15
1.95273e+15
1.53087e+15
1.10543e+15
4.76562e+15
4.3952e+15
4.01102e+15
3.61581e+15
3.21154e+15
2.80013e+15
2.38318e+15
1.96198e+15
1.53812e+15
1.1107e+15
4.78906e+15
4.41672e+15
4.03057e+15
3.63334e+15
3.22703e+15
2.81356e+15
2.39456e+15
1.97131e+15
1.54544e+15
1.11602e+15
4.81325e+15
4.43893e+15
4.05073e+15
3.65141e+15
3.24299e+15
2.8274e+15
2.40628e+15
1.98093e+15
1.55297e+15
1.1215e+15
4.83868e+15
4.46227e+15
4.07192e+15
3.6704e+15
3.25976e+15
2.84193e+15
2.41859e+15
1.99102e+15
1.56088e+15
1.12724e+15
4.86589e+15
4.48723e+15
4.09456e+15
3.69069e+15
3.27767e+15
2.85745e+15
2.43172e+15
2.00178e+15
1.56931e+15
1.13336e+15
4.89545e+15
4.51434e+15
4.11916e+15
3.71271e+15
3.2971e+15
2.87429e+15
2.44597e+15
2.01345e+15
1.57844e+15
1.13998e+15
4.92802e+15
4.5442e+15
4.14624e+15
3.73696e+15
3.31849e+15
2.89281e+15
2.46163e+15
2.02628e+15
1.58848e+15
1.14725e+15
4.96436e+15
4.57752e+15
4.17644e+15
3.764e+15
3.34233e+15
2.91345e+15
2.47908e+15
2.04056e+15
1.59964e+15
1.15533e+15
5.00536e+15
4.61509e+15
4.21049e+15
3.79446e+15
3.36919e+15
2.93669e+15
2.49872e+15
2.05663e+15
1.61219e+15
1.1644e+15
5.05205e+15
4.65786e+15
4.24924e+15
3.82913e+15
3.39973e+15
2.96311e+15
2.52104e+15
2.07488e+15
1.62643e+15
1.1747e+15
5.10568e+15
4.70697e+15
4.29372e+15
3.8689e+15
3.43477e+15
2.9934e+15
2.54662e+15
2.09579e+15
1.64274e+15
1.18647e+15
5.16774e+15
4.76378e+15
4.34515e+15
3.91487e+15
3.47525e+15
3.02839e+15
2.57615e+15
2.11992e+15
1.66155e+15
1.20005e+15
5.24006e+15
4.82995e+15
4.40504e+15
3.96837e+15
3.52234e+15
3.06909e+15
2.61048e+15
2.14796e+15
1.6834e+15
1.2158e+15
5.32487e+15
4.90752e+15
4.47521e+15
4.03105e+15
3.57749e+15
3.11672e+15
2.65066e+15
2.18077e+15
1.70895e+15
1.23421e+15
5.42497e+15
4.99903e+15
4.55796e+15
4.10493e+15
3.64248e+15
3.17284e+15
2.69797e+15
2.21939e+15
1.73902e+15
1.25586e+15
5.54388e+15
5.1077e+15
4.65619e+15
4.19261e+15
3.71959e+15
3.23941e+15
2.75408e+15
2.26517e+15
1.77465e+15
1.28152e+15
5.68612e+15
5.23765e+15
4.77364e+15
4.29744e+15
3.81176e+15
3.31897e+15
2.82114e+15
2.31989e+15
1.81722e+15
1.31215e+15
5.85756e+15
5.39428e+15
4.91523e+15
4.42382e+15
3.9229e+15
3.41492e+15
2.90202e+15
2.38588e+15
1.86857e+15
1.34909e+15
6.06602e+15
5.58484e+15
5.08758e+15
4.57778e+15
4.05839e+15
3.53196e+15
3.00074e+15
2.46647e+15
1.93129e+15
1.39422e+15
6.32182e+15
5.81898e+15
5.29967e+15
4.76752e+15
4.22562e+15
3.67664e+15
3.12292e+15
2.56633e+15
2.00907e+15
1.45019e+15
6.63826e+15
6.10928e+15
5.56337e+15
5.00417e+15
4.43488e+15
3.85824e+15
3.27669e+15
2.69226e+15
2.10727e+15
1.52089e+15
7.03458e+15
6.47464e+15
5.89717e+15
5.30569e+15
4.70334e+15
4.0929e+15
3.47683e+15
2.85724e+15
2.23659e+15
1.6143e+15
7.54317e+15
6.94739e+15
6.3331e+15
5.70377e+15
5.06242e+15
4.4116e+15
3.75341e+15
3.08961e+15
2.42222e+15
1.75014e+15
8.16724e+15
7.53026e+15
6.87545e+15
6.20602e+15
5.52435e+15
4.83209e+15
4.13014e+15
3.41847e+15
2.6975e+15
1.95815e+15
8.50773e+15
7.83181e+15
7.13968e+15
6.43405e+15
5.71669e+15
4.9887e+15
4.25074e+15
3.50334e+15
2.7484e+15
1.98447e+15
8.70061e+15
7.99624e+15
7.27938e+15
6.55236e+15
5.81653e+15
5.07241e+15
4.32006e+15
3.55949e+15
2.79203e+15
2.01609e+15
8.77856e+15
8.05358e+15
7.32042e+15
6.58072e+15
5.83514e+15
5.08433e+15
4.32844e+15
3.56648e+15
2.79832e+15
2.02145e+15
8.78678e+15
8.05088e+15
7.31103e+15
6.56794e+15
5.82169e+15
5.07178e+15
4.31748e+15
3.55761e+15
2.79183e+15
2.01719e+15
8.75473e+15
8.01491e+15
7.27398e+15
6.53255e+15
5.7901e+15
5.04478e+15
4.29504e+15
3.53955e+15
2.77795e+15
2.00741e+15
8.70596e+15
7.96753e+15
7.22924e+15
6.49243e+15
5.75486e+15
5.01432e+15
4.26923e+15
3.51835e+15
2.76108e+15
1.99546e+15
8.64617e+15
7.91285e+15
7.18034e+15
6.44836e+15
5.7154e+15
4.97953e+15
4.2392e+15
3.49324e+15
2.74077e+15
1.98103e+15
8.56941e+15
7.8432e+15
7.11748e+15
6.39164e+15
5.66455e+15
4.93457e+15
4.20028e+15
3.46057e+15
2.71442e+15
1.96229e+15
8.46357e+15
7.74593e+15
7.0289e+15
6.31163e+15
5.59295e+15
4.87144e+15
4.1458e+15
3.41499e+15
2.67805e+15
1.93638e+15
8.31615e+15
7.60911e+15
6.90332e+15
6.19762e+15
5.49079e+15
4.78144e+15
4.06832e+15
3.35044e+15
2.62696e+15
1.89994e+15
8.11201e+15
7.41779e+15
6.72635e+15
6.03614e+15
5.34571e+15
4.65356e+15
3.95836e+15
3.25914e+15
2.55511e+15
1.8486e+15
7.83234e+15
7.15314e+15
6.47955e+15
5.80956e+15
5.14135e+15
4.47311e+15
3.80326e+15
3.13064e+15
2.45432e+15
1.77647e+15
7.4498e+15
6.78652e+15
6.13426e+15
5.49035e+15
4.85216e+15
4.2172e+15
3.58321e+15
2.94853e+15
2.31172e+15
1.67427e+15
6.9238e+15
6.27488e+15
5.64696e+15
5.03629e+15
4.43883e+15
3.85059e+15
3.26791e+15
2.68789e+15
2.1079e+15
1.52811e+15
6.18205e+15
5.53821e+15
4.93627e+15
4.36969e+15
3.83045e+15
3.31092e+15
2.80439e+15
2.30543e+15
1.80923e+15
1.31379e+15
5.08748e+15
4.42486e+15
3.85515e+15
3.35751e+15
2.91169e+15
2.50126e+15
2.11345e+15
1.73868e+15
1.36882e+15
9.9896e+14
3.26152e+15
2.5522e+15
2.0818e+15
1.74277e+15
1.47852e+15
1.25765e+15
1.0615e+15
8.78438e+14
6.99193e+14
5.17893e+14
5.257e+15
5.91858e+15
6.79971e+15
7.94513e+15
9.42845e+15
1.13609e+16
1.39173e+16
1.73917e+16
2.23347e+16
2.99651e+16
4.39244e+16
6.04145e+15
6.80154e+15
7.81406e+15
9.13018e+15
1.08341e+16
1.30532e+16
1.59873e+16
1.99712e+16
2.56273e+16
3.43124e+16
4.98379e+16
6.98339e+15
7.86287e+15
9.03383e+15
1.05552e+16
1.25237e+16
1.50853e+16
1.84677e+16
2.30497e+16
2.95247e+16
3.93517e+16
5.62199e+16
8.13409e+15
9.16145e+15
1.05268e+16
1.22991e+16
1.45896e+16
1.75655e+16
2.14854e+16
2.67731e+16
3.41831e+16
4.52125e+16
6.3141e+16
9.36236e+15
1.0551e+16
1.21252e+16
1.41652e+16
1.6797e+16
2.02084e+16
2.46859e+16
3.06886e+16
3.90035e+16
5.10809e+16
6.96496e+16
1.05369e+16
1.18829e+16
1.36581e+16
1.59534e+16
1.89084e+16
2.27283e+16
2.77206e+16
3.43663e+16
4.34561e+16
5.63405e+16
7.52279e+16
1.16535e+16
1.31519e+16
1.51188e+16
1.76558e+16
2.09141e+16
2.51129e+16
3.05748e+16
3.77909e+16
4.75333e+16
6.10281e+16
8.00402e+16
1.27094e+16
1.43542e+16
1.65029e+16
1.92669e+16
2.28075e+16
2.73546e+16
3.32403e+16
4.09556e+16
5.12397e+16
6.51869e+16
8.42042e+16
1.37025e+16
1.54866e+16
1.78064e+16
2.07819e+16
2.45828e+16
2.94469e+16
3.57106e+16
4.38573e+16
5.45838e+16
6.88573e+16
8.78036e+16
1.46399e+16
1.65567e+16
1.90377e+16
2.22104e+16
2.62514e+16
3.14036e+16
3.80038e+16
4.65215e+16
5.76062e+16
7.21067e+16
9.09297e+16
1.55634e+16
1.76118e+16
2.02508e+16
2.36149e+16
2.78861e+16
3.33103e+16
4.02205e+16
4.90674e+16
6.04485e+16
7.51007e+16
9.3753e+16
1.65136e+16
1.86981e+16
2.14985e+16
2.50555e+16
2.95554e+16
3.52445e+16
4.24482e+16
5.15925e+16
6.32173e+16
7.79507e+16
9.63727e+16
1.75073e+16
1.98342e+16
2.28011e+16
2.6554e+16
3.12818e+16
3.72283e+16
4.47064e+16
5.41107e+16
6.59178e+16
8.06499e+16
9.87596e+16
1.84561e+16
2.09183e+16
2.40404e+16
2.79719e+16
3.29017e+16
3.90678e+16
4.67663e+16
5.63561e+16
6.82505e+16
8.28769e+16
1.00587e+17
1.92388e+16
2.18114e+16
2.50564e+16
2.91248e+16
3.42033e+16
4.05217e+16
4.83574e+16
5.80348e+16
6.99112e+16
8.43378e+16
1.01592e+17
1.98193e+16
2.24718e+16
2.58019e+16
2.99602e+16
3.51295e+16
4.153e+16
4.94208e+16
5.90954e+16
7.08644e+16
8.50197e+16
1.01782e+17
2.0196e+16
2.28978e+16
2.62756e+16
3.0478e+16
3.56827e+16
4.21e+16
4.9972e+16
5.95653e+16
7.11525e+16
8.49794e+16
1.01221e+17
2.03683e+16
2.30891e+16
2.64777e+16
3.06798e+16
3.58672e+16
4.22405e+16
5.00265e+16
5.94695e+16
7.08121e+16
8.4264e+16
9.99643e+16
2.03358e+16
2.30456e+16
2.6409e+16
3.05679e+16
3.56878e+16
4.19602e+16
4.95986e+16
5.88296e+16
6.98734e+16
8.29133e+16
9.80585e+16
2.00994e+16
2.27689e+16
2.60722e+16
3.01466e+16
3.51512e+16
4.1269e+16
4.87027e+16
5.76659e+16
6.83638e+16
8.09618e+16
9.55464e+16
1.96602e+16
2.22609e+16
2.54703e+16
2.94205e+16
3.4264e+16
4.0176e+16
4.7351e+16
5.59941e+16
6.63028e+16
7.84344e+16
9.24603e+16
1.90202e+16
2.15246e+16
2.46075e+16
2.83951e+16
3.30335e+16
3.86907e+16
4.55548e+16
5.38273e+16
6.37056e+16
7.53498e+16
8.8827e+16
1.81835e+16
2.05654e+16
2.34906e+16
2.70792e+16
3.14704e+16
3.68256e+16
4.33283e+16
5.11801e+16
6.05868e+16
7.17242e+16
8.4671e+16
1.72225e+16
1.94667e+16
2.22171e+16
2.55875e+16
2.97103e+16
3.47405e+16
4.08584e+16
4.82689e+16
5.7193e+16
6.78368e+16
8.03109e+16
1.62667e+16
1.83763e+16
2.09572e+16
2.41173e+16
2.79826e+16
3.27025e+16
3.84542e+16
4.54472e+16
5.39208e+16
6.41202e+16
7.62073e+16
1.53473e+16
1.73293e+16
1.97503e+16
2.27127e+16
2.63365e+16
3.07656e+16
3.61743e+16
4.2776e+16
5.08291e+16
6.0623e+16
7.23886e+16
1.44399e+16
1.62978e+16
1.85633e+16
2.13342e+16
2.47243e+16
2.88717e+16
3.39475e+16
4.01681e+16
4.78104e+16
5.72126e+16
6.86939e+16
1.34993e+16
1.523e+16
1.73367e+16
1.99122e+16
2.30638e+16
2.69236e+16
3.16581e+16
3.74856e+16
4.47006e+16
5.36955e+16
6.4903e+16
1.24951e+16
1.40917e+16
1.60314e+16
1.84013e+16
2.13023e+16
2.48591e+16
2.92322e+16
3.46396e+16
4.1392e+16
4.99405e+16
6.08646e+16
1.14271e+16
1.28828e+16
1.46471e+16
1.68018e+16
1.94401e+16
2.26783e+16
2.66694e+16
3.16278e+16
3.78761e+16
4.59257e+16
5.65392e+16
1.02952e+16
1.16032e+16
1.31843e+16
1.51143e+16
1.7478e+16
2.03825e+16
2.39706e+16
2.84491e+16
3.4146e+16
4.16274e+16
5.18749e+16
9.10196e+15
1.0256e+16
1.16465e+16
1.33432e+16
1.54217e+16
1.79782e+16
2.11432e+16
2.5111e+16
3.02047e+16
3.70301e+16
4.68104e+16
7.84868e+15
8.84265e+15
1.00357e+16
1.14911e+16
1.32743e+16
1.54696e+16
1.81923e+16
2.16185e+16
2.60534e+16
3.21137e+16
4.12528e+16
6.55646e+15
7.38675e+15
8.37969e+15
9.59068e+15
1.10747e+16
1.29026e+16
1.51725e+16
1.80367e+16
2.17669e+16
2.69463e+16
3.51671e+16
5.48165e+15
6.17537e+15
7.00378e+15
8.01442e+15
9.25315e+15
1.07794e+16
1.26758e+16
1.5071e+16
1.81976e+16
2.2566e+16
2.96929e+16
3.51955e+15
3.83668e+15
4.21321e+15
4.57185e+15
4.90605e+15
5.21569e+15
5.50061e+15
5.76147e+15
5.99907e+15
6.22151e+15
6.43933e+15
6.65637e+15
6.86241e+15
7.02742e+15
7.13873e+15
7.19799e+15
7.20697e+15
7.16711e+15
7.07934e+15
6.94487e+15
6.76359e+15
6.53649e+15
6.27347e+15
6.00481e+15
5.75116e+15
5.50617e+15
5.25803e+15
4.9949e+15
4.71415e+15
4.41557e+15
4.09906e+15
3.76507e+15
3.449e+15
3.1882e+15
2.96997e+15
4.72898e+15
4.90461e+15
5.12252e+15
5.33849e+15
5.54672e+15
5.74534e+15
5.93264e+15
6.10768e+15
6.26985e+15
6.42381e+15
6.57632e+15
6.72964e+15
6.87581e+15
6.99219e+15
7.06847e+15
7.10487e+15
7.10204e+15
7.06067e+15
6.98139e+15
6.86525e+15
6.71278e+15
6.52531e+15
6.31154e+15
6.09657e+15
5.89663e+15
5.70647e+15
5.51705e+15
5.32e+15
5.11439e+15
4.90134e+15
4.68221e+15
4.4589e+15
4.25589e+15
4.09435e+15
3.96332e+15
4.98547e+15
5.12238e+15
5.28865e+15
5.45115e+15
5.60656e+15
5.75417e+15
5.89317e+15
6.02315e+15
6.14377e+15
6.25857e+15
6.37265e+15
6.48778e+15
6.59804e+15
6.68606e+15
6.74347e+15
6.7699e+15
6.76548e+15
6.73049e+15
6.66539e+15
6.57099e+15
6.44802e+15
6.29754e+15
6.12677e+15
5.95607e+15
5.79804e+15
5.64829e+15
5.49954e+15
5.34516e+15
5.18436e+15
5.01784e+15
4.84637e+15
4.67096e+15
4.51025e+15
4.38102e+15
4.27498e+15
5.09981e+15
5.22072e+15
5.36536e+15
5.5049e+15
5.63691e+15
5.76118e+15
5.87738e+15
5.98542e+15
6.08527e+15
6.17999e+15
6.27387e+15
6.36839e+15
6.4586e+15
6.53017e+15
6.5763e+15
6.59673e+15
6.59154e+15
6.56092e+15
6.50522e+15
6.42494e+15
6.32061e+15
6.19299e+15
6.04812e+15
5.90315e+15
5.76877e+15
5.64122e+15
5.51426e+15
5.38212e+15
5.24395e+15
5.10016e+15
4.95114e+15
4.79749e+15
4.65535e+15
4.54002e+15
4.44461e+15
5.15267e+15
5.26654e+15
5.40153e+15
5.53061e+15
5.65174e+15
5.76492e+15
5.87002e+15
5.96712e+15
6.05635e+15
6.14057e+15
6.22362e+15
6.3068e+15
6.38577e+15
6.448e+15
6.48768e+15
6.5047e+15
6.49918e+15
6.4713e+15
6.42132e+15
6.34967e+15
6.25671e+15
6.143e+15
6.0137e+15
5.88399e+15
5.76336e+15
5.64848e+15
5.53368e+15
5.4137e+15
5.28762e+15
5.15567e+15
5.01808e+15
4.87523e+15
4.74205e+15
4.63325e+15
4.54273e+15
5.19315e+15
5.30379e+15
5.43436e+15
5.55864e+15
5.67472e+15
5.7827e+15
5.88253e+15
5.97439e+15
6.05848e+15
6.13756e+15
6.21527e+15
6.29281e+15
6.36612e+15
6.42362e+15
6.46006e+15
6.47547e+15
6.47002e+15
6.44391e+15
6.39738e+15
6.33078e+15
6.24436e+15
6.13849e+15
6.01784e+15
5.89643e+15
5.78319e+15
5.675e+15
5.56656e+15
5.45282e+15
5.33287e+15
5.20684e+15
5.07485e+15
4.9372e+15
4.80828e+15
4.70255e+15
4.61429e+15
5.22652e+15
5.33584e+15
5.46457e+15
5.58683e+15
5.70074e+15
5.80645e+15
5.90396e+15
5.9935e+15
6.07529e+15
6.15207e+15
6.22737e+15
6.30238e+15
6.37315e+15
6.42858e+15
6.4637e+15
6.4786e+15
6.47351e+15
6.44864e+15
6.40422e+15
6.34054e+15
6.25779e+15
6.15622e+15
6.0402e+15
5.92317e+15
5.81376e+15
5.70899e+15
5.60375e+15
5.49312e+15
5.37617e+15
5.25297e+15
5.12362e+15
4.98835e+15
4.86133e+15
4.75691e+15
4.66959e+15
5.25772e+15
5.36671e+15
5.49494e+15
5.61656e+15
5.72977e+15
5.8347e+15
5.93139e+15
6.02009e+15
6.10104e+15
6.17696e+15
6.25137e+15
6.32544e+15
6.39531e+15
6.45005e+15
6.48482e+15
6.49975e+15
6.49511e+15
6.47111e+15
6.42796e+15
6.36592e+15
6.28516e+15
6.18585e+15
6.07219e+15
5.95734e+15
5.84979e+15
5.74665e+15
5.64289e+15
5.53367e+15
5.41802e+15
5.29601e+15
5.16771e+15
5.03332e+15
4.90693e+15
4.8029e+15
4.71581e+15
5.28765e+15
5.39682e+15
5.5252e+15
5.64692e+15
5.76016e+15
5.86507e+15
5.96171e+15
6.05031e+15
6.13116e+15
6.20697e+15
6.28126e+15
6.35521e+15
6.425e+15
6.47975e+15
6.51465e+15
6.52987e+15
6.52567e+15
6.50228e+15
6.45989e+15
6.39876e+15
6.31902e+15
6.2208e+15
6.10824e+15
5.99434e+15
5.88756e+15
5.78505e+15
5.68185e+15
5.5731e+15
5.45785e+15
5.33615e+15
5.20805e+15
5.07375e+15
4.94732e+15
4.84319e+15
4.75597e+15
5.31656e+15
5.42617e+15
5.55506e+15
5.67723e+15
5.79086e+15
5.89613e+15
5.99308e+15
6.08198e+15
6.16309e+15
6.23915e+15
6.3137e+15
6.38793e+15
6.45803e+15
6.51311e+15
6.54836e+15
6.56395e+15
6.56014e+15
6.53717e+15
6.49524e+15
6.43457e+15
6.35528e+15
6.25751e+15
6.14532e+15
6.0317e+15
5.92509e+15
5.82269e+15
5.71952e+15
5.61075e+15
5.49542e+15
5.37356e+15
5.24522e+15
5.11059e+15
4.98379e+15
4.87931e+15
4.79176e+15
5.34444e+15
5.45461e+15
5.58415e+15
5.70693e+15
5.82115e+15
5.92695e+15
6.0244e+15
6.11376e+15
6.1953e+15
6.27178e+15
6.34675e+15
6.42145e+15
6.49203e+15
6.54758e+15
6.58325e+15
6.59921e+15
6.59574e+15
6.57307e+15
6.53139e+15
6.47092e+15
6.39177e+15
6.29406e+15
6.18186e+15
6.06813e+15
5.96138e+15
5.85879e+15
5.7554e+15
5.64635e+15
5.53067e+15
5.40841e+15
5.2796e+15
5.14444e+15
5.0171e+15
4.91214e+15
4.82418e+15
5.37128e+15
5.48205e+15
5.61231e+15
5.73578e+15
5.85064e+15
5.95705e+15
6.05507e+15
6.14496e+15
6.22701e+15
6.30397e+15
6.37945e+15
6.45467e+15
6.5258e+15
6.58186e+15
6.61796e+15
6.63428e+15
6.63109e+15
6.60862e+15
6.56706e+15
6.50663e+15
6.42744e+15
6.32959e+15
6.21715e+15
6.10312e+15
5.99605e+15
5.89312e+15
5.78936e+15
5.67989e+15
5.56375e+15
5.44097e+15
5.31159e+15
5.1758e+15
5.04783e+15
4.94235e+15
4.85394e+15
5.39716e+15
5.50854e+15
5.63953e+15
5.76371e+15
5.87924e+15
5.98628e+15
6.0849e+15
6.17535e+15
6.25792e+15
6.33539e+15
6.41138e+15
6.48715e+15
6.55885e+15
6.61541e+15
6.65192e+15
6.66857e+15
6.66561e+15
6.64327e+15
6.60176e+15
6.54128e+15
6.46192e+15
6.36381e+15
6.25102e+15
6.13659e+15
6.0291e+15
5.92576e+15
5.82156e+15
5.71161e+15
5.59494e+15
5.47159e+15
5.34158e+15
5.20512e+15
5.07651e+15
4.97049e+15
4.88161e+15
5.42224e+15
5.53424e+15
5.66596e+15
5.79085e+15
5.90704e+15
6.01472e+15
6.11393e+15
6.20494e+15
6.28803e+15
6.36601e+15
6.44252e+15
6.51883e+15
6.59107e+15
6.64813e+15
6.68503e+15
6.70197e+15
6.6992e+15
6.67696e+15
6.63543e+15
6.57484e+15
6.49526e+15
6.39683e+15
6.28361e+15
6.16871e+15
6.06077e+15
5.95697e+15
5.8523e+15
5.74185e+15
5.62462e+15
5.50067e+15
5.37002e+15
5.23288e+15
5.10361e+15
4.99705e+15
4.90771e+15
5.44678e+15
5.55938e+15
5.69183e+15
5.81742e+15
5.93427e+15
6.04258e+15
6.14237e+15
6.23394e+15
6.31755e+15
6.39603e+15
6.47304e+15
6.54988e+15
6.62266e+15
6.68019e+15
6.71746e+15
6.73466e+15
6.73206e+15
6.70988e+15
6.6683e+15
6.60756e+15
6.52773e+15
6.42892e+15
6.31524e+15
6.19986e+15
6.09143e+15
5.98716e+15
5.882e+15
5.77102e+15
5.65323e+15
5.52867e+15
5.39737e+15
5.25954e+15
5.12962e+15
5.02251e+15
4.93272e+15
5.47106e+15
5.58427e+15
5.71744e+15
5.84372e+15
5.96124e+15
6.07016e+15
6.17055e+15
6.26266e+15
6.34679e+15
6.42576e+15
6.50327e+15
6.58063e+15
6.65394e+15
6.71192e+15
6.74955e+15
6.767e+15
6.76454e+15
6.74239e+15
6.70075e+15
6.63983e+15
6.55972e+15
6.46052e+15
6.34635e+15
6.23045e+15
6.12153e+15
6.01677e+15
5.9111e+15
5.79959e+15
5.68123e+15
5.55605e+15
5.42411e+15
5.28558e+15
5.15501e+15
5.04736e+15
4.95711e+15
5.49543e+15
5.60924e+15
5.74314e+15
5.87012e+15
5.98831e+15
6.09786e+15
6.19883e+15
6.2915e+15
6.37614e+15
6.4556e+15
6.53362e+15
6.6115e+15
6.68533e+15
6.74377e+15
6.78174e+15
6.79943e+15
6.7971e+15
6.77498e+15
6.73325e+15
6.67213e+15
6.59171e+15
6.4921e+15
6.37743e+15
6.261e+15
6.15156e+15
6.0463e+15
5.94012e+15
5.82806e+15
5.70911e+15
5.58332e+15
5.45071e+15
5.31149e+15
5.18026e+15
5.07206e+15
4.98135e+15
5.52027e+15
5.6347e+15
5.76934e+15
5.89704e+15
6.0159e+15
6.1261e+15
6.22767e+15
6.3209e+15
6.40607e+15
6.48604e+15
6.56457e+15
6.64297e+15
6.71733e+15
6.77622e+15
6.81455e+15
6.83247e+15
6.83027e+15
6.80816e+15
6.76633e+15
6.70501e+15
6.62427e+15
6.52422e+15
6.40902e+15
6.29203e+15
6.18207e+15
6.07629e+15
5.96958e+15
5.85695e+15
5.7374e+15
5.61097e+15
5.47768e+15
5.33774e+15
5.20584e+15
5.09708e+15
5.0059e+15
5.54599e+15
5.66107e+15
5.79648e+15
5.92493e+15
6.04449e+15
6.15535e+15
6.25755e+15
6.35137e+15
6.43708e+15
6.51758e+15
6.59664e+15
6.67559e+15
6.75049e+15
6.80986e+15
6.84855e+15
6.86672e+15
6.86464e+15
6.84254e+15
6.8006e+15
6.73905e+15
6.65797e+15
6.55746e+15
6.44171e+15
6.32414e+15
6.21362e+15
6.1073e+15
6.00004e+15
5.88682e+15
5.76664e+15
5.63954e+15
5.50554e+15
5.36486e+15
5.23225e+15
5.12292e+15
5.03125e+15
5.57305e+15
5.68881e+15
5.82505e+15
5.95428e+15
6.07459e+15
6.18616e+15
6.28902e+15
6.38346e+15
6.46975e+15
6.5508e+15
6.63042e+15
6.70996e+15
6.78544e+15
6.84532e+15
6.88438e+15
6.9028e+15
6.90086e+15
6.87876e+15
6.83672e+15
6.77492e+15
6.69348e+15
6.59249e+15
6.47615e+15
6.35796e+15
6.24684e+15
6.13994e+15
6.0321e+15
5.91826e+15
5.79742e+15
5.6696e+15
5.53486e+15
5.39339e+15
5.26004e+15
5.15009e+15
5.05791e+15
5.60197e+15
5.71847e+15
5.85559e+15
5.98567e+15
6.10679e+15
6.21911e+15
6.32269e+15
6.4178e+15
6.50471e+15
6.58637e+15
6.6666e+15
6.74676e+15
6.82287e+15
6.88329e+15
6.92276e+15
6.94146e+15
6.93966e+15
6.91758e+15
6.8754e+15
6.81335e+15
6.73151e+15
6.63e+15
6.51302e+15
6.39417e+15
6.28242e+15
6.1749e+15
6.06642e+15
5.95191e+15
5.83035e+15
5.70178e+15
5.56623e+15
5.42392e+15
5.28977e+15
5.17916e+15
5.08643e+15
5.63335e+15
5.75065e+15
5.88873e+15
6.01974e+15
6.14174e+15
6.2549e+15
6.35926e+15
6.4551e+15
6.5427e+15
6.62502e+15
6.70591e+15
6.78676e+15
6.86357e+15
6.92458e+15
6.96451e+15
6.98351e+15
6.98187e+15
6.9598e+15
6.91749e+15
6.85516e+15
6.77289e+15
6.6708e+15
6.55314e+15
6.43356e+15
6.32111e+15
6.21291e+15
6.10375e+15
5.98851e+15
5.86617e+15
5.73676e+15
5.60034e+15
5.4571e+15
5.32208e+15
5.21075e+15
5.11742e+15
5.66785e+15
5.78605e+15
5.92519e+15
6.05724e+15
6.18022e+15
6.2943e+15
6.39954e+15
6.49619e+15
6.58456e+15
6.66761e+15
6.74924e+15
6.83087e+15
6.90844e+15
6.97011e+15
7.01055e+15
7.0299e+15
7.02843e+15
7.00638e+15
6.96392e+15
6.90128e+15
6.81855e+15
6.71582e+15
6.59739e+15
6.47701e+15
6.36379e+15
6.25484e+15
6.14492e+15
6.02886e+15
5.90566e+15
5.77533e+15
5.63794e+15
5.49368e+15
5.35769e+15
5.24557e+15
5.15158e+15
5.7063e+15
5.8255e+15
5.96584e+15
6.09904e+15
6.22313e+15
6.33825e+15
6.44447e+15
6.54204e+15
6.63127e+15
6.71515e+15
6.79762e+15
6.88011e+15
6.95855e+15
7.02098e+15
7.06198e+15
7.08172e+15
7.08046e+15
7.05843e+15
7.01581e+15
6.95282e+15
6.86956e+15
6.76612e+15
6.64683e+15
6.52554e+15
6.41146e+15
6.30167e+15
6.19089e+15
6.07393e+15
5.94975e+15
5.8184e+15
5.67991e+15
5.53451e+15
5.39744e+15
5.28443e+15
5.18969e+15
5.74964e+15
5.86998e+15
6.01168e+15
6.14621e+15
6.27154e+15
6.38785e+15
6.49518e+15
6.59381e+15
6.68401e+15
6.76883e+15
6.85226e+15
6.93573e+15
7.01516e+15
7.07845e+15
7.1201e+15
7.14028e+15
7.13925e+15
7.11725e+15
7.07444e+15
7.01106e+15
6.92719e+15
6.82295e+15
6.70268e+15
6.58037e+15
6.46531e+15
6.35456e+15
6.2428e+15
6.12481e+15
5.99953e+15
5.86701e+15
5.72729e+15
5.58059e+15
5.4423e+15
5.32828e+15
5.2327e+15
5.79906e+15
5.9207e+15
6.06397e+15
6.2e+15
6.32677e+15
6.44444e+15
6.55305e+15
6.65288e+15
6.74421e+15
6.83011e+15
6.91463e+15
6.99924e+15
7.0798e+15
7.14407e+15
7.18646e+15
7.20715e+15
7.20638e+15
7.1844e+15
7.14137e+15
7.07753e+15
6.99297e+15
6.88779e+15
6.76639e+15
6.64291e+15
6.52672e+15
6.41487e+15
6.302e+15
6.18282e+15
6.05628e+15
5.92242e+15
5.78128e+15
5.6331e+15
5.49341e+15
5.37824e+15
5.28168e+15
5.85598e+15
5.97913e+15
6.12421e+15
6.26199e+15
6.39043e+15
6.50967e+15
6.61976e+15
6.72097e+15
6.8136e+15
6.90075e+15