/*--------------------------------*- C++ -*----------------------------------*\
| =========                 |                                                 |
| \\      /  F ield         | OpenFOAM: The Open Source CFD Toolbox           |
|  \\    /   O peration     | Version:  2406                                  |
|   \\  /    A nd           | Website:  www.openfoam.com                      |
|    \\/     M anipulation  |                                                 |
\*---------------------------------------------------------------------------*/
FoamFile
{
    version     2.0;
    format      ascii;
    arch        "LSB;label=32;scalar=64";
    class       volScalarField;
    location    "0/neutroRegion";
    object      fluxStar4;
}
// * * * * * * * * * * * * * * * * * * * * * * * * * * * * * * * * * * * * * //

dimensions      [0 -2 -1 0 0 0 0];

internalField   nonuniform List<scalar> 
8595
(
1.47998e+14
3.05513e+14
4.29552e+14
5.24328e+14
5.96103e+14
6.50405e+14
6.91222e+14
7.21314e+14
7.42578e+14
7.56325e+14
7.63454e+14
7.64577e+14
7.60065e+14
7.50236e+14
7.35132e+14
7.15225e+14
6.90603e+14
6.62435e+14
6.30893e+14
6.00078e+14
5.71237e+14
5.44991e+14
5.21611e+14
5.01119e+14
4.83369e+14
4.68122e+14
4.55096e+14
4.44002e+14
4.34565e+14
4.26533e+14
4.19683e+14
4.13817e+14
4.08768e+14
4.0439e+14
4.00562e+14
3.97177e+14
3.94145e+14
3.91388e+14
3.88835e+14
3.86423e+14
3.8409e+14
3.81774e+14
3.79409e+14
3.76916e+14
3.74197e+14
3.7112e+14
3.67502e+14
3.63074e+14
3.5744e+14
3.49998e+14
3.39833e+14
3.25554e+14
3.05051e+14
2.75247e+14
2.31812e+14
1.69861e+14
8.35579e+13
2.10542e+14
4.33455e+14
6.08095e+14
7.4121e+14
8.42005e+14
9.18319e+14
9.75733e+14
1.0181e+15
1.04806e+15
1.06745e+15
1.07752e+15
1.07913e+15
1.07279e+15
1.05893e+15
1.03768e+15
1.00958e+15
9.74935e+14
9.35224e+14
8.90982e+14
8.47653e+14
8.07042e+14
7.70061e+14
7.37104e+14
7.08212e+14
6.83184e+14
6.61685e+14
6.43318e+14
6.2768e+14
6.14381e+14
6.03067e+14
5.93422e+14
5.85168e+14
5.78068e+14
5.71918e+14
5.66544e+14
5.61796e+14
5.57547e+14
5.53686e+14
5.50113e+14
5.46739e+14
5.43476e+14
5.40237e+14
5.36928e+14
5.33438e+14
5.29627e+14
5.25311e+14
5.2023e+14
5.14008e+14
5.06087e+14
4.95624e+14
4.81339e+14
4.61279e+14
4.3249e+14
3.90629e+14
3.29515e+14
2.41856e+14
1.19276e+14
2.74967e+14
5.62718e+14
7.86125e+14
9.5579e+14
1.08425e+15
1.18164e+15
1.25504e+15
1.30927e+15
1.34768e+15
1.37256e+15
1.3855e+15
1.38758e+15
1.37947e+15
1.36166e+15
1.33441e+15
1.29833e+15
1.25392e+15
1.20293e+15
1.14647e+15
1.09099e+15
1.03889e+15
9.91396e+14
9.49047e+14
9.11904e+14
8.79718e+14
8.52064e+14
8.28438e+14
8.0832e+14
7.91213e+14
7.76662e+14
7.64258e+14
7.53648e+14
7.44524e+14
7.36623e+14
7.29722e+14
7.23628e+14
7.18178e+14
7.13226e+14
7.08647e+14
7.04322e+14
7.00142e+14
6.95992e+14
6.91752e+14
6.87278e+14
6.82393e+14
6.76859e+14
6.70347e+14
6.62376e+14
6.52237e+14
6.38863e+14
6.20632e+14
5.95077e+14
5.58454e+14
5.05226e+14
4.27367e+14
3.14912e+14
1.56262e+14
3.42423e+14
6.94023e+14
9.63585e+14
1.16743e+15
1.32183e+15
1.43913e+15
1.52773e+15
1.59331e+15
1.63982e+15
1.66998e+15
1.6857e+15
1.68824e+15
1.67842e+15
1.6568e+15
1.62375e+15
1.57993e+15
1.52609e+15
1.46421e+15
1.39602e+15
1.32882e+15
1.26559e+15
1.20789e+15
1.15639e+15
1.11119e+15
1.07201e+15
1.03833e+15
1.00955e+15
9.8504e+14
9.64197e+14
9.46467e+14
9.31356e+14
9.1843e+14
9.07317e+14
8.97697e+14
8.89295e+14
8.81879e+14
8.75247e+14
8.69225e+14
8.63656e+14
8.58398e+14
8.53316e+14
8.48272e+14
8.43117e+14
8.37679e+14
8.31743e+14
8.25021e+14
8.17116e+14
8.07454e+14
7.95185e+14
7.79037e+14
7.57081e+14
7.2639e+14
6.82515e+14
6.18817e+14
5.25488e+14
3.89628e+14
1.95334e+14
4.14612e+14
8.28329e+14
1.14047e+15
1.37552e+15
1.55376e+15
1.68956e+15
1.7924e+15
1.86871e+15
1.92291e+15
1.95812e+15
1.9765e+15
1.97949e+15
1.96803e+15
1.94276e+15
1.90413e+15
1.85289e+15
1.79e+15
1.7177e+15
1.63836e+15
1.55994e+15
1.48601e+15
1.41845e+15
1.35809e+15
1.30508e+15
1.2591e+15
1.21956e+15
1.18576e+15
1.15696e+15
1.13248e+15
1.11164e+15
1.09389e+15
1.0787e+15
1.06564e+15
1.05434e+15
1.04447e+15
1.03576e+15
1.02797e+15
1.0209e+15
1.01437e+15
1.0082e+15
1.00224e+15
9.96317e+14
9.9027e+14
9.83892e+14
9.76932e+14
9.69059e+14
9.5981e+14
9.48525e+14
9.34231e+14
9.15474e+14
8.90059e+14
8.54661e+14
8.0423e+14
7.31171e+14
6.24019e+14
4.66753e+14
2.37662e+14
4.94074e+14
9.66815e+14
1.31678e+15
1.57939e+15
1.77906e+15
1.93174e+15
2.04775e+15
2.13405e+15
2.19549e+15
2.23547e+15
2.25637e+15
2.2598e+15
2.24679e+15
2.21806e+15
2.17413e+15
2.11583e+15
2.04433e+15
1.96217e+15
1.87226e+15
1.78319e+15
1.69906e+15
1.62205e+15
1.55318e+15
1.49265e+15
1.4401e+15
1.39489e+15
1.35622e+15
1.32327e+15
1.29525e+15
1.2714e+15
1.25107e+15
1.23369e+15
1.21874e+15
1.2058e+15
1.19451e+15
1.18454e+15
1.17563e+15
1.16754e+15
1.16006e+15
1.15301e+15
1.14619e+15
1.13942e+15
1.13251e+15
1.12522e+15
1.11727e+15
1.10828e+15
1.09775e+15
1.08492e+15
1.06872e+15
1.04754e+15
1.01896e+15
9.79344e+14
9.23152e+14
8.42027e+14
7.23088e+14
5.47178e+14
2.8496e+14
5.84683e+14
1.11086e+15
1.4924e+15
1.77836e+15
1.99675e+15
2.16453e+15
2.29252e+15
2.38804e+15
2.4562e+15
2.50065e+15
2.52394e+15
2.5278e+15
2.51334e+15
2.48135e+15
2.43242e+15
2.36748e+15
2.28788e+15
2.19644e+15
2.09662e+15
1.99752e+15
1.90372e+15
1.81774e+15
1.74075e+15
1.67301e+15
1.61416e+15
1.5635e+15
1.52015e+15
1.4832e+15
1.45176e+15
1.42501e+15
1.40219e+15
1.38268e+15
1.36591e+15
1.35139e+15
1.33871e+15
1.32753e+15
1.31753e+15
1.30846e+15
1.30007e+15
1.29215e+15
1.2845e+15
1.27692e+15
1.26917e+15
1.261e+15
1.2521e+15
1.24205e+15
1.23029e+15
1.21601e+15
1.19803e+15
1.17463e+15
1.14322e+15
1.0999e+15
1.03882e+15
9.51081e+14
8.22767e+14
6.31919e+14
3.39812e+14
6.9244e+14
1.26191e+15
1.66706e+15
1.97162e+15
2.20581e+15
2.38681e+15
2.52553e+15
2.62943e+15
2.7038e+15
2.75241e+15
2.77794e+15
2.78222e+15
2.76644e+15
2.73141e+15
2.67783e+15
2.60669e+15
2.51955e+15
2.41947e+15
2.31043e+15
2.20195e+15
2.09908e+15
2.00463e+15
1.91994e+15
1.84536e+15
1.78051e+15
1.72465e+15
1.67682e+15
1.63604e+15
1.60133e+15
1.57178e+15
1.54658e+15
1.52503e+15
1.50649e+15
1.49045e+15
1.47645e+15
1.46409e+15
1.45305e+15
1.44303e+15
1.43377e+15
1.42502e+15
1.41658e+15
1.4082e+15
1.39964e+15
1.39063e+15
1.38082e+15
1.36976e+15
1.35685e+15
1.34121e+15
1.3216e+15
1.29619e+15
1.26228e+15
1.21582e+15
1.15076e+15
1.05796e+15
9.23003e+14
7.22038e+14
4.06188e+14
8.26808e+14
1.42115e+15
1.84016e+15
2.15823e+15
2.40519e+15
2.59748e+15
2.74568e+15
2.85714e+15
2.93717e+15
2.98962e+15
3.01725e+15
3.02196e+15
3.00498e+15
2.96718e+15
2.90931e+15
2.83244e+15
2.73834e+15
2.63031e+15
2.51275e+15
2.39559e+15
2.28427e+15
2.18189e+15
2.08999e+15
2.00895e+15
1.93843e+15
1.87763e+15
1.82556e+15
1.78113e+15
1.7433e+15
1.71109e+15
1.68362e+15
1.66011e+15
1.6399e+15
1.6224e+15
1.60713e+15
1.59366e+15
1.58162e+15
1.57069e+15
1.56058e+15
1.55105e+15
1.54184e+15
1.53271e+15
1.52339e+15
1.51358e+15
1.5029e+15
1.49089e+15
1.47689e+15
1.45999e+15
1.43889e+15
1.4117e+15
1.37563e+15
1.32658e+15
1.25847e+15
1.1622e+15
1.02353e+15
8.18428e+14
4.90308e+14
1.00269e+15
1.58866e+15
2.0105e+15
2.33701e+15
2.59382e+15
2.79554e+15
2.95198e+15
3.07018e+15
3.15534e+15
3.21132e+15
3.24091e+15
3.24604e+15
3.22801e+15
3.1877e+15
3.12592e+15
3.04384e+15
2.94339e+15
2.82809e+15
2.70276e+15
2.57763e+15
2.45852e+15
2.3488e+15
2.25017e+15
2.1631e+15
2.08726e+15
2.02183e+15
1.96575e+15
1.91788e+15
1.8771e+15
1.84237e+15
1.81274e+15
1.78738e+15
1.76558e+15
1.74671e+15
1.73023e+15
1.71569e+15
1.7027e+15
1.69091e+15
1.68001e+15
1.66973e+15
1.6598e+15
1.64995e+15
1.6399e+15
1.62933e+15
1.61784e+15
1.60493e+15
1.58992e+15
1.57186e+15
1.54942e+15
1.52066e+15
1.48277e+15
1.43168e+15
1.3614e+15
1.26321e+15
1.12376e+15
9.21331e+14
6.02075e+14
5.90012e+14
4.62891e+14
3.74404e+14
3.08319e+14
2.55877e+14
2.12148e+14
1.74237e+14
1.40375e+14
1.09439e+14
8.06893e+13
9.07389e+14
7.85891e+14
6.78854e+14
5.84137e+14
4.99318e+14
4.22325e+14
3.51535e+14
2.85716e+14
2.23942e+14
1.65522e+14
1.10737e+15
9.88536e+14
8.75223e+14
7.67794e+14
6.66059e+14
5.69602e+14
4.77946e+14
3.90635e+14
3.07265e+14
2.27486e+14
1.24555e+15
1.12584e+15
1.00779e+15
8.92328e+14
7.80002e+14
6.71102e+14
5.65763e+14
4.64024e+14
3.65864e+14
2.71229e+14
1.34383e+15
1.22192e+15
1.09969e+15
9.78284e+14
8.58548e+14
7.41108e+14
6.26415e+14
5.14792e+14
4.06464e+14
3.01571e+14
1.41507e+15
1.29065e+15
1.1648e+15
1.03878e+15
9.13583e+14
7.90023e+14
6.68725e+14
5.50178e+14
4.34753e+14
3.22715e+14
1.46759e+15
1.34077e+15
1.21186e+15
1.0822e+15
9.52883e+14
8.24818e+14
6.98739e+14
5.75232e+14
4.54758e+14
3.37661e+14
1.50706e+15
1.37809e+15
1.24663e+15
1.11408e+15
9.8159e+14
8.50134e+14
7.2051e+14
5.93366e+14
4.69219e+14
3.48461e+14
1.53736e+15
1.40652e+15
1.27296e+15
1.13808e+15
1.00311e+15
8.6904e+14
7.36723e+14
6.06844e+14
4.79954e+14
3.56475e+14
1.56122e+15
1.42877e+15
1.29344e+15
1.15668e+15
1.01971e+15
8.8358e+14
7.49162e+14
6.17167e+14
4.88168e+14
3.62607e+14
1.58051e+15
1.44668e+15
1.30986e+15
1.17152e+15
1.03292e+15
8.95124e+14
7.59019e+14
6.25335e+14
4.94663e+14
3.67456e+14
1.59659e+15
1.46154e+15
1.32344e+15
1.18376e+15
1.04379e+15
9.04604e+14
7.67101e+14
6.32026e+14
4.99981e+14
3.71428e+14
1.6104e+15
1.47428e+15
1.33505e+15
1.19421e+15
1.05305e+15
9.12664e+14
7.73965e+14
6.37705e+14
5.04494e+14
3.748e+14
1.62266e+15
1.48556e+15
1.34531e+15
1.20343e+15
1.06121e+15
9.19762e+14
7.80006e+14
6.427e+14
5.08463e+14
3.77767e+14
1.6339e+15
1.49589e+15
1.35469e+15
1.21184e+15
1.06866e+15
9.26233e+14
7.8551e+14
6.47251e+14
5.12079e+14
3.80472e+14
1.64454e+15
1.50565e+15
1.36355e+15
1.21979e+15
1.07568e+15
9.32335e+14
7.90698e+14
6.51539e+14
5.15486e+14
3.83021e+14
1.65492e+15
1.51517e+15
1.37219e+15
1.22753e+15
1.08252e+15
9.38275e+14
7.95747e+14
6.55713e+14
5.18803e+14
3.85504e+14
1.66535e+15
1.52474e+15
1.38087e+15
1.2353e+15
1.08938e+15
9.44234e+14
8.00812e+14
6.59898e+14
5.22129e+14
3.87993e+14
1.67612e+15
1.5346e+15
1.38981e+15
1.24332e+15
1.09646e+15
9.50376e+14
8.06031e+14
6.64211e+14
5.25556e+14
3.90558e+14
1.6875e+15
1.54503e+15
1.39927e+15
1.25178e+15
1.10393e+15
9.56863e+14
8.11543e+14
6.68765e+14
5.29173e+14
3.93264e+14
1.69979e+15
1.55629e+15
1.40947e+15
1.26092e+15
1.11199e+15
9.63861e+14
8.17487e+14
6.73675e+14
5.33073e+14
3.9618e+14
1.7133e+15
1.56867e+15
1.42069e+15
1.27096e+15
1.12085e+15
9.71548e+14
8.24017e+14
6.79067e+14
5.37354e+14
3.99381e+14
1.72839e+15
1.58249e+15
1.43321e+15
1.28216e+15
1.13074e+15
9.80122e+14
8.31298e+14
6.85079e+14
5.42125e+14
4.02945e+14
1.74544e+15
1.5981e+15
1.44735e+15
1.29481e+15
1.1419e+15
9.89805e+14
8.39518e+14
6.91864e+14
5.47509e+14
4.06965e+14
1.7649e+15
1.61592e+15
1.46348e+15
1.30925e+15
1.15464e+15
1.00085e+15
8.48892e+14
6.99599e+14
5.53644e+14
4.11545e+14
1.78728e+15
1.63641e+15
1.48204e+15
1.32585e+15
1.16927e+15
1.01354e+15
8.59662e+14
7.08484e+14
5.60689e+14
4.16801e+14
1.81318e+15
1.66011e+15
1.50349e+15
1.34503e+15
1.18619e+15
1.0282e+15
8.72105e+14
7.18748e+14
5.68825e+14
4.22868e+14
1.84324e+15
1.68761e+15
1.52839e+15
1.36729e+15
1.20582e+15
1.04521e+15
8.86534e+14
7.30647e+14
5.78255e+14
4.29898e+14
1.87821e+15
1.7196e+15
1.55733e+15
1.39317e+15
1.22862e+15
1.06498e+15
9.03297e+14
7.44468e+14
5.89205e+14
4.38058e+14
1.91889e+15
1.7568e+15
1.59098e+15
1.42324e+15
1.25513e+15
1.08794e+15
9.2277e+14
7.60522e+14
6.01922e+14
4.47532e+14
1.96612e+15
1.79998e+15
1.63003e+15
1.45814e+15
1.28587e+15
1.11457e+15
9.45353e+14
7.79135e+14
6.16664e+14
4.58512e+14
2.02076e+15
1.84991e+15
1.67518e+15
1.49847e+15
1.3214e+15
1.14534e+15
9.71441e+14
8.00635e+14
6.3369e+14
4.71191e+14
2.08357e+15
1.9073e+15
1.72706e+15
1.54481e+15
1.36221e+15
1.18069e+15
1.0014e+15
8.25321e+14
6.53236e+14
4.85744e+14
2.15517e+15
1.97268e+15
1.78615e+15
1.59758e+15
1.40869e+15
1.22092e+15
1.0355e+15
8.53423e+14
6.75485e+14
5.02309e+14
2.2358e+15
2.04631e+15
1.85268e+15
1.65698e+15
1.46099e+15
1.26621e+15
1.07388e+15
8.85043e+14
7.00519e+14
5.20946e+14
2.32521e+15
2.12792e+15
1.9264e+15
1.72279e+15
1.51893e+15
1.31637e+15
1.1164e+15
9.20073e+14
7.28252e+14
5.41593e+14
2.42228e+15
2.2165e+15
2.00641e+15
1.79421e+15
1.58181e+15
1.37081e+15
1.16254e+15
9.58092e+14
7.58355e+14
5.64006e+14
2.52483e+15
2.31006e+15
2.09089e+15
1.86963e+15
1.64822e+15
1.42831e+15
1.21128e+15
9.98266e+14
7.90172e+14
5.87703e+14
2.62934e+15
2.40537e+15
2.17695e+15
1.94644e+15
1.71586e+15
1.4869e+15
1.26098e+15
1.03926e+15
8.22665e+14
6.11922e+14
2.73067e+15
2.49768e+15
2.26023e+15
2.02075e+15
1.78131e+15
1.54363e+15
1.30915e+15
1.07905e+15
8.54278e+14
6.35534e+14
2.82075e+15
2.57939e+15
2.33363e+15
2.08595e+15
1.83845e+15
1.59289e+15
1.35072e+15
1.11315e+15
8.81131e+14
6.55422e+14
2.89618e+15
2.64757e+15
2.39468e+15
2.14004e+15
1.88576e+15
1.63362e+15
1.38508e+15
1.14134e+15
9.03371e+14
6.71928e+14
2.95461e+15
2.70014e+15
2.44157e+15
2.18142e+15
1.92184e+15
1.66459e+15
1.41115e+15
1.1627e+15
9.20217e+14
6.84426e+14
2.99505e+15
2.7363e+15
2.47365e+15
2.20962e+15
1.94633e+15
1.68556e+15
1.42875e+15
1.1771e+15
9.31549e+14
6.92824e+14
3.01714e+15
2.75577e+15
2.49069e+15
2.22442e+15
1.95907e+15
1.69637e+15
1.43778e+15
1.18444e+15
9.37301e+14
6.97075e+14
3.02066e+15
2.75837e+15
2.49255e+15
2.22572e+15
1.95994e+15
1.69693e+15
1.43811e+15
1.18463e+15
9.374e+14
6.97125e+14
3.00507e+15
2.74356e+15
2.47873e+15
2.21302e+15
1.94849e+15
1.68683e+15
1.42942e+15
1.17739e+15
9.31617e+14
6.92802e+14
2.96926e+15
2.71026e+15
2.44815e+15
2.18535e+15
1.92384e+15
1.66528e+15
1.41101e+15
1.16213e+15
9.19487e+14
6.83758e+14
2.91138e+15
2.65667e+15
2.39913e+15
2.14109e+15
1.88451e+15
1.63096e+15
1.38175e+15
1.1379e+15
9.00247e+14
6.69422e+14
2.82884e+15
2.58023e+15
2.32917e+15
2.07793e+15
1.82835e+15
1.58195e+15
1.33994e+15
1.10329e+15
8.7276e+14
6.48941e+14
2.71808e+15
2.47737e+15
2.23482e+15
1.99255e+15
1.75231e+15
1.51548e+15
1.28318e+15
1.05625e+15
8.35384e+14
6.21083e+14
2.57436e+15
2.34326e+15
2.11124e+15
1.88032e+15
1.65204e+15
1.42762e+15
1.20799e+15
9.9386e+14
7.85757e+14
5.84071e+14
2.39125e+15
2.17107e+15
1.95157e+15
1.73452e+15
1.52122e+15
1.31261e+15
1.10933e+15
9.11835e+14
7.20434e+14
5.35322e+14
2.15963e+15
1.95083e+15
1.74552e+15
1.54512e+15
1.35045e+15
1.16193e+15
9.79753e+14
8.03935e+14
6.34414e+14
4.7109e+14
1.86525e+15
1.66639e+15
1.47652e+15
1.29622e+15
1.1252e+15
9.62844e+14
8.08425e+14
6.61245e+14
5.20672e+14
3.86166e+14
1.48159e+15
1.28733e+15
1.11504e+15
9.61562e+14
8.23321e+14
6.97249e+14
5.80937e+14
4.72558e+14
3.70731e+14
2.74422e+14
9.35196e+14
7.39977e+14
6.0252e+14
4.98639e+14
4.15302e+14
3.45179e+14
2.83969e+14
2.29047e+14
1.78743e+14
1.31961e+14
2.11803e+15
2.50355e+15
3.00021e+15
3.63817e+15
4.45993e+15
5.52821e+15
6.93995e+15
8.85568e+15
1.15698e+16
1.57148e+16
2.30935e+16
2.39451e+15
2.82995e+15
3.39126e+15
4.11215e+15
5.04053e+15
6.24698e+15
7.84046e+15
1.00007e+16
1.30555e+16
1.76985e+16
2.57965e+16
2.72904e+15
3.22463e+15
3.86394e+15
4.68472e+15
5.74112e+15
7.11285e+15
8.92227e+15
1.13699e+16
1.48157e+16
1.99972e+16
2.871e+16
3.14103e+15
3.71075e+15
4.44586e+15
5.38893e+15
6.60145e+15
8.17348e+15
1.02421e+16
1.30288e+16
1.6921e+16
2.26688e+16
3.18639e+16
3.58485e+15
4.23484e+15
5.07287e+15
6.14665e+15
7.52504e+15
9.30803e+15
1.16459e+16
1.47764e+16
1.91004e+16
2.53412e+16
3.48229e+16
4.01268e+15
4.74055e+15
5.67749e+15
6.87616e+15
8.41191e+15
1.0393e+16
1.29798e+16
1.64197e+16
2.11134e+16
2.77331e+16
3.73524e+16
4.42213e+15
5.22496e+15
6.25623e+15
7.57321e+15
9.25685e+15
1.14221e+16
1.42362e+16
1.79505e+16
2.29556e+16
2.98611e+16
3.95279e+16
4.8115e+15
5.68597e+15
6.80656e+15
8.23473e+15
1.00562e+16
1.23908e+16
1.54102e+16
1.9365e+16
2.46283e+16
3.17447e+16
4.14034e+16
5.17926e+15
6.12162e+15
7.32611e+15
8.85791e+15
1.08065e+16
1.32956e+16
1.64982e+16
2.06607e+16
2.61347e+16
3.34021e+16
4.30172e+16
5.52737e+15
6.53413e+15
7.81753e+15
9.44598e+15
1.1512e+16
1.41415e+16
1.75072e+16
2.18484e+16
2.74926e+16
3.48636e+16
4.44105e+16
5.87085e+15
6.94118e+15
8.30183e+15
1.0024e+16
1.22026e+16
1.49647e+16
1.84808e+16
2.29803e+16
2.87648e+16
3.62033e+16
4.56588e+16
6.2242e+15
7.3599e+15
8.7992e+15
1.06158e+16
1.29062e+16
1.57974e+16
1.94558e+16
2.40981e+16
2.99971e+16
3.74685e+16
4.68029e+16
6.59258e+15
7.79627e+15
9.3164e+15
1.12286e+16
1.36304e+16
1.66469e+16
2.04381e+16
2.52046e+16
3.11878e+16
3.8651e+16
4.7823e+16
6.94112e+15
8.20886e+15
9.80386e+15
1.18029e+16
1.43031e+16
1.74261e+16
2.13233e+16
2.61773e+16
3.21977e+16
3.96011e+16
4.85666e+16
7.2231e+15
8.54234e+15
1.0196e+16
1.22612e+16
1.48333e+16
1.80296e+16
2.19918e+16
2.6885e+16
3.28907e+16
4.01877e+16
4.89182e+16
7.42432e+15
8.77995e+15
1.04735e+16
1.25814e+16
1.51966e+16
1.84315e+16
2.24181e+16
2.73058e+16
3.32527e+16
4.0408e+16
4.88855e+16
7.5438e+15
8.92066e+15
1.06355e+16
1.27632e+16
1.53941e+16
1.86351e+16
2.26094e+16
2.74527e+16
3.33039e+16
4.02889e+16
4.84988e+16
7.58134e+15
8.96441e+15
1.06822e+16
1.28077e+16
1.5428e+16
1.86449e+16
2.25735e+16
2.7338e+16
3.30622e+16
3.98535e+16
4.77847e+16
7.53732e+15
8.91181e+15
1.06147e+16
1.27167e+16
1.53015e+16
1.84658e+16
2.23181e+16
2.69733e+16
3.25433e+16
3.91221e+16
4.67672e+16
7.41311e+15
8.7646e+15
1.04353e+16
1.24933e+16
1.50188e+16
1.81041e+16
2.18517e+16
2.63698e+16
3.17621e+16
3.81132e+16
4.5469e+16
7.21058e+15
8.52511e+15
1.01469e+16
1.21413e+16
1.45849e+16
1.75659e+16
2.11822e+16
2.55373e+16
3.07305e+16
3.68415e+16
4.39082e+16
6.93238e+15
8.19652e+15
9.75343e+15
1.16654e+16
1.40055e+16
1.68581e+16
2.03176e+16
2.44849e+16
2.94588e+16
3.53194e+16
4.21014e+16
6.58245e+15
7.78349e+15
9.26044e+15
1.10722e+16
1.32884e+16
1.59896e+16
1.92677e+16
2.32231e+16
2.79579e+16
3.35587e+16
4.00647e+16
6.19284e+15
7.32381e+15
8.71282e+15
1.04155e+16
1.24977e+16
1.50369e+16
1.81229e+16
2.18574e+16
2.63491e+16
3.1698e+16
3.79573e+16
5.8148e+15
6.87786e+15
8.18214e+15
9.78013e+15
1.17345e+16
1.41196e+16
1.70239e+16
2.05506e+16
2.48168e+16
2.99402e+16
3.59971e+16
5.45855e+15
6.45766e+15
7.68238e+15
9.1824e+15
1.10173e+16
1.32587e+16
1.59934e+16
1.93265e+16
2.33837e+16
2.83027e+16
3.41914e+16
5.11338e+15
6.05051e+15
7.1983e+15
8.60373e+15
1.03234e+16
1.24262e+16
1.4997e+16
1.81424e+16
2.19966e+16
2.67199e+16
3.24599e+16
4.7618e+15
5.63575e+15
6.70526e+15
8.01455e+15
9.61713e+15
1.15788e+16
1.39823e+16
1.6935e+16
2.05794e+16
2.51009e+16
3.06987e+16
4.39327e+15
5.20092e+15
6.18837e+15
7.39697e+15
8.87686e+15
1.06904e+16
1.29174e+16
1.56653e+16
1.9084e+16
2.33864e+16
2.88387e+16
4.0087e+15
4.74703e+15
5.6488e+15
6.75231e+15
8.10408e+15
9.76241e+15
1.18037e+16
1.43335e+16
1.75081e+16
2.15683e+16
2.68639e+16
3.60918e+15
4.27531e+15
5.08796e+15
6.08221e+15
7.30062e+15
8.79698e+15
1.0643e+16
1.29411e+16
1.58502e+16
1.96376e+16
2.4753e+16
3.19675e+15
3.7881e+15
4.50857e+15
5.38987e+15
6.47025e+15
7.79843e+15
9.44038e+15
1.14929e+16
1.41134e+16
1.75888e+16
2.24805e+16
2.77302e+15
3.28719e+15
3.91273e+15
4.67776e+15
5.61589e+15
6.77018e+15
8.19966e+15
9.99298e+15
1.23001e+16
1.54151e+16
2.00069e+16
2.34631e+15
2.78228e+15
3.31197e+15
3.95967e+15
4.7541e+15
5.73216e+15
6.94492e+15
8.47026e+15
1.04437e+16
1.31468e+16
1.73176e+16
1.9998e+15
2.37176e+15
2.82339e+15
3.37561e+15
4.05298e+15
4.88711e+15
5.92187e+15
7.22452e+15
8.91332e+15
1.12393e+16
1.49154e+16
7.06093e+14
7.73199e+14
8.54352e+14
9.33386e+14
1.00885e+15
1.08061e+15
1.14848e+15
1.21244e+15
1.27249e+15
1.33056e+15
1.38956e+15
1.45111e+15
1.5133e+15
1.56785e+15
1.61004e+15
1.63957e+15
1.6563e+15
1.66013e+15
1.651e+15
1.62891e+15
1.59388e+15
1.54598e+15
1.4874e+15
1.42567e+15
1.36638e+15
1.30854e+15
1.24963e+15
1.187e+15
1.12016e+15
1.04921e+15
9.7428e+14
8.95596e+14
8.21566e+14
7.6076e+14
7.10027e+14
9.93622e+14
1.04143e+15
1.10128e+15
1.16136e+15
1.22018e+15
1.27729e+15
1.33225e+15
1.38478e+15
1.43469e+15
1.4834e+15
1.5333e+15
1.58573e+15
1.63898e+15
1.68582e+15
1.72199e+15
1.74711e+15
1.76097e+15
1.76346e+15
1.75455e+15
1.73429e+15
1.70281e+15
1.66032e+15
1.60897e+15
1.55548e+15
1.50466e+15
1.45563e+15
1.40627e+15
1.35446e+15
1.30002e+15
1.24326e+15
1.18457e+15
1.12446e+15
1.06956e+15
1.02569e+15
9.89969e+14
1.18996e+15
1.23317e+15
1.28645e+15
1.3394e+15
1.39091e+15
1.44075e+15
1.4886e+15
1.53431e+15
1.57773e+15
1.62011e+15
1.66355e+15
1.7092e+15
1.75558e+15
1.79633e+15
1.82771e+15
1.84934e+15
1.86102e+15
1.86267e+15
1.85424e+15
1.83584e+15
1.8076e+15
1.76979e+15
1.72437e+15
1.67728e+15
1.63271e+15
1.58984e+15
1.54678e+15
1.50168e+15
1.45434e+15
1.405e+15
1.35392e+15
1.30141e+15
1.25313e+15
1.2142e+15
1.18219e+15
1.32819e+15
1.37027e+15
1.42157e+15
1.47203e+15
1.52069e+15
1.56742e+15
1.61201e+15
1.65437e+15
1.69442e+15
1.73338e+15
1.77315e+15
1.8148e+15
1.85696e+15
1.89385e+15
1.92213e+15
1.94149e+15
1.95178e+15
1.95293e+15
1.94493e+15
1.92787e+15
1.90187e+15
1.86716e+15
1.8255e+15
1.78231e+15
1.74138e+15
1.70195e+15
1.66225e+15
1.62054e+15
1.5766e+15
1.53058e+15
1.48264e+15
1.43301e+15
1.38696e+15
1.34953e+15
1.31852e+15
1.42674e+15
1.46886e+15
1.51987e+15
1.56971e+15
1.6175e+15
1.66312e+15
1.70643e+15
1.74738e+15
1.78592e+15
1.82327e+15
1.86125e+15
1.90088e+15
1.94082e+15
1.97563e+15
2.0022e+15
2.02029e+15
2.02982e+15
2.03074e+15
2.02303e+15
2.00679e+15
1.98211e+15
1.94917e+15
1.90959e+15
1.86846e+15
1.82939e+15
1.79164e+15
1.75351e+15
1.71333e+15
1.67082e+15
1.62609e+15
1.57927e+15
1.53053e+15
1.48503e+15
1.44784e+15
1.41691e+15
1.4979e+15
1.5405e+15
1.59189e+15
1.64191e+15
1.68969e+15
1.73515e+15
1.77816e+15
1.8187e+15
1.85675e+15
1.89351e+15
1.9308e+15
1.96958e+15
2.00857e+15
2.04244e+15
2.06822e+15
2.08574e+15
2.09493e+15
2.09577e+15
2.08825e+15
2.07246e+15
2.04847e+15
2.01641e+15
1.97782e+15
1.93763e+15
1.89936e+15
1.86229e+15
1.82477e+15
1.78511e+15
1.74304e+15
1.69864e+15
1.652e+15
1.60327e+15
1.55761e+15
1.52019e+15
1.48897e+15
1.55002e+15
1.59322e+15
1.64524e+15
1.69576e+15
1.74391e+15
1.78964e+15
1.83282e+15
1.87344e+15
1.9115e+15
1.94821e+15
1.98538e+15
2.02399e+15
2.06272e+15
2.09631e+15
2.12185e+15
2.1392e+15
2.1483e+15
2.14916e+15
2.14176e+15
2.12619e+15
2.1025e+15
2.0708e+15
2.03258e+15
1.9927e+15
1.95466e+15
1.91775e+15
1.88032e+15
1.8407e+15
1.79858e+15
1.75405e+15
1.70717e+15
1.65809e+15
1.612e+15
1.57415e+15
1.54253e+15
1.58891e+15
1.63272e+15
1.68541e+15
1.73653e+15
1.7852e+15
1.83136e+15
1.87491e+15
1.91583e+15
1.95414e+15
1.99106e+15
2.02841e+15
2.06716e+15
2.106e+15
2.13967e+15
2.16526e+15
2.18265e+15
2.19181e+15
2.19272e+15
2.18541e+15
2.16993e+15
2.14633e+15
2.1147e+15
2.07652e+15
2.03662e+15
1.99852e+15
1.9615e+15
1.92393e+15
1.88411e+15
1.84173e+15
1.79687e+15
1.74958e+15
1.70001e+15
1.6534e+15
1.61508e+15
1.58305e+15
1.61858e+15
1.66295e+15
1.71629e+15
1.76801e+15
1.81722e+15
1.86387e+15
1.90785e+15
1.94917e+15
1.98782e+15
2.02505e+15
2.0627e+15
2.10175e+15
2.14088e+15
2.17479e+15
2.20057e+15
2.21811e+15
2.22738e+15
2.22838e+15
2.22112e+15
2.20565e+15
2.18203e+15
2.15034e+15
2.11203e+15
2.07195e+15
2.03365e+15
1.99641e+15
1.95859e+15
1.91847e+15
1.87575e+15
1.83049e+15
1.78275e+15
1.73266e+15
1.68552e+15
1.64675e+15
1.61432e+15
1.64182e+15
1.6867e+15
1.74064e+15
1.79291e+15
1.84264e+15
1.88977e+15
1.93419e+15
1.97591e+15
2.01493e+15
2.05251e+15
2.09051e+15
2.12991e+15
2.16939e+15
2.2036e+15
2.22963e+15
2.24736e+15
2.25676e+15
2.25785e+15
2.25062e+15
2.23514e+15
2.21144e+15
2.17961e+15
2.1411e+15
2.10078e+15
2.06222e+15
2.02472e+15
1.98661e+15
1.94617e+15
1.90309e+15
1.85742e+15
1.80923e+15
1.75864e+15
1.71102e+15
1.67183e+15
1.63904e+15
1.66058e+15
1.70591e+15
1.76038e+15
1.81317e+15
1.86337e+15
1.91095e+15
1.95579e+15
1.99789e+15
2.03727e+15
2.07519e+15
2.11353e+15
2.15329e+15
2.19313e+15
2.22767e+15
2.25396e+15
2.27189e+15
2.28143e+15
2.2826e+15
2.2754e+15
2.25987e+15
2.23608e+15
2.20407e+15
2.16533e+15
2.12475e+15
2.08593e+15
2.04815e+15
2.00976e+15
1.969e+15
1.92556e+15
1.8795e+15
1.83089e+15
1.77985e+15
1.73178e+15
1.69221e+15
1.65911e+15
1.67622e+15
1.72195e+15
1.77689e+15
1.83014e+15
1.88078e+15
1.92876e+15
1.97399e+15
2.01645e+15
2.05616e+15
2.09441e+15
2.13308e+15
2.17319e+15
2.21338e+15
2.24823e+15
2.27478e+15
2.2929e+15
2.30258e+15
2.30382e+15
2.29663e+15
2.28105e+15
2.25714e+15
2.22497e+15
2.18599e+15
2.14515e+15
2.10606e+15
2.06802e+15
2.02934e+15
1.98828e+15
1.94451e+15
1.89809e+15
1.84909e+15
1.79763e+15
1.74916e+15
1.70926e+15
1.67587e+15
1.68969e+15
1.73578e+15
1.79115e+15
1.84481e+15
1.89585e+15
1.94421e+15
1.98979e+15
2.03258e+15
2.07261e+15
2.11116e+15
2.15014e+15
2.19057e+15
2.2311e+15
2.26625e+15
2.29303e+15
2.31134e+15
2.32114e+15
2.32244e+15
2.31526e+15
2.29963e+15
2.27561e+15
2.24325e+15
2.20404e+15
2.16295e+15
2.1236e+15
2.08531e+15
2.04637e+15
2.00502e+15
1.96094e+15
1.91419e+15
1.86483e+15
1.81299e+15
1.76415e+15
1.72394e+15
1.6903e+15
1.70169e+15
1.74811e+15
1.80387e+15
1.85792e+15
1.90932e+15
1.95803e+15
2.00394e+15
2.04704e+15
2.08737e+15
2.1262e+15
2.16547e+15
2.2062e+15
2.24704e+15
2.28247e+15
2.30948e+15
2.32796e+15
2.33787e+15
2.33924e+15
2.33205e+15
2.31637e+15
2.29223e+15
2.2597e+15
2.22026e+15
2.17892e+15
2.13933e+15
2.1008e+15
2.06161e+15
2.01999e+15
1.97562e+15
1.92856e+15
1.87887e+15
1.82667e+15
1.77749e+15
1.73701e+15
1.70312e+15
1.71274e+15
1.75946e+15
1.8156e+15
1.87001e+15
1.92176e+15
1.97079e+15
2.01701e+15
2.06041e+15
2.10101e+15
2.14011e+15
2.17966e+15
2.22068e+15
2.26181e+15
2.29751e+15
2.32473e+15
2.34337e+15
2.35339e+15
2.3548e+15
2.34762e+15
2.33187e+15
2.30762e+15
2.27492e+15
2.23526e+15
2.19368e+15
2.15386e+15
2.11509e+15
2.07566e+15
2.03379e+15
1.98914e+15
1.94178e+15
1.89177e+15
1.83924e+15
1.78974e+15
1.74899e+15
1.71489e+15
1.72325e+15
1.77027e+15
1.82676e+15
1.88151e+15
1.93359e+15
1.98294e+15
2.02946e+15
2.07315e+15
2.11401e+15
2.15337e+15
2.19319e+15
2.23449e+15
2.27591e+15
2.31186e+15
2.33929e+15
2.35808e+15
2.3682e+15
2.36966e+15
2.36246e+15
2.34666e+15
2.32229e+15
2.28942e+15
2.24954e+15
2.20773e+15
2.16768e+15
2.12868e+15
2.08902e+15
2.04689e+15
2.00198e+15
1.95433e+15
1.90401e+15
1.85115e+15
1.80135e+15
1.76035e+15
1.72603e+15
1.73355e+15
1.78086e+15
1.8377e+15
1.89279e+15
1.9452e+15
1.99487e+15
2.04168e+15
2.08565e+15
2.12678e+15
2.16639e+15
2.20647e+15
2.24805e+15
2.28975e+15
2.32596e+15
2.35358e+15
2.37252e+15
2.38274e+15
2.38424e+15
2.37704e+15
2.36117e+15
2.33668e+15
2.30363e+15
2.26354e+15
2.22149e+15
2.18121e+15
2.14198e+15
2.10209e+15
2.05972e+15
2.01453e+15
1.9666e+15
1.91598e+15
1.8628e+15
1.8127e+15
1.77144e+15
1.73691e+15
1.74394e+15
1.79154e+15
1.84874e+15
1.90418e+15
1.95692e+15
2.0069e+15
2.05401e+15
2.09826e+15
2.13966e+15
2.17953e+15
2.21987e+15
2.26173e+15
2.30372e+15
2.34018e+15
2.36801e+15
2.3871e+15
2.39741e+15
2.39896e+15
2.39174e+15
2.3758e+15
2.35119e+15
2.31796e+15
2.27765e+15
2.23535e+15
2.19484e+15
2.15538e+15
2.11525e+15
2.07262e+15
2.02717e+15
1.97894e+15
1.92801e+15
1.87451e+15
1.8241e+15
1.78259e+15
1.74785e+15
1.75469e+15
1.8026e+15
1.86016e+15
1.91596e+15
1.96904e+15
2.01935e+15
2.06678e+15
2.11132e+15
2.15299e+15
2.19314e+15
2.23376e+15
2.2759e+15
2.31818e+15
2.35491e+15
2.38295e+15
2.40219e+15
2.4126e+15
2.41419e+15
2.40695e+15
2.39094e+15
2.3662e+15
2.33279e+15
2.29223e+15
2.24969e+15
2.20893e+15
2.16923e+15
2.12885e+15
2.08596e+15
2.04022e+15
1.99169e+15
1.94045e+15
1.8866e+15
1.83587e+15
1.7941e+15
1.75914e+15
1.76609e+15
1.81432e+15
1.87227e+15
1.92846e+15
1.9819e+15
2.03256e+15
2.08031e+15
2.12516e+15
2.16713e+15
2.20757e+15
2.24847e+15
2.29092e+15
2.33352e+15
2.37052e+15
2.39878e+15
2.41818e+15
2.4287e+15
2.43033e+15
2.42307e+15
2.40698e+15
2.3821e+15
2.34849e+15
2.30768e+15
2.26486e+15
2.22384e+15
2.18389e+15
2.14325e+15
2.10007e+15
2.05403e+15
2.00518e+15
1.95359e+15
1.8994e+15
1.84833e+15
1.80628e+15
1.77108e+15
1.77842e+15
1.827e+15
1.88538e+15
1.94198e+15
1.99582e+15
2.04685e+15
2.09496e+15
2.14015e+15
2.18244e+15
2.22318e+15
2.2644e+15
2.30718e+15
2.35011e+15
2.38742e+15
2.41591e+15
2.43549e+15
2.44611e+15
2.44778e+15
2.44051e+15
2.42433e+15
2.39929e+15
2.36546e+15
2.32438e+15
2.28127e+15
2.23996e+15
2.19973e+15
2.1588e+15
2.11532e+15
2.06895e+15
2.01976e+15
1.9678e+15
1.91321e+15
1.86178e+15
1.81942e+15
1.78397e+15
1.79202e+15
1.84098e+15
1.89983e+15
1.95687e+15
2.01115e+15
2.06259e+15
2.1111e+15
2.15666e+15
2.1993e+15
2.24038e+15
2.28195e+15
2.32509e+15
2.36839e+15
2.40603e+15
2.43479e+15
2.45455e+15
2.46529e+15
2.46701e+15
2.4597e+15
2.44343e+15
2.41822e+15
2.38415e+15
2.34276e+15
2.29932e+15
2.2577e+15
2.21716e+15
2.17591e+15
2.1321e+15
2.08537e+15
2.03579e+15
1.98342e+15
1.92841e+15
1.87657e+15
1.83388e+15
1.79815e+15
1.80722e+15
1.85662e+15
1.91599e+15
1.97354e+15
2.0283e+15
2.08021e+15
2.12915e+15
2.17513e+15
2.21816e+15
2.25962e+15
2.30158e+15
2.34513e+15
2.38884e+15
2.42684e+15
2.45589e+15
2.47587e+15
2.48674e+15
2.48851e+15
2.48117e+15
2.46478e+15
2.43938e+15
2.40503e+15
2.3633e+15
2.3195e+15
2.27752e+15
2.23663e+15
2.19503e+15
2.15084e+15
2.1037e+15
2.05369e+15
2.00087e+15
1.94537e+15
1.89308e+15
1.85002e+15
1.81398e+15
1.82446e+15
1.87435e+15
1.9343e+15
1.99243e+15
2.04774e+15
2.10018e+15
2.14962e+15
2.19607e+15
2.23954e+15
2.28142e+15
2.32382e+15
2.36783e+15
2.41201e+15
2.45042e+15
2.4798e+15
2.50001e+15
2.51102e+15
2.51284e+15
2.50547e+15
2.48895e+15
2.46332e+15
2.42866e+15
2.38654e+15
2.34232e+15
2.29994e+15
2.25866e+15
2.21666e+15
2.17203e+15
2.12444e+15
2.07394e+15
2.0206e+15
1.96456e+15
1.91175e+15
1.86827e+15
1.83187e+15
1.8442e+15
1.89465e+15
1.95528e+15
2.01407e+15
2.07001e+15
2.12304e+15
2.17305e+15
2.22004e+15
2.26401e+15
2.30639e+15
2.34928e+15
2.39381e+15
2.43853e+15
2.47741e+15
2.50716e+15
2.52763e+15
2.53881e+15
2.54068e+15
2.53326e+15
2.51659e+15
2.4907e+15
2.45567e+15
2.4131e+15
2.3684e+15
2.32556e+15
2.28382e+15
2.24136e+15
2.19624e+15
2.14812e+15
2.09706e+15
2.04313e+15
1.98646e+15
1.93307e+15
1.8891e+15
1.8523e+15
1.86701e+15
1.9181e+15
1.97951e+15
2.03906e+15
2.09573e+15
2.14945e+15
2.20011e+15
2.24771e+15
2.29227e+15
2.33521e+15
2.37867e+15
2.42381e+15
2.46913e+15
2.50855e+15
2.53871e+15
2.55949e+15
2.57085e+15
2.57278e+15
2.5653e+15
2.54844e+15
2.52225e+15
2.4868e+15
2.4437e+15
2.39844e+15
2.35506e+15
2.3128e+15
2.2698e+15
2.22411e+15
2.17538e+15
2.12367e+15
2.06905e+15
2.01167e+15
1.95759e+15
1.91307e+15
1.8758e+15
1.89353e+15
1.94537e+15
2.00769e+15
2.06811e+15
2.12562e+15
2.18014e+15
2.23156e+15
2.27987e+15
2.3251e+15
2.36869e+15