/*--------------------------------*- C++ -*----------------------------------*\
| =========                 |                                                 |
| \\      /  F ield         | OpenFOAM: The Open Source CFD Toolbox           |
|  \\    /   O peration     | Version:  2406                                  |
|   \\  /    A nd           | Website:  www.openfoam.com                      |
|    \\/     M anipulation  |                                                 |
\*---------------------------------------------------------------------------*/
FoamFile
{
    version     2.0;
    format      ascii;
    arch        "LSB;label=32;scalar=64";
    class       volScalarField;
    location    "0/neutroRegion";
    object      oneGroupFlux;
}
// * * * * * * * * * * * * * * * * * * * * * * * * * * * * * * * * * * * * * //

dimensions      [0 -2 -1 0 0 0 0];

internalField   nonuniform List<scalar> 
8595
(
2.02639e+15
3.61012e+15
4.65995e+15
5.40801e+15
5.93554e+15
6.32248e+15
6.60847e+15
6.81576e+15
6.95793e+15
7.04408e+15
7.08125e+15
7.07547e+15
7.02402e+15
6.94315e+15
6.78906e+15
6.60989e+15
6.30871e+15
5.97019e+15
5.31098e+15
4.85404e+15
4.53455e+15
4.29506e+15
4.10704e+15
3.9569e+15
3.83558e+15
3.73636e+15
3.65439e+15
3.5861e+15
3.52875e+15
3.48023e+15
3.43884e+15
3.40325e+15
3.37237e+15
3.34532e+15
3.32136e+15
3.2999e+15
3.28043e+15
3.26249e+15
3.24573e+15
3.2298e+15
3.21438e+15
3.19919e+15
3.18391e+15
3.16823e+15
3.15177e+15
3.13409e+15
3.11455e+15
3.09228e+15
3.06593e+15
3.03333e+15
2.99093e+15
2.93312e+15
2.84984e+15
2.73333e+15
2.55577e+15
2.33133e+15
1.38299e+15
2.72822e+15
4.9613e+15
6.45338e+15
7.50667e+15
8.24724e+15
8.78956e+15
9.1892e+15
9.47895e+15
9.67771e+15
9.79808e+15
9.85006e+15
9.84257e+15
9.77214e+15
9.6521e+15
9.44463e+15
9.18382e+15
8.77354e+15
8.28894e+15
7.39283e+15
6.76127e+15
6.31575e+15
5.98095e+15
5.71824e+15
5.50858e+15
5.33926e+15
5.20089e+15
5.08668e+15
4.9916e+15
4.91185e+15
4.84442e+15
4.78698e+15
4.73764e+15
4.69488e+15
4.65746e+15
4.62437e+15
4.59476e+15
4.56791e+15
4.54322e+15
4.52015e+15
4.49824e+15
4.47705e+15
4.45616e+15
4.43515e+15
4.41358e+15
4.39094e+15
4.36658e+15
4.33966e+15
4.30897e+15
4.27263e+15
4.22766e+15
4.16913e+15
4.08916e+15
3.97351e+15
3.80888e+15
3.54966e+15
3.17726e+15
1.84423e+15
3.39356e+15
6.24473e+15
8.15389e+15
9.48834e+15
1.0422e+16
1.11063e+16
1.16141e+16
1.19822e+16
1.22346e+16
1.23872e+16
1.24533e+16
1.24432e+16
1.23551e+16
1.21971e+16
1.19389e+16
1.15979e+16
1.10859e+16
1.04518e+16
9.36656e+15
8.57826e+15
8.01372e+15
7.58717e+15
7.25212e+15
6.98461e+15
6.76853e+15
6.59199e+15
6.44632e+15
6.32512e+15
6.2235e+15
6.13764e+15
6.06454e+15
6.00179e+15
5.94745e+15
5.89993e+15
5.85794e+15
5.82039e+15
5.78637e+15
5.75511e+15
5.72593e+15
5.69821e+15
5.67142e+15
5.64501e+15
5.61846e+15
5.5912e+15
5.56259e+15
5.53183e+15
5.49786e+15
5.45918e+15
5.41348e+15
5.35706e+15
5.28379e+15
5.18372e+15
5.03874e+15
4.82872e+15
4.48892e+15
3.95953e+15
2.26502e+15
4.04499e+15
7.47766e+15
9.76912e+15
1.13596e+16
1.24711e+16
1.32899e+16
1.38992e+16
1.43399e+16
1.46412e+16
1.48232e+16
1.49017e+16
1.48883e+16
1.4783e+16
1.45892e+16
1.42817e+16
1.38642e+16
1.32554e+16
1.24813e+16
1.12352e+16
1.03069e+16
9.63177e+15
9.11813e+15
8.71364e+15
8.39023e+15
8.12874e+15
7.91499e+15
7.73859e+15
7.59184e+15
7.46882e+15
7.36492e+15
7.27648e+15
7.20061e+15
7.13494e+15
7.07755e+15
7.02687e+15
6.98158e+15
6.94058e+15
6.90292e+15
6.86778e+15
6.83443e+15
6.8022e+15
6.77043e+15
6.73849e+15
6.70571e+15
6.6713e+15
6.63433e+15
6.59355e+15
6.54719e+15
6.49256e+15
6.42535e+15
6.33839e+15
6.21996e+15
6.04839e+15
5.79652e+15
5.3804e+15
4.69624e+15
2.66621e+15
4.71074e+15
8.68375e+15
1.13149e+16
1.31322e+16
1.44031e+16
1.53442e+16
1.60448e+16
1.65496e+16
1.68932e+16
1.71004e+16
1.71892e+16
1.71717e+16
1.70493e+16
1.68219e+16
1.64668e+16
1.59778e+16
1.5278e+16
1.43761e+16
1.29939e+16
1.19411e+16
1.11641e+16
1.05686e+16
1.00979e+16
9.7209e+15
9.41568e+15
9.166e+15
8.95988e+15
8.78839e+15
8.64464e+15
8.52324e+15
8.41996e+15
8.33137e+15
8.25472e+15
8.18778e+15
8.12869e+15
8.07592e+15
8.02817e+15
7.98433e+15
7.94345e+15
7.90466e+15
7.86717e+15
7.83025e+15
7.79313e+15
7.75503e+15
7.71507e+15
7.67217e+15
7.62493e+15
7.57135e+15
7.50843e+15
7.43141e+15
7.33231e+15
7.19797e+15
7.00372e+15
6.71597e+15
6.23276e+15
5.408e+15
3.06982e+15
5.4224e+15
9.88614e+15
1.28052e+16
1.48152e+16
1.62289e+16
1.72768e+16
1.80535e+16
1.86117e+16
1.89905e+16
1.92181e+16
1.93145e+16
1.92921e+16
1.91528e+16
1.8894e+16
1.84939e+16
1.79388e+16
1.71548e+16
1.6139e+16
1.46411e+16
1.34784e+16
1.26088e+16
1.1937e+16
1.1404e+16
1.0976e+16
1.06289e+16
1.03448e+16
1.011e+16
9.91469e+15
9.75092e+15
9.61264e+15
9.495e+15
9.39412e+15
9.30688e+15
9.23072e+15
9.16352e+15
9.10353e+15
9.04927e+15
8.99949e+15
8.95307e+15
8.90905e+15
8.86653e+15
8.82464e+15
8.78255e+15
8.73937e+15
8.6941e+15
8.64554e+15
8.59217e+15
8.53183e+15
8.46129e+15
8.37547e+15
8.26584e+15
8.11829e+15
7.90595e+15
7.59017e+15
7.05398e+15
6.11319e+15
3.49959e+15
6.22328e+15
1.11077e+16
1.42527e+16
1.64153e+16
1.79515e+16
1.90864e+16
1.99236e+16
2.05238e+16
2.09301e+16
2.11735e+16
2.1275e+16
2.12472e+16
2.10917e+16
2.0804e+16
2.03622e+16
1.97469e+16
1.8887e+16
1.77712e+16
1.61754e+16
1.49166e+16
1.39634e+16
1.32214e+16
1.26301e+16
1.2154e+16
1.17673e+16
1.14502e+16
1.11882e+16
1.097e+16
1.0787e+16
1.06325e+16
1.05011e+16
1.03884e+16
1.0291e+16
1.0206e+16
1.0131e+16
1.00641e+16
1.00036e+16
9.94815e+15
9.89645e+15
9.84743e+15
9.80008e+15
9.75347e+15
9.70663e+15
9.6586e+15
9.60827e+15
9.55437e+15
9.49525e+15
9.42864e+15
9.35119e+15
9.25764e+15
9.13924e+15
8.98141e+15
8.75614e+15
8.42182e+15
7.85104e+15
6.82938e+15
3.9861e+15
7.1757e+15
1.237e+16
1.56659e+16
1.79386e+16
1.95667e+16
2.07662e+16
2.16483e+16
2.228e+16
2.27074e+16
2.29629e+16
2.3068e+16
2.30348e+16
2.28646e+16
2.25508e+16
2.20714e+16
2.14026e+16
2.04757e+16
1.92743e+16
1.75962e+16
1.62541e+16
1.52264e+16
1.44203e+16
1.3775e+16
1.32539e+16
1.28298e+16
1.24816e+16
1.21936e+16
1.19537e+16
1.17525e+16
1.15825e+16
1.14379e+16
1.1314e+16
1.12069e+16
1.11134e+16
1.1031e+16
1.09575e+16
1.08911e+16
1.08302e+16
1.07735e+16
1.07197e+16
1.06678e+16
1.06166e+16
1.05653e+16
1.05127e+16
1.04576e+16
1.03986e+16
1.03342e+16
1.02618e+16
1.01782e+16
1.0078e+16
9.95261e+15
9.78757e+15
9.55487e+15
9.21255e+15
8.62912e+15
7.57297e+15
4.57306e+15
8.38248e+15
1.36942e+16
1.70477e+16
1.9379e+16
2.1062e+16
2.23037e+16
2.32176e+16
2.38732e+16
2.43174e+16
2.45831e+16
2.46915e+16
2.46539e+16
2.44711e+16
2.41348e+16
2.36223e+16
2.29072e+16
2.19231e+16
2.06499e+16
1.89033e+16
1.74902e+16
1.63966e+16
1.55326e+16
1.48378e+16
1.42751e+16
1.38161e+16
1.34388e+16
1.31263e+16
1.28658e+16
1.26473e+16
1.24627e+16
1.23056e+16
1.2171e+16
1.20547e+16
1.19532e+16
1.18637e+16
1.1784e+16
1.17119e+16
1.16459e+16
1.15844e+16
1.15261e+16
1.14699e+16
1.14145e+16
1.13589e+16
1.13019e+16
1.12424e+16
1.11787e+16
1.11093e+16
1.10317e+16
1.09426e+16
1.08369e+16
1.07063e+16
1.05371e+16
1.03025e+16
9.96314e+15
9.39108e+15
8.35781e+15
5.32703e+15
9.96338e+15
1.50677e+16
1.83667e+16
2.07045e+16
2.24144e+16
2.36842e+16
2.46228e+16
2.52985e+16
2.57581e+16
2.60337e+16
2.61461e+16
2.61058e+16
2.59128e+16
2.55578e+16
2.50174e+16
2.42632e+16
2.32319e+16
2.18999e+16
2.00972e+16
1.86244e+16
1.7473e+16
1.65571e+16
1.58173e+16
1.52163e+16
1.47251e+16
1.43206e+16
1.39853e+16
1.37056e+16
1.34708e+16
1.32724e+16
1.31036e+16
1.29589e+16
1.28339e+16
1.27249e+16
1.26288e+16
1.25432e+16
1.24658e+16
1.2395e+16
1.2329e+16
1.22665e+16
1.22062e+16
1.21468e+16
1.20873e+16
1.20262e+16
1.19625e+16
1.18945e+16
1.18204e+16
1.17381e+16
1.16442e+16
1.15341e+16
1.14e+16
1.12294e+16
1.09983e+16
1.06722e+16
1.01353e+16
9.18879e+15
6.35285e+15
5.4333e+15
4.34158e+15
3.59947e+15
3.05384e+15
2.62213e+15
2.2576e+15
1.93202e+15
1.6268e+15
1.32794e+15
1.02487e+15
7.93323e+15
6.97013e+15
6.12619e+15
5.38001e+15
4.70638e+15
4.08385e+15
3.49488e+15
2.92521e+15
2.3624e+15
1.79719e+15
8.95049e+15
8.06569e+15
7.22062e+15
6.41486e+15
5.64312e+15
4.89909e+15
4.17648e+15
3.4697e+15
2.77392e+15
2.0855e+15
9.56488e+15
8.71258e+15
7.86788e+15
7.03518e+15
6.21559e+15
5.40915e+15
4.61511e+15
3.83257e+15
3.06046e+15
2.29712e+15
9.95877e+15
9.11832e+15
8.27048e+15
7.42111e+15
6.5738e+15
5.73128e+15
4.8954e+15
4.06755e+15
3.24873e+15
2.43832e+15
1.02393e+16
9.4006e+15
8.54658e+15
7.68388e+15
6.8172e+15
5.95057e+15
5.0871e+15
4.22931e+15
3.37938e+15
2.53704e+15
1.04467e+16
9.60501e+15
8.74357e+15
7.86946e+15
6.98799e+15
6.10385e+15
5.22084e+15
4.3421e+15
3.4705e+15
2.60602e+15
1.06077e+16
9.76077e+15
8.89158e+15
8.00742e+15
7.11397e+15
6.21629e+15
5.3186e+15
4.42438e+15
3.53693e+15
2.65635e+15
1.07372e+16
9.88432e+15
9.00758e+15
8.11452e+15
7.21103e+15
6.30244e+15
5.39319e+15
4.48699e+15
3.5874e+15
2.6946e+15
1.0845e+16
9.98591e+15
9.10206e+15
8.20106e+15
7.28897e+15
6.37128e+15
5.45258e+15
4.53671e+15
3.62743e+15
2.72492e+15
1.09372e+16
1.00721e+16
9.18164e+15
8.27352e+15
7.35391e+15
6.4284e+15
5.50172e+15
4.57777e+15
3.66044e+15
2.74993e+15
1.10181e+16
1.01473e+16
9.25073e+15
8.33615e+15
7.40983e+15
6.47746e+15
5.54382e+15
4.6129e+15
3.68865e+15
2.77131e+15
1.10908e+16
1.02147e+16
9.31237e+15
8.39186e+15
7.45945e+15
6.5209e+15
5.58105e+15
4.64392e+15
3.71356e+15
2.79018e+15
1.11578e+16
1.02765e+16
9.36884e+15
8.44279e+15
7.50474e+15
6.56048e+15
5.61493e+15
4.67215e+15
3.7362e+15
2.80735e+15
1.1221e+16
1.03347e+16
9.42189e+15
8.49056e+15
7.54716e+15
6.59754e+15
5.64663e+15
4.69854e+15
3.75738e+15
2.82339e+15
1.12819e+16
1.03908e+16
9.47296e+15
8.53651e+15
7.58795e+15
6.63314e+15
5.67707e+15
4.72388e+15
3.77771e+15
2.8388e+15
1.13421e+16
1.04461e+16
9.52333e+15
8.58181e+15
7.62813e+15
6.66819e+15
5.70704e+15
4.74882e+15
3.79771e+15
2.85396e+15
1.14029e+16
1.05021e+16
9.57419e+15
8.62753e+15
7.66866e+15
6.70355e+15
5.73726e+15
4.77396e+15
3.81787e+15
2.86924e+15
1.14658e+16
1.05598e+16
9.62669e+15
8.6747e+15
7.71047e+15
6.74001e+15
5.76841e+15
4.79987e+15
3.83865e+15
2.88499e+15
1.1532e+16
1.06206e+16
9.68199e+15
8.72438e+15
7.7545e+15
6.77839e+15
5.8012e+15
4.82713e+15
3.8605e+15
2.90154e+15
1.16031e+16
1.0686e+16
9.74136e+15
8.7777e+15
7.80174e+15
6.81956e+15
5.83635e+15
4.85636e+15
3.88392e+15
2.91927e+15
1.16808e+16
1.07573e+16
9.80615e+15
8.83587e+15
7.85326e+15
6.86445e+15
5.87468e+15
4.88821e+15
3.90943e+15
2.93857e+15
1.17669e+16
1.08363e+16
9.87789e+15
8.90027e+15
7.91029e+15
6.91413e+15
5.91707e+15
4.92343e+15
3.93763e+15
2.9599e+15
1.18634e+16
1.09249e+16
9.95834e+15
8.97246e+15
7.97419e+15
6.96978e+15
5.96456e+15
4.96286e+15
3.96919e+15
2.98375e+15
1.19729e+16
1.10253e+16
1.00495e+16
9.05425e+15
8.04658e+15
7.0328e+15
6.01831e+15
5.00749e+15
4.00488e+15
3.01071e+15
1.20981e+16
1.11401e+16
1.01538e+16
9.14775e+15
8.12931e+15
7.1048e+15
6.0797e+15
5.05844e+15
4.04561e+15
3.04146e+15
1.22425e+16
1.12725e+16
1.02738e+16
9.25543e+15
8.22455e+15
7.18766e+15
6.15033e+15
5.11703e+15
4.09244e+15
3.07679e+15
1.24099e+16
1.1426e+16
1.0413e+16
9.38019e+15
8.33487e+15
7.28362e+15
6.23209e+15
5.18484e+15
4.1466e+15
3.11763e+15
1.26051e+16
1.16047e+16
1.05751e+16
9.52545e+15
8.46328e+15
7.39528e+15
6.32721e+15
5.2637e+15
4.20957e+15
3.16509e+15
1.28335e+16
1.18139e+16
1.07647e+16
9.69528e+15
8.61335e+15
7.52574e+15
6.4383e+15
5.35578e+15
4.28306e+15
3.22045e+15
1.31016e+16
1.20594e+16
1.09871e+16
9.89445e+15
8.78931e+15
7.67865e+15
6.56849e+15
5.46365e+15
4.36912e+15
3.28524e+15
1.34171e+16
1.23482e+16
1.12487e+16
1.01286e+16
8.99615e+15
7.85837e+15
6.72144e+15
5.59035e+15
4.47017e+15
3.36127e+15
1.37892e+16
1.26886e+16
1.1557e+16
1.04046e+16
9.23984e+15
8.07006e+15
6.90159e+15
5.73953e+15
4.5891e+15
3.4507e+15
1.42287e+16
1.30906e+16
1.19211e+16
1.07305e+16
9.52758e+15
8.32002e+15
7.11427e+15
5.91564e+15
4.72945e+15
3.55618e+15
1.47484e+16
1.35661e+16
1.23518e+16
1.11161e+16
9.86824e+15
8.61603e+15
7.3662e+15
6.12426e+15
4.89569e+15
3.68105e+15
1.53634e+16
1.41292e+16
1.28623e+16
1.15736e+16
1.02728e+16
8.96784e+15
7.66582e+15
6.37249e+15
5.09352e+15
3.82957e+15
1.60909e+16
1.47963e+16
1.34681e+16
1.21177e+16
1.07549e+16
9.38792e+15
8.02419e+15
6.66974e+15
5.3305e+15
4.00738e+15
1.69529e+16
1.55894e+16
1.41914e+16
1.27702e+16
1.13357e+16
9.89665e+15
8.46032e+15
7.03306e+15
5.62105e+15
4.22562e+15
1.79854e+16
1.6545e+16
1.50689e+16
1.35684e+16
1.20534e+16
1.05323e+16
9.01234e+15
7.49925e+15
5.99877e+15
4.51151e+15
1.91745e+16
1.76501e+16
1.60909e+16
1.45085e+16
1.29119e+16
1.13083e+16
9.70346e+15
8.10078e+15
6.50395e+15
4.90251e+15
1.99219e+16
1.83182e+16
1.66825e+16
1.50256e+16
1.33558e+16
1.16797e+16
1.00025e+16
8.32849e+15
6.66341e+15
5.00757e+15
2.04109e+16
1.87461e+16
1.70553e+16
1.53486e+16
1.36338e+16
1.19169e+16
1.02019e+16
8.49264e+15
6.79386e+15
5.10577e+15
2.06834e+16
1.89727e+16
1.72428e+16
1.5503e+16
1.376e+16
1.20198e+16
1.02868e+16
8.56307e+15
6.8514e+15
5.15052e+15
2.08037e+16
1.90655e+16
1.73148e+16
1.55596e+16
1.38058e+16
1.20576e+16
1.03181e+16
8.58901e+15
6.87277e+15
5.16749e+15
2.08156e+16
1.90644e+16
1.73055e+16
1.55467e+16
1.37928e+16
1.20461e+16
1.03084e+16
8.58131e+15
6.86697e+15
5.16368e+15
2.07543e+16
1.90022e+16
1.72449e+16
1.5491e+16
1.37428e+16
1.20021e+16
1.02704e+16
8.54946e+15
6.84103e+15
5.14458e+15
2.06278e+16
1.88846e+16
1.71378e+16
1.53933e+16
1.36548e+16
1.19239e+16
1.02025e+16
8.4921e+15
6.79407e+15
5.10956e+15
2.04253e+16
1.86983e+16
1.69677e+16
1.52391e+16
1.35162e+16
1.18014e+16
1.00963e+16
8.40244e+15
6.72107e+15
5.0549e+15
2.01246e+16
1.84202e+16
1.67132e+16
1.50085e+16
1.33097e+16
1.16192e+16
9.9388e+15
8.26998e+15
6.61387e+15
4.97453e+15
1.97006e+16
1.80264e+16
1.63513e+16
1.46798e+16
1.30151e+16
1.13595e+16
9.71453e+15
8.08173e+15
6.46217e+15
4.86071e+15
1.91219e+16
1.74854e+16
1.58517e+16
1.42243e+16
1.2606e+16
1.09984e+16
9.4028e+15
7.8204e+15
6.25216e+15
4.70307e+15
1.83485e+16
1.67569e+16
1.51746e+16
1.3604e+16
1.20467e+16
1.05037e+16
8.97545e+15
7.46234e+15
5.96483e+15
4.48735e+15
1.73241e+16
1.57819e+16
1.42606e+16
1.27612e+16
1.12836e+16
9.8269e+15
8.38991e+15
6.97173e+15
5.57141e+15
4.19194e+15
1.59673e+16
1.44729e+16
1.30208e+16
1.16094e+16
1.02355e+16
8.89468e+15
7.58257e+15
6.29537e+15
5.0295e+15
3.78527e+15
1.41406e+16
1.26767e+16
1.12984e+16
9.99833e+15
8.76473e+15
7.58549e+15
6.44946e+15
5.34744e+15
4.27121e+15
3.21683e+15
1.15898e+16
1.01078e+16
8.81563e+15
7.67695e+15
6.65463e+15
5.7179e+15
4.84266e+15
4.01074e+15
3.20725e+15
2.42274e+15
7.62014e+15
6.06093e+15
4.98573e+15
4.18657e+15
3.55143e+15
3.01696e+15
2.54519e+15
2.1124e+15
1.7008e+15
1.29916e+15
1.43708e+16
1.65077e+16
1.92976e+16
2.28983e+16
2.75449e+16
3.35857e+16
4.1559e+16
5.23535e+16
6.75908e+16
9.07347e+16
1.31606e+17
1.61773e+16
1.85773e+16
2.17128e+16
2.57595e+16
3.09809e+16
3.77671e+16
4.67201e+16
5.88315e+16
7.59e+16
1.01714e+17
1.46429e+17
1.8355e+16
2.10729e+16
2.46253e+16
2.9209e+16
3.51201e+16
4.27969e+16
5.29129e+16
6.65693e+16
8.57366e+16
1.14432e+17
1.62411e+17
2.10269e+16
2.41375e+16
2.82018e+16
3.34423e+16
4.01934e+16
4.89483e+16
6.04584e+16
7.59357e+16
9.74938e+16
1.29211e+17
1.79719e+17
2.38929e+16
2.74302e+16
3.20446e+16
3.79865e+16
4.56289e+16
5.55175e+16
6.84731e+16
8.57926e+16
1.09658e+17
1.43993e+17
1.95965e+17
2.66453e+16
3.0598e+16
3.57414e+16
4.23528e+16
5.08399e+16
6.17916e+16
7.60812e+16
9.50553e+16
1.2089e+17
1.57225e+17
2.09861e+17
2.92713e+16
3.36252e+16
3.92733e+16
4.65187e+16
5.57986e+16
6.77369e+16
8.32426e+16
1.03681e+17
1.31169e+17
1.69002e+17
2.21821e+17
3.17625e+16
3.65009e+16
4.26272e+16
5.04681e+16
6.04859e+16
7.33308e+16
8.99328e+16
1.11651e+17
1.40505e+17
1.79432e+17
2.32141e+17
3.41112e+16
3.9215e+16
4.57908e+16
5.41866e+16
6.48848e+16
7.85545e+16
9.61334e+16
1.18955e+17
1.48918e+17
1.88619e+17
2.41031e+17
3.63321e+16
4.17833e+16
4.87824e+16
5.76953e+16
6.90211e+16
8.34399e+16
1.01887e+17
1.25654e+17
1.56508e+17
1.9673e+17
2.48718e+17
3.85228e+16
4.43179e+16
5.17317e+16
6.11462e+16
7.30731e+16
8.81981e+16
1.07443e+17
1.32046e+17
1.6363e+17
2.04177e+17
2.55621e+17
4.07782e+16
4.69279e+16
5.47643e+16
6.4684e+16
7.72074e+16
9.30192e+16
1.13018e+17
1.3837e+17
1.70544e+17
2.11229e+17
2.6197e+17
4.31354e+16
4.96551e+16
5.79267e+16
6.83583e+16
8.14749e+16
9.79518e+16
1.18651e+17
1.44652e+17
1.77249e+17
2.17851e+17
2.67666e+17
4.53793e+16
5.22494e+16
6.0925e+16
7.18213e+16
8.54615e+16
1.02502e+17
1.23758e+17
1.50209e+17
1.82979e+17
2.2322e+17
2.71879e+17
4.72175e+16
5.43712e+16
6.33649e+16
7.46154e+16
8.86379e+16
1.06065e+17
1.27657e+17
1.54302e+17
1.86969e+17
2.26609e+17
2.73968e+17
4.85615e+16
5.59182e+16
6.51294e+16
7.66092e+16
9.08605e+16
1.08488e+17
1.30202e+17
1.56804e+17
1.89138e+17
2.27994e+17
2.73969e+17
4.94061e+16
5.68846e+16
6.62139e+16
7.78014e+16
9.2135e+16
1.09791e+17
1.31432e+17
1.57786e+17
1.89594e+17
2.27522e+17
2.72045e+17
4.97497e+16
5.72695e+16
6.66191e+16
7.81966e+16
9.24729e+16
1.09997e+17
1.31389e+17
1.57314e+17
1.88433e+17
2.25315e+17
2.68336e+17
4.95925e+16
5.70742e+16
6.63487e+16
7.78024e+16
9.18887e+16
1.0913e+17
1.30111e+17
1.55448e+17
1.85738e+17
2.2148e+17
2.6297e+17
4.89393e+16
5.63054e+16
6.54123e+16
7.66331e+16
9.04031e+16
1.07221e+17
1.27641e+17
1.52244e+17
1.81585e+17
2.16113e+17
2.56063e+17
4.77966e+16
5.49721e+16
6.3822e+16
7.47049e+16
8.8038e+16
1.04299e+17
1.24017e+17
1.4775e+17
1.76031e+17
2.09285e+17
2.47707e+17
4.61742e+16
5.30867e+16
6.15937e+16
7.20382e+16
8.48189e+16
1.00394e+17
1.19275e+17
1.42008e+17
1.69126e+17
2.01057e+17
2.37981e+17
4.40886e+16
5.06693e+16
5.8752e+16
6.86628e+16
8.07814e+16
9.5548e+16
1.13461e+17
1.35067e+17
1.60918e+17
1.91482e+17
2.26965e+17
4.17253e+16
4.79356e+16
5.55504e+16
6.48785e+16
7.62813e+16
9.0182e+16
1.07071e+17
1.27501e+17
1.52065e+17
1.81306e+17
2.1551e+17
3.93999e+16
4.52499e+16
5.24128e+16
6.11814e+16
7.19001e+16
8.4977e+16
1.00895e+17
1.20219e+17
1.43589e+17
1.71647e+17
2.0481e+17
3.7183e+16
4.26929e+16
4.94307e+16
5.76747e+16
6.77536e+16
8.00611e+16
9.50725e+16
1.13364e+17
1.35626e+17
1.62613e+17
1.94916e+17
3.50127e+16
4.01922e+16
4.65182e+16
5.42554e+16
6.37165e+16
7.5281e+16
8.94154e+16
1.06705e+17
1.27889e+17
1.53849e+17
1.85397e+17
3.27799e+16
3.76221e+16
4.35285e+16
5.07497e+16
5.95824e+16
7.03898e+16
8.36278e+16
9.98879e+16
1.19956e+17
1.44854e+17
1.75683e+17
3.04152e+16
3.49028e+16
4.03686e+16
4.70489e+16
5.52224e+16
6.52342e+16
7.75256e+16
9.2689e+16
1.11554e+17
1.35297e+17
1.6539e+17
2.79209e+16
3.20369e+16
3.70419e+16
4.31569e+16
5.06412e+16
5.98187e+16
7.11121e+16
8.51066e+16
1.02666e+17
1.25127e+17
1.54426e+17
2.53001e+16
2.90282e+16
3.3553e+16
3.90794e+16
4.58455e+16
5.41511e+16
6.43943e+16
7.71436e+16
9.32813e+16
1.1429e+17
1.42666e+17
2.25622e+16
2.58874e+16
2.99145e+16
3.48315e+16
4.08532e+16
4.82523e+16
5.7396e+16
6.88235e+16
8.34105e+16
1.02752e+17
1.29966e+17
1.97137e+16
2.26218e+16
2.61352e+16
3.04239e+16
3.56774e+16
4.21377e+16
5.0135e+16
6.01646e+16
7.30629e+16
9.04682e+16
1.161e+17
1.68062e+16
1.92901e+16
2.22841e+16
2.59383e+16
3.04151e+16
3.59231e+16
4.27494e+16
5.13313e+16
6.24273e+16
7.76096e+16
1.00986e+17
1.44124e+16
1.65458e+16
1.91151e+16
2.22513e+16
2.6094e+16
3.08227e+16
3.66855e+16
4.40619e+16
5.36164e+16
6.6755e+16
8.74514e+16
7.33413e+15
7.96333e+15
8.71521e+15
9.43687e+15
1.0115e+16
1.07489e+16
1.13376e+16
1.18819e+16
1.23828e+16
1.28569e+16
1.33271e+16
1.3803e+16
1.42647e+16
1.46467e+16
1.4918e+16
1.50801e+16
1.51351e+16
1.50847e+16
1.49303e+16
1.46736e+16
1.43147e+16
1.38554e+16
1.33161e+16
1.27612e+16
1.22353e+16
1.17265e+16
1.12108e+16
1.06643e+16
1.00818e+16
9.46345e+15
8.80957e+15
8.12149e+15
7.47225e+15
6.93774e+15
6.49109e+15
9.76792e+15
1.01493e+16
1.06234e+16
1.10951e+16
1.15521e+16
1.19906e+16
1.24069e+16
1.2799e+16
1.31655e+16
1.3517e+16
1.38693e+16
1.42293e+16
1.45808e+16
1.48718e+16
1.5076e+16
1.51929e+16
1.52228e+16
1.51663e+16
1.50245e+16
1.47989e+16
1.44909e+16
1.41029e+16
1.36535e+16
1.31973e+16
1.27705e+16
1.23631e+16
1.19561e+16
1.15317e+16
1.10882e+16
1.06278e+16
1.01535e+16
9.66954e+15
9.22883e+15
8.87755e+15
8.59216e+15
1.06184e+16
1.09318e+16
1.13144e+16
1.16904e+16
1.20522e+16
1.2398e+16
1.2726e+16
1.30351e+16
1.33244e+16
1.36023e+16
1.38818e+16
1.41684e+16
1.44493e+16
1.46826e+16
1.48464e+16
1.49392e+16
1.49608e+16
1.49112e+16
1.47911e+16
1.46019e+16
1.43453e+16
1.40234e+16
1.36521e+16
1.32769e+16
1.29273e+16
1.25945e+16
1.22628e+16
1.19177e+16
1.15574e+16
1.11836e+16
1.0798e+16
1.0403e+16
1.00406e+16
9.74895e+15
9.50949e+15
1.11179e+16
1.14044e+16
1.17496e+16
1.2085e+16
1.24046e+16
1.27078e+16
1.29935e+16
1.32614e+16
1.35112e+16
1.37504e+16
1.39904e+16
1.42359e+16
1.4476e+16
1.46748e+16
1.48136e+16
1.48915e+16
1.4908e+16
1.48635e+16
1.47583e+16
1.45935e+16
1.43702e+16
1.40901e+16
1.37669e+16
1.34399e+16
1.31347e+16
1.28437e+16
1.2553e+16
1.22496e+16
1.19316e+16
1.16001e+16
1.1256e+16
1.09008e+16
1.0572e+16
1.03051e+16
1.00842e+16
1.14292e+16
1.17047e+16
1.20341e+16
1.23518e+16
1.26525e+16
1.29359e+16
1.32013e+16
1.34489e+16
1.36787e+16
1.38979e+16
1.41168e+16
1.43399e+16
1.45572e+16
1.47364e+16
1.4861e+16
1.49304e+16
1.49444e+16
1.49032e+16
1.48073e+16
1.46575e+16
1.44547e+16
1.42001e+16
1.39056e+16
1.36069e+16
1.33273e+16
1.30597e+16
1.27915e+16
1.25104e+16
1.22145e+16
1.19043e+16
1.15806e+16
1.12443e+16
1.09307e+16
1.06747e+16
1.04617e+16
1.16549e+16
1.19263e+16
1.22494e+16
1.25598e+16
1.28524e+16
1.31271e+16
1.33835e+16
1.36218e+16
1.38422e+16
1.40518e+16
1.42606e+16
1.44728e+16
1.46788e+16
1.48482e+16
1.49658e+16
1.50311e+16
1.50442e+16
1.50055e+16
1.49153e+16
1.47744e+16
1.45833e+16
1.4343e+16
1.40643e+16
1.37808e+16
1.35145e+16
1.32591e+16
1.30023e+16
1.27323e+16
1.24471e+16
1.21471e+16
1.18327e+16
1.15048e+16
1.11978e+16
1.09462e+16
1.07363e+16
1.18246e+16
1.20951e+16
1.24165e+16
1.27247e+16
1.30145e+16
1.3286e+16
1.35389e+16
1.37736e+16
1.39902e+16
1.41959e+16
1.44005e+16
1.46081e+16
1.48093e+16
1.49746e+16
1.50894e+16
1.51533e+16
1.51668e+16
1.513e+16
1.50433e+16
1.49074e+16
1.47228e+16
1.44901e+16
1.42197e+16
1.39439e+16
1.36843e+16
1.34347e+16
1.31833e+16
1.29184e+16
1.2638e+16
1.23423e+16
1.20317e+16
1.1707e+16
1.14022e+16
1.11519e+16
1.09427e+16
1.19601e+16
1.22313e+16
1.25533e+16
1.28616e+16
1.31512e+16
1.34223e+16
1.36746e+16
1.39085e+16
1.41242e+16
1.43289e+16
1.45323e+16
1.47386e+16
1.49385e+16
1.51027e+16
1.52169e+16
1.52809e+16
1.52951e+16
1.52597e+16
1.51753e+16
1.50422e+16
1.4861e+16
1.46321e+16
1.43656e+16
1.40933e+16
1.38367e+16
1.35896e+16
1.33403e+16
1.30773e+16
1.27985e+16
1.25041e+16
1.21945e+16
1.18702e+16
1.15654e+16
1.13148e+16
1.11052e+16
1.20726e+16
1.23452e+16
1.26688e+16
1.29784e+16
1.32692e+16
1.35413e+16
1.37943e+16
1.40288e+16
1.4245e+16
1.44501e+16
1.46539e+16
1.48605e+16
1.50608e+16
1.52254e+16
1.53402e+16
1.54049e+16
1.542e+16
1.53858e+16
1.53026e+16
1.51711e+16
1.49915e+16
1.47643e+16
1.44993e+16
1.42282e+16
1.39725e+16
1.3726e+16
1.34771e+16
1.32144e+16
1.29355e+16
1.26409e+16
1.23307e+16
1.20055e+16
1.16996e+16
1.1448e+16
1.12373e+16
1.21692e+16
1.24436e+16
1.27691e+16
1.30806e+16
1.33731e+16
1.36467e+16
1.39011e+16
1.41369e+16
1.43542e+16
1.45604e+16
1.47653e+16
1.4973e+16
1.51745e+16
1.53403e+16
1.54561e+16
1.55218e+16
1.55378e+16
1.55044e+16
1.54221e+16
1.52913e+16
1.51123e+16
1.48855e+16
1.46208e+16
1.43497e+16
1.40938e+16
1.38469e+16
1.35975e+16
1.33341e+16
1.30544e+16
1.27587e+16
1.24472e+16
1.21206e+16
1.18131e+16
1.156e+16
1.13482e+16
1.22544e+16
1.25306e+16
1.28583e+16
1.31718e+16
1.34662e+16
1.37415e+16
1.39976e+16
1.42349e+16
1.44537e+16
1.46612e+16
1.48675e+16
1.50767e+16
1.52797e+16
1.54469e+16
1.55639e+16
1.56306e+16
1.56474e+16
1.56147e+16
1.55329e+16
1.54023e+16
1.52233e+16
1.49964e+16
1.47311e+16
1.44594e+16
1.42027e+16
1.3955e+16
1.37047e+16
1.34402e+16
1.31592e+16
1.28621e+16
1.2549e+16
1.22206e+16
1.19113e+16
1.16567e+16
1.14436e+16
1.23312e+16
1.26092e+16
1.2939e+16
1.32546e+16
1.35509e+16
1.38281e+16
1.40859e+16
1.43248e+16
1.45451e+16
1.47541e+16
1.49619e+16
1.51726e+16
1.53772e+16
1.55459e+16
1.56641e+16
1.57318e+16
1.57493e+16
1.57171e+16
1.56355e+16
1.55049e+16
1.53257e+16
1.50981e+16
1.48321e+16
1.45593e+16
1.43015e+16
1.40527e+16
1.38013e+16
1.35355e+16
1.32531e+16
1.29544e+16
1.26396e+16
1.23093e+16
1.19982e+16
1.17421e+16
1.15276e+16
1.24019e+16
1.26817e+16
1.30136e+16
1.33311e+16
1.36294e+16
1.39083e+16
1.41678e+16
1.44083e+16
1.46301e+16
1.48406e+16
1.50498e+16
1.52621e+16
1.54684e+16
1.56385e+16
1.57578e+16
1.58264e+16
1.58446e+16
1.58128e+16
1.57313e+16
1.56005e+16
1.54208e+16
1.51924e+16
1.49253e+16
1.46514e+16
1.43924e+16
1.41425e+16
1.38897e+16
1.36226e+16
1.33387e+16
1.30384e+16
1.27219e+16
1.23897e+16
1.20768e+16
1.18192e+16
1.16034e+16
1.24683e+16
1.27497e+16
1.30836e+16
1.34031e+16
1.37032e+16
1.39839e+16
1.42451e+16
1.44871e+16
1.47104e+16
1.49223e+16
1.5133e+16
1.53468e+16
1.55546e+16
1.57261e+16
1.58466e+16
1.5916e+16
1.59347e+16
1.59032e+16
1.58216e+16
1.56906e+16
1.55103e+16
1.5281e+16
1.50128e+16
1.47376e+16
1.44774e+16
1.42262e+16
1.39722e+16
1.37037e+16
1.34183e+16
1.31164e+16
1.27981e+16
1.24641e+16
1.21495e+16
1.18904e+16
1.16734e+16
1.25319e+16
1.28149e+16
1.31507e+16
1.34722e+16
1.3774e+16
1.40565e+16
1.43192e+16
1.45628e+16
1.47875e+16
1.50007e+16
1.52128e+16
1.54281e+16
1.56374e+16
1.58103e+16
1.59318e+16
1.6002e+16
1.60212e+16
1.59899e+16
1.59083e+16
1.57769e+16
1.55959e+16
1.53657e+16
1.50963e+16
1.48197e+16
1.45583e+16
1.43058e+16
1.40505e+16
1.37806e+16
1.34938e+16
1.31903e+16
1.28702e+16
1.25344e+16
1.22181e+16
1.19576e+16
1.17394e+16
1.25939e+16
1.28785e+16
1.32163e+16
1.35396e+16
1.38433e+16
1.41274e+16
1.43917e+16
1.46367e+16
1.48628e+16
1.50775e+16
1.5291e+16
1.55077e+16
1.57184e+16
1.58926e+16
1.60151e+16
1.60861e+16
1.61058e+16
1.60746e+16
1.59928e+16
1.5861e+16
1.56793e+16
1.54482e+16
1.51775e+16
1.48996e+16
1.46369e+16
1.43832e+16
1.41266e+16
1.38553e+16
1.35669e+16
1.32618e+16
1.29401e+16
1.26024e+16
1.22844e+16
1.20225e+16
1.18031e+16
1.26558e+16
1.2942e+16
1.32817e+16
1.36068e+16
1.39122e+16
1.4198e+16
1.4464e+16
1.47105e+16
1.4938e+16
1.5154e+16
1.53688e+16
1.5587e+16
1.57992e+16
1.59746e+16
1.60982e+16
1.61698e+16
1.61899e+16
1.61589e+16
1.6077e+16
1.59447e+16
1.57623e+16
1.55301e+16
1.52581e+16
1.49789e+16
1.47149e+16
1.44599e+16
1.42019e+16
1.39292e+16
1.36394e+16
1.33326e+16
1.30092e+16
1.26698e+16
1.235e+16
1.20867e+16
1.18661e+16
1.27186e+16
1.30065e+16
1.33481e+16
1.36752e+16
1.39824e+16
1.42699e+16
1.45374e+16
1.47855e+16
1.50144e+16
1.52318e+16
1.5448e+16
1.56676e+16
1.58813e+16
1.6058e+16
1.61826e+16
1.62549e+16
1.62755e+16
1.62446e+16
1.61625e+16
1.60297e+16
1.58465e+16
1.56133e+16
1.53399e+16
1.50593e+16
1.47939e+16
1.45376e+16
1.42783e+16
1.40041e+16
1.37127e+16
1.34043e+16
1.30791e+16
1.27379e+16
1.24164e+16
1.21516e+16
1.19298e+16
1.27838e+16
1.30733e+16
1.3417e+16
1.3746e+16
1.40551e+16
1.43444e+16
1.46136e+16
1.48632e+16
1.50936e+16
1.53124e+16
1.55301e+16
1.57513e+16
1.59665e+16
1.61445e+16
1.62701e+16
1.63432e+16
1.63642e+16
1.63334e+16
1.62511e+16
1.61178e+16
1.59338e+16
1.56994e+16
1.54247e+16
1.51426e+16
1.48757e+16
1.4618e+16
1.43573e+16
1.40816e+16
1.37886e+16
1.34784e+16
1.31515e+16
1.28082e+16
1.2485e+16
1.22187e+16
1.19957e+16
1.28525e+16
1.31439e+16
1.34897e+16
1.38208e+16
1.41319e+16
1.44231e+16
1.46941e+16
1.49454e+16
1.51773e+16
1.53977e+16
1.56169e+16
1.58397e+16
1.60565e+16
1.62359e+16
1.63626e+16
1.64365e+16
1.64579e+16
1.64272e+16
1.63447e+16
1.62108e+16
1.60259e+16
1.57903e+16
1.55141e+16
1.52305e+16
1.49621e+16
1.47029e+16
1.44407e+16
1.41633e+16
1.38686e+16
1.35567e+16
1.32277e+16
1.28825e+16
1.25573e+16
1.22894e+16
1.20651e+16
1.29264e+16
1.32197e+16
1.35678e+16
1.39012e+16
1.42144e+16
1.45076e+16
1.47806e+16
1.50337e+16
1.52674e+16
1.54893e+16
1.57102e+16
1.59347e+16
1.61533e+16
1.63343e+16
1.64621e+16
1.65368e+16
1.65587e+16
1.65281e+16
1.64454e+16
1.63109e+16
1.61251e+16
1.58881e+16
1.56103e+16
1.53249e+16
1.50549e+16
1.47941e+16
1.45303e+16
1.42512e+16
1.39546e+16
1.36407e+16
1.33097e+16
1.29622e+16
1.2635e+16
1.23654e+16
1.21396e+16
1.30071e+16
1.33024e+16
1.36532e+16
1.3989e+16
1.43046e+16
1.46e+16
1.48751e+16
1.51302e+16
1.53657e+16
1.55895e+16
1.58122e+16
1.60386e+16
1.62591e+16
1.64418e+16
1.6571e+16
1.66466e+16
1.6669e+16
1.66385e+16
1.65555e+16
1.64204e+16
1.62334e+16
1.59951e+16
1.57155e+16
1.54282e+16
1.51564e+16
1.48938e+16
1.46282e+16
1.43472e+16
1.40486e+16
1.37325e+16
1.33992e+16
1.30494e+16
1.27198e+16
1.24484e+16
1.2221e+16
1.30964e+16
1.33941e+16
1.37477e+16
1.40863e+16
1.44045e+16
1.47025e+16
1.49799e+16
1.52372e+16
1.54748e+16
1.57006e+16
1.59253e+16
1.61539e+16
1.63765e+16
1.6561e+16
1.66917e+16
1.67683e+16
1.67913e+16
1.67609e+16
1.66776e+16
1.65418e+16
1.63537e+16
1.61137e+16
1.58321e+16
1.55428e+16
1.5269e+16
1.50044e+16
1.47368e+16
1.44537e+16
1.41528e+16
1.38343e+16
1.34984e+16
1.31459e+16
1.28138e+16
1.25403e+16
1.23112e+16
1.31966e+16
1.3497e+16
1.38538e+16
1.41955e+16
1.45167e+16
1.48174e+16
1.50975e+16
1.53573e+16
1.55973e+16
1.58253e+16
1.60524e+16
1.62833e+16
1.65084e+16
1.6695e+16
1.68273e+16
1.69051e+16
1.69287e+16
1.68985e+16
1.68149e+16
1.66782e+16
1.64887e+16
1.62469e+16
1.59631e+16
1.56714e+16
1.53953e+16
1.51286e+16
1.48587e+16
1.45732e+16
1.42698e+16
1.39485e+16
1.36098e+16
1.32543e+16
1.29193e+16
1.26435e+16
1.24124e+16
1.33104e+16
1.36138e+16
1.39742e+16
1.43195e+16
1.46441e+16
1.4948e+16
1.52312e+16
1.54938e+16
1.57365e+16
1.59671e+16
1.61968e+16
1.64304e+16
1.66582e+16
1.68473e+16
1.69814e+16
1.70605e+16
1.70848e+16
1.70548e+16
1.69708e+16
1.68331e+16
1.66421e+16
1.63982e+16
1.61118e+16
1.58175e+16
1.55388e+16
1.52695e+16
1.49971e+16
1.47089e+16
1.44025e+16
1.40782e+16
1.37362e+16
1.33772e+16
1.3039e+16
1.27605e+16
1.25272e+16
1.34408e+16
1.37478e+16
1.41124e+16
1.44617e+16
1.47902e+16
1.50979e+16
1.53845e+16
1.56504e+16
1.58961e+16
1.61297e+16
1.63624e+16
1.65992e+16
1.68301e+16
1.7022e+16
1.71582e+16
1.72387e+16
1.72639e+16
1.72341e+16
1.71495e+16
1.70107e+16
1.6818e+16
1.65716e+16
1.62823e+16
1.59848e+16
1.57032e+16
1.5431e+16
1.51556e+16
1.48642e+16
1.45545e+16
1.42266e+16
1.38808e+16
1.35179e+16
1.3176e+16
1.28944e+16
1.26585e+16
1.35918e+16
1.39028e+16
1.42723e+16
1.46264e+16
1.49593e+16
1.52713e+16
1.55619e+16
1.58316e+16