/*--------------------------------*- C++ -*----------------------------------*\
| =========                 |                                                 |
| \\      /  F ield         | OpenFOAM: The Open Source CFD Toolbox           |
|  \\    /   O peration     | Version:  2406                                  |
|   \\  /    A nd           | Website:  www.openfoam.com                      |
|    \\/     M anipulation  |                                                 |
\*---------------------------------------------------------------------------*/
FoamFile
{
    version     2.0;
    format      ascii;
    arch        "LSB;label=32;scalar=64";
    class       volScalarField;
    location    "0/neutroRegion";
    object      precStar5;
}
// * * * * * * * * * * * * * * * * * * * * * * * * * * * * * * * * * * * * * //

dimensions      [0 -3 0 0 0 0 0];

internalField   nonuniform List<scalar> 
8595
(
1.05905e+15
9.96618e+14
8.34234e+14
8.10224e+14
7.85512e+14
7.83484e+14
7.9536e+14
8.06342e+14
8.14239e+14
8.17382e+14
8.14308e+14
8.0722e+14
7.76665e+14
8.20266e+14
7.31423e+14
8.50247e+14
7.27603e+14
1.05689e+15
1.04349e+15
9.31756e+14
9.58714e+14
9.7297e+14
9.69471e+14
9.6478e+14
9.60964e+14
9.56597e+14
9.51588e+14
9.46191e+14
9.4052e+14
9.34623e+14
9.28553e+14
9.22361e+14
9.16088e+14
9.09765e+14
9.03419e+14
8.97071e+14
8.90743e+14
8.84445e+14
8.78194e+14
8.72003e+14
8.65884e+14
8.59855e+14
8.5394e+14
8.48165e+14
8.42574e+14
8.37231e+14
8.32232e+14
8.27732e+14
8.23941e+14
8.21344e+14
8.20001e+14
8.23754e+14
8.21082e+14
8.81883e+14
9.89463e+14
1.12422e+15
9.95865e+14
7.86035e+14
8.25649e+14
8.17279e+14
9.0325e+14
9.70524e+14
1.03683e+15
1.07196e+15
1.11429e+15
1.1539e+15
1.18035e+15
1.19289e+15
1.20343e+15
1.18159e+15
1.19282e+15
1.14639e+15
1.21511e+15
1.13255e+15
1.50546e+15
1.50346e+15
1.3348e+15
1.35713e+15
1.36436e+15
1.35226e+15
1.33949e+15
1.32779e+15
1.31595e+15
1.30407e+15
1.29254e+15
1.28144e+15
1.27076e+15
1.26047e+15
1.25053e+15
1.24091e+15
1.23155e+15
1.22242e+15
1.21348e+15
1.2047e+15
1.19604e+15
1.18748e+15
1.17899e+15
1.17054e+15
1.1621e+15
1.15361e+15
1.14504e+15
1.13629e+15
1.12727e+15
1.11781e+15
1.10769e+15
1.09653e+15
1.08397e+15
1.06858e+15
1.05279e+15
1.01833e+15
1.0418e+15
1.03225e+15
1.00103e+15
7.92284e+14
7.79203e+14
8.43359e+14
8.42404e+14
8.96143e+14
9.0352e+14
9.19884e+14
9.70925e+14
1.0425e+15
1.11236e+15
1.15512e+15
1.18396e+15
1.2007e+15
1.19458e+15
1.20285e+15
1.18036e+15
1.2341e+15
1.18239e+15
1.45189e+15
1.44925e+15
1.28421e+15
1.30333e+15
1.3079e+15
1.29607e+15
1.28542e+15
1.27745e+15
1.26989e+15
1.26225e+15
1.25459e+15
1.2469e+15
1.23913e+15
1.23129e+15
1.2234e+15
1.21546e+15
1.20749e+15
1.19951e+15
1.19154e+15
1.18358e+15
1.17564e+15
1.16775e+15
1.15989e+15
1.15208e+15
1.14432e+15
1.13663e+15
1.12902e+15
1.12149e+15
1.11407e+15
1.10677e+15
1.09962e+15
1.09259e+15
1.08579e+15
1.07836e+15
1.0735e+15
1.05258e+15
1.09552e+15
1.10443e+15
1.06727e+15
8.0072e+14
7.50866e+14
8.19455e+14
8.05091e+14
8.35801e+14
8.23495e+14
8.52556e+14
9.62206e+14
1.07315e+15
1.17827e+15
1.23952e+15
1.27724e+15
1.30174e+15
1.30884e+15
1.31982e+15
1.30777e+15
1.35251e+15
1.30921e+15
1.54154e+15
1.54998e+15
1.38238e+15
1.41223e+15
1.42094e+15
1.41039e+15
1.39967e+15
1.38991e+15
1.37973e+15
1.36921e+15
1.35876e+15
1.34848e+15
1.3384e+15
1.32853e+15
1.31885e+15
1.30936e+15
1.30004e+15
1.29086e+15
1.28182e+15
1.27289e+15
1.26405e+15
1.25529e+15
1.2466e+15
1.23795e+15
1.22933e+15
1.2207e+15
1.21203e+15
1.20327e+15
1.19435e+15
1.18518e+15
1.17563e+15
1.16547e+15
1.15462e+15
1.14192e+15
1.13086e+15
1.10183e+15
1.14125e+15
1.14671e+15
1.09873e+15
7.98975e+14
7.36363e+14
7.98672e+14
7.69325e+14
7.82496e+14
7.20316e+14
7.86652e+14
9.72325e+14
1.11308e+15
1.21865e+15
1.29328e+15
1.34124e+15
1.37152e+15
1.38438e+15
1.39622e+15
1.38944e+15
1.42763e+15
1.38554e+15
1.57717e+15
1.5967e+15
1.41668e+15
1.44635e+15
1.45297e+15
1.4399e+15
1.42799e+15
1.41819e+15
1.40844e+15
1.39857e+15
1.3888e+15
1.37917e+15
1.36965e+15
1.36022e+15
1.3509e+15
1.34166e+15
1.33251e+15
1.32343e+15
1.31442e+15
1.30548e+15
1.2966e+15
1.28777e+15
1.27899e+15
1.27026e+15
1.26156e+15
1.25288e+15
1.24421e+15
1.23553e+15
1.2268e+15
1.21797e+15
1.20895e+15
1.19959e+15
1.1898e+15
1.17834e+15
1.16881e+15
1.13985e+15
1.18241e+15
1.18633e+15
1.13161e+15
8.04152e+14
7.213e+14
7.81665e+14
7.36391e+14
7.44875e+14
6.92831e+14
8.54769e+14
1.0387e+15
1.19177e+15
1.30454e+15
1.38144e+15
1.4296e+15
1.45841e+15
1.47076e+15
1.47994e+15
1.47323e+15
1.5031e+15
1.45608e+15
1.61164e+15
1.64292e+15
1.45035e+15
1.48328e+15
1.49164e+15
1.47835e+15
1.46642e+15
1.45651e+15
1.44643e+15
1.4361e+15
1.42585e+15
1.41574e+15
1.40575e+15
1.39588e+15
1.38613e+15
1.3765e+15
1.36698e+15
1.35755e+15
1.34822e+15
1.33896e+15
1.32978e+15
1.32067e+15
1.31161e+15
1.3026e+15
1.29363e+15
1.28468e+15
1.27572e+15
1.26674e+15
1.25769e+15
1.24851e+15
1.23911e+15
1.22933e+15
1.21913e+15
1.20727e+15
1.19776e+15
1.16815e+15
1.21404e+15
1.21824e+15
1.16156e+15
8.11036e+14
7.13907e+14
7.64303e+14
7.11553e+14
7.05017e+14
8.11851e+14
1.01046e+15
1.19558e+15
1.33793e+15
1.43637e+15
1.49941e+15
1.53593e+15
1.5551e+15
1.56056e+15
1.56297e+15
1.55181e+15
1.57118e+15
1.51496e+15
1.63699e+15
1.6792e+15
1.47294e+15
1.50802e+15
1.51762e+15
1.50374e+15
1.49171e+15
1.48202e+15
1.47205e+15
1.46177e+15
1.45153e+15
1.44138e+15
1.43132e+15
1.42137e+15
1.41151e+15
1.40176e+15
1.39211e+15
1.38255e+15
1.37307e+15
1.36368e+15
1.35435e+15
1.3451e+15
1.3359e+15
1.32675e+15
1.31765e+15
1.30857e+15
1.29951e+15
1.29043e+15
1.2813e+15
1.27208e+15
1.2627e+15
1.25298e+15
1.24294e+15
1.23126e+15
1.22232e+15
1.1924e+15
1.24194e+15
1.24586e+15
1.18976e+15
8.18249e+14
6.77338e+14
7.24961e+14
6.95039e+14
8.21868e+14
1.05587e+15
1.26687e+15
1.42362e+15
1.52858e+15
1.59276e+15
1.62806e+15
1.64362e+15
1.64717e+15
1.64153e+15
1.63457e+15
1.61624e+15
1.62394e+15
1.55685e+15
1.64965e+15
1.70222e+15
1.48336e+15
1.52007e+15
1.52965e+15
1.51366e+15
1.50052e+15
1.49046e+15
1.4804e+15
1.4702e+15
1.46014e+15
1.45021e+15
1.44036e+15
1.43058e+15
1.42088e+15
1.41124e+15
1.40166e+15
1.39214e+15
1.38268e+15
1.37328e+15
1.36394e+15
1.35465e+15
1.34542e+15
1.33623e+15
1.32709e+15
1.31798e+15
1.3089e+15
1.29983e+15
1.29076e+15
1.28163e+15
1.2724e+15
1.26295e+15
1.25333e+15
1.24219e+15
1.2343e+15
1.2048e+15
1.25874e+15
1.26245e+15
1.21367e+15
8.24516e+14
8.20018e+14
7.77398e+14
1.02302e+15
1.28924e+15
1.47694e+15
1.60135e+15
1.67646e+15
1.71619e+15
1.7321e+15
1.73315e+15
1.72526e+15
1.71297e+15
1.69692e+15
1.68166e+15
1.65629e+15
1.65268e+15
1.57756e+15
1.6502e+15
1.70942e+15
1.48513e+15
1.52914e+15
1.54456e+15
1.53122e+15
1.51956e+15
1.51005e+15
1.4999e+15
1.4893e+15
1.47872e+15
1.46823e+15
1.45785e+15
1.44758e+15
1.43744e+15
1.42742e+15
1.41752e+15
1.40772e+15
1.39802e+15
1.38842e+15
1.37889e+15
1.36945e+15
1.36008e+15
1.35078e+15
1.34153e+15
1.33234e+15
1.32319e+15
1.31407e+15
1.30498e+15
1.29588e+15
1.28676e+15
1.27755e+15
1.2684e+15
1.25806e+15
1.25189e+15
1.22364e+15
1.28495e+15
1.28936e+15
1.24553e+15
8.32337e+14
1.90292e+15
1.71205e+15
1.79805e+15
1.84393e+15
1.85942e+15
1.85776e+15
1.84355e+15
1.82118e+15
1.79434e+15
1.76599e+15
1.73799e+15
1.71199e+15
1.6874e+15
1.66721e+15
1.64209e+15
1.63873e+15
1.5745e+15
1.64429e+15
1.69113e+15
1.45936e+15
1.49493e+15
1.50347e+15
1.48785e+15
1.47688e+15
1.46914e+15
1.4612e+15
1.45286e+15
1.44435e+15
1.43567e+15
1.42682e+15
1.41781e+15
1.40869e+15
1.3995e+15
1.39026e+15
1.38099e+15
1.37172e+15
1.36247e+15
1.35324e+15
1.34406e+15
1.33493e+15
1.32586e+15
1.31688e+15
1.30798e+15
1.29919e+15
1.29052e+15
1.282e+15
1.27365e+15
1.26552e+15
1.25755e+15
1.24999e+15
1.24151e+15
1.23769e+15
1.21146e+15
1.27666e+15
1.28411e+15
1.26546e+15
8.51495e+14
3.77016e+14
3.60166e+14
3.54394e+14
3.50948e+14
3.47979e+14
3.46621e+14
3.47683e+14
3.54353e+14
3.58778e+14
4.63975e+14
5.74488e+14
5.48526e+14
5.19939e+14
5.01235e+14
4.83262e+14
4.68531e+14
4.56904e+14
4.518e+14
4.40439e+14
5.3218e+14
5.94849e+14
5.79834e+14
5.48255e+14
5.2736e+14
5.03714e+14
4.82683e+14
4.63775e+14
4.51579e+14
4.42076e+14
4.66718e+14
6.14149e+14
5.94765e+14
5.5955e+14
5.34884e+14
5.07922e+14
4.83734e+14
4.60471e+14
4.42421e+14
4.39326e+14
4.06992e+14
5.87062e+14
5.69824e+14
5.38852e+14
5.15851e+14
4.90064e+14
4.66531e+14
4.43487e+14
4.22283e+14
4.25906e+14
3.78424e+14
6.04329e+14
5.86059e+14
5.54487e+14
5.30403e+14
5.03375e+14
4.78516e+14
4.54379e+14
4.29002e+14
4.37697e+14
3.80004e+14
6.09291e+14
5.91078e+14
5.59688e+14
5.35374e+14
5.07962e+14
4.82547e+14
4.58242e+14
4.30104e+14
4.42333e+14
3.787e+14
6.1536e+14
5.97099e+14
5.65538e+14
5.4093e+14
5.13118e+14
4.87179e+14
4.62745e+14
4.32582e+14
4.47207e+14
3.79755e+14
6.20345e+14
6.02091e+14
5.70345e+14
5.45525e+14
5.17425e+14
4.91096e+14
4.6659e+14
4.35042e+14
4.51265e+14
3.81362e+14
6.25058e+14
6.06783e+14
5.74822e+14
5.49806e+14
5.21461e+14
4.94812e+14
4.70225e+14
4.37701e+14
4.55014e+14
3.83471e+14
6.29562e+14
6.11242e+14
5.79059e+14
5.53862e+14
5.25301e+14
4.98376e+14
4.73697e+14
4.40462e+14
4.58548e+14
3.85856e+14
6.33971e+14
6.15586e+14
5.83181e+14
5.57805e+14
5.29044e+14
5.01869e+14
4.77088e+14
4.43298e+14
4.61973e+14
3.88419e+14
6.38338e+14
6.19876e+14
5.87246e+14
5.61692e+14
5.3274e+14
5.0533e+14
4.80441e+14
4.46184e+14
4.65348e+14
3.91092e+14
6.42696e+14
6.2415e+14
5.91294e+14
5.65561e+14
5.36424e+14
5.08782e+14
4.83786e+14
4.49103e+14
4.6871e+14
3.93835e+14
6.47065e+14
6.28432e+14
5.95348e+14
5.69432e+14
5.40115e+14
5.12243e+14
4.87141e+14
4.52047e+14
4.72081e+14
3.96623e+14
6.51455e+14
6.32734e+14
5.99422e+14
5.73317e+14
5.43826e+14
5.15719e+14
4.90514e+14
4.55008e+14
4.75475e+14
3.9944e+14
6.5587e+14
6.3706e+14
6.03522e+14
5.77223e+14
5.4756e+14
5.19214e+14
4.93911e+14
4.57982e+14
4.78901e+14
4.02274e+14
6.60314e+14
6.41412e+14
6.07653e+14
5.81153e+14
5.51322e+14
5.22731e+14
4.97337e+14
4.60968e+14
4.82364e+14
4.05121e+14
6.64787e+14
6.45785e+14
6.11814e+14
5.85104e+14
5.5511e+14
5.26272e+14
5.0079e+14
4.63966e+14
4.85867e+14
4.07975e+14
6.69287e+14
6.50175e+14
6.16005e+14
5.89074e+14
5.58925e+14
5.29835e+14
5.0427e+14
4.66975e+14
4.89408e+14
4.10834e+14
6.73797e+14
6.54569e+14
6.20224e+14
5.9306e+14
5.62763e+14
5.33418e+14
5.07773e+14
4.69999e+14
4.92989e+14
4.13694e+14
6.78309e+14
6.58961e+14
6.24453e+14
5.97044e+14
5.6662e+14
5.3702e+14
5.11297e+14
4.73038e+14
4.96607e+14
4.16556e+14
6.8281e+14
6.63343e+14
6.28687e+14
6.0102e+14
5.70474e+14
5.40627e+14
5.14836e+14
4.76099e+14
5.00259e+14
4.19419e+14
6.87283e+14
6.677e+14
6.32912e+14
6.04978e+14
5.74323e+14
5.44231e+14
5.18366e+14
4.79186e+14
5.03938e+14
4.22282e+14
6.91702e+14
6.7201e+14
6.37112e+14
6.08901e+14
5.78152e+14
5.47824e+14
5.21889e+14
4.82281e+14
5.07636e+14
4.25147e+14
6.96039e+14
6.76249e+14
6.41266e+14
6.12768e+14
5.8194e+14
5.51392e+14
5.25393e+14
4.85374e+14
5.11352e+14
4.28017e+14
7.00256e+14
6.80379e+14
6.45343e+14
6.16548e+14
5.85663e+14
5.54917e+14
5.28859e+14
4.8845e+14
5.15097e+14
4.30881e+14
7.04306e+14
6.84351e+14
6.49303e+14
6.20204e+14
5.89287e+14
5.58372e+14
5.32261e+14
4.91496e+14
5.18883e+14
4.33718e+14
7.08124e+14
6.88102e+14
6.53095e+14
6.23687e+14
5.92764e+14
5.61725e+14
5.3557e+14
4.94498e+14
5.22708e+14
4.36523e+14
7.11628e+14
6.91544e+14
6.56646e+14
6.26929e+14
5.96035e+14
5.64927e+14
5.38744e+14
4.97435e+14
5.2657e+14
4.39292e+14
7.14715e+14
6.94566e+14
6.5986e+14
6.29846e+14
5.99021e+14
5.67914e+14
5.41732e+14
5.0028e+14
5.3047e+14
4.42021e+14
7.17253e+14
6.97022e+14
6.62609e+14
6.32324e+14
6.01614e+14
5.70603e+14
5.44462e+14
5.02997e+14
5.34406e+14
4.44711e+14
7.19025e+14
6.98659e+14
6.64659e+14
6.34158e+14
6.03625e+14
5.7283e+14
5.46796e+14
5.05497e+14
5.38332e+14
4.47319e+14
7.19639e+14
6.99052e+14
6.65622e+14
6.35019e+14
6.04762e+14
5.74354e+14
5.48544e+14
5.07663e+14
5.42195e+14
4.49803e+14
7.19171e+14
6.98275e+14
6.65566e+14
6.34985e+14
6.05092e+14
5.75259e+14
5.49844e+14
5.09753e+14
5.4642e+14
4.52552e+14
7.18918e+14
6.9726e+14
6.65226e+14
6.34632e+14
6.05023e+14
5.75852e+14
5.50993e+14
5.12148e+14
5.51524e+14
4.55997e+14
7.11785e+14
6.87976e+14
6.57247e+14
6.27645e+14
5.991e+14
5.71323e+14
5.47545e+14
5.10605e+14
5.5256e+14
4.55463e+14
6.77465e+14
6.53841e+14
6.27856e+14
6.0197e+14
5.76505e+14
5.52145e+14
5.3149e+14
4.99294e+14
5.44642e+14
4.47358e+14
7.42642e+14
7.16397e+14
6.86541e+14
6.54667e+14
6.24067e+14
5.97095e+14
5.76583e+14
5.49653e+14
6.09444e+14
5.0346e+14
7.49087e+14
7.10706e+14
6.79924e+14
6.53832e+14
6.32773e+14
6.18179e+14
6.12643e+14
6.01832e+14
6.8895e+14
5.88024e+14
5.59132e+14
5.12117e+14
4.75173e+14
4.45366e+14
4.22086e+14
4.04144e+14
3.90479e+14
3.65327e+14
3.70739e+14
2.43531e+14
4.52239e+14
4.03678e+14
3.7035e+14
3.49204e+14
3.39553e+14
3.36232e+14
3.32455e+14
3.25704e+14
3.53107e+14
2.58647e+14
3.13325e+14
2.66094e+14
2.38648e+14
2.26555e+14
2.1791e+14
2.20582e+14
2.43236e+14
2.67799e+14
3.16929e+14
2.48201e+14
1.86216e+14
1.518e+14
1.36498e+14
1.30878e+14
1.42837e+14
1.69537e+14
2.06408e+14
2.4194e+14
2.99215e+14
2.42577e+14
9.73035e+13
7.866e+13
6.99407e+13
7.6595e+13
1.06044e+14
1.44839e+14
1.88281e+14
2.27893e+14
2.86239e+14
2.36177e+14
6.6408e+13
5.65718e+13
3.93356e+13
6.6365e+13
1.01635e+14
1.4062e+14
1.82732e+14
2.22858e+14
2.73327e+14
2.32008e+14
6.61887e+13
6.02279e+13
6.17491e+13
7.82837e+13
1.08064e+14
1.43111e+14
1.81296e+14
2.20137e+14
2.58861e+14
2.28706e+14
7.3815e+13
7.39695e+13
7.90151e+13
9.28085e+13
1.17417e+14
1.47834e+14
1.8152e+14
2.17271e+14
2.44172e+14
2.25882e+14
8.14759e+13
8.538e+13
9.24636e+13
1.05361e+14
1.26167e+14
1.52296e+14
1.81474e+14
2.12876e+14
2.29584e+14
2.23075e+14
8.75282e+13
9.42723e+13
1.02787e+14
1.15082e+14
1.33053e+14
1.55391e+14
1.8018e+14
2.06686e+14
2.155e+14
2.20159e+14
9.11818e+13
9.99373e+13
1.09512e+14
1.2141e+14
1.3719e+14
1.56198e+14
1.76814e+14
1.98506e+14
2.01829e+14
2.16789e+14
9.27333e+13
1.03108e+14
1.13463e+14
1.24799e+14
1.38668e+14
1.54692e+14
1.71444e+14
1.88873e+14
1.88915e+14
2.13169e+14
9.17878e+13
1.02668e+14
1.13192e+14
1.2418e+14
1.3645e+14
1.49893e+14
1.63274e+14
1.77317e+14
1.76069e+14
2.08472e+14
8.97971e+13
1.01136e+14
1.11602e+14
1.21707e+14
1.32305e+14
1.43426e+14
1.53977e+14
1.6564e+14
1.64686e+14
2.04492e+14
8.52377e+13
9.5023e+13
1.03948e+14
1.13517e+14
1.22776e+14
1.32109e+14
1.4062e+14
1.51038e+14
1.51882e+14
1.96879e+14
8.21991e+13
9.30043e+13
1.01456e+14
1.09574e+14
1.17109e+14
1.24931e+14
1.32264e+14
1.42674e+14
1.46601e+14
1.98902e+14
6.36449e+13
6.95334e+13
7.6387e+13
8.35476e+13
9.06009e+13
9.77612e+13
1.04353e+14
1.14918e+14
1.20832e+14
1.67052e+14
6.28439e+14
5.76672e+14
6.11949e+14
6.24165e+14
6.38512e+14
6.51088e+14
6.61113e+14
6.68592e+14
6.74917e+14
6.60366e+14
5.93016e+14
8.3717e+14
7.55902e+14
7.56663e+14
7.47899e+14
7.45392e+14
7.46217e+14
7.50876e+14
7.61312e+14
7.807e+14
7.93937e+14
7.81628e+14
8.13501e+14
7.63003e+14
7.64532e+14
7.61222e+14
7.62024e+14
7.63579e+14
7.65677e+14
7.69486e+14
7.75188e+14
7.69238e+14
7.5124e+14
8.59498e+14
8.15739e+14
8.08732e+14
8.01914e+14
8.00342e+14
8.0136e+14
8.04717e+14
8.11199e+14
8.20076e+14
8.19982e+14
8.16089e+14
9.02113e+14
8.64309e+14
8.53282e+14
8.45591e+14
8.43148e+14
8.43318e+14
8.45658e+14
8.5106e+14
8.58717e+14
8.60313e+14
8.63681e+14
9.43711e+14
9.08261e+14
8.93269e+14
8.83586e+14
8.79573e+14
8.78912e+14
8.81016e+14
8.86365e+14
8.93599e+14
8.97128e+14
9.05784e+14
9.88047e+14
9.53224e+14
9.35186e+14
9.2383e+14
9.18437e+14
9.16889e+14
9.18489e+14
9.23398e+14
9.30445e+14
9.35622e+14
9.47027e+14
1.03387e+15
9.98762e+14
9.77978e+14
9.64905e+14
9.58137e+14
9.55696e+14
9.56799e+14
9.61418e+14
9.68416e+14
9.74997e+14
9.88096e+14
1.08096e+15
1.04533e+15
1.02205e+15
1.00725e+15
9.99149e+14
9.95875e+14
9.9648e+14
1.00072e+15
1.00761e+15
1.01518e+15
1.02926e+15
1.12896e+15
1.09304e+15
1.06746e+15
1.05064e+15
1.04079e+15
1.03634e+15
1.03634e+15
1.04043e+15
1.04745e+15
1.05593e+15
1.0708e+15
1.17914e+15
1.14383e+15
1.11696e+15
1.09874e+15
1.0874e+15
1.08183e+15
1.08119e+15
1.08505e+15
1.09223e+15
1.10149e+15
1.11701e+15
1.23478e+15
1.20094e+15
1.17387e+15
1.15513e+15
1.14288e+15
1.13641e+15
1.13511e+15
1.13867e+15
1.146e+15
1.15594e+15
1.17197e+15
1.2977e+15
1.2659e+15
1.23974e+15
1.22187e+15
1.21009e+15
1.20381e+15
1.20244e+15
1.20564e+15
1.21283e+15
1.22306e+15
1.23909e+15
1.37027e+15
1.33998e+15
1.31437e+15
1.29715e+15
1.28579e+15
1.27973e+15
1.27832e+15
1.28115e+15
1.28808e+15
1.29844e+15
1.31436e+15
1.4453e+15
1.41577e+15
1.39009e+15
1.37292e+15
1.3615e+15
1.35539e+15
1.35394e+15
1.35674e+15
1.36371e+15
1.37427e+15
1.39003e+15
1.5217e+15
1.49285e+15
1.46713e+15
1.45004e+15
1.43858e+15
1.43242e+15
1.43091e+15
1.43362e+15
1.44056e+15
1.45119e+15
1.46667e+15
1.59946e+15
1.5714e+15
1.54577e+15
1.52888e+15
1.51752e+15
1.51143e+15
1.50995e+15
1.51266e+15
1.51959e+15
1.53021e+15
1.54542e+15
1.67836e+15
1.65133e+15
1.62595e+15
1.60943e+15
1.59831e+15
1.5924e+15
1.59104e+15
1.59382e+15
1.60075e+15
1.61135e+15
1.62626e+15
1.75838e+15
1.73276e+15
1.70787e+15
1.69198e+15
1.6813e+15
1.67576e+15
1.67466e+15
1.6776e+15
1.68425e+15
1.69484e+15
1.70948e+15
1.83913e+15
1.81543e+15
1.79128e+15
1.77627e+15
1.76622e+15
1.76116e+15
1.76043e+15
1.76361e+15
1.77038e+15
1.78096e+15
1.79537e+15
1.92025e+15
1.89913e+15
1.87608e+15
1.8624e+15
1.85335e+15
1.84909e+15
1.84894e+15
1.8525e+15
1.85947e+15
1.87007e+15
1.88425e+15
2.00158e+15
1.98361e+15
1.96186e+15
1.9498e+15
1.94193e+15
1.93862e+15
1.9392e+15
1.94333e+15
1.95071e+15
1.9615e+15
1.9756e+15
2.08387e+15
2.06955e+15
2.04946e+15
2.03976e+15
2.03379e+15
2.03209e+15
2.03384e+15
2.0387e+15
2.04633e+15
2.05708e+15
2.07093e+15
2.1649e+15
2.15357e+15
2.13419e+15
2.12603e+15
2.12119e+15
2.12042e+15
2.12279e+15
2.12797e+15
2.13561e+15
2.14614e+15
2.15962e+15
2.23481e+15
2.22597e+15
2.20672e+15
2.19955e+15
2.1954e+15
2.19533e+15
2.1983e+15
2.20397e+15
2.212e+15
2.22261e+15
2.2359e+15
2.29626e+15
2.2908e+15
2.27181e+15
2.26561e+15
2.26209e+15
2.26264e+15
2.26614e+15
2.27227e+15
2.28067e+15
2.29145e+15
2.30466e+15
2.35159e+15
2.35147e+15
2.33315e+15
2.32827e+15
2.32545e+15
2.32657e+15
2.33054e+15
2.33708e+15
2.34585e+15
2.35685e+15
2.37003e+15
2.40268e+15
2.41075e+15
2.39395e+15
2.39138e+15
2.38993e+15
2.3921e+15
2.39681e+15
2.40386e+15
2.41294e+15
2.42404e+15
2.43712e+15
2.44952e+15
2.46904e+15
2.45466e+15
2.45547e+15
2.45608e+15
2.45979e+15
2.46551e+15
2.47319e+15
2.48257e+15
2.49367e+15
2.50655e+15
2.48759e+15
2.52194e+15
2.51081e+15
2.51607e+15
2.51948e+15
2.52527e+15
2.53248e+15
2.54117e+15
2.55113e+15
2.56226e+15
2.5749e+15
2.51294e+15
2.56548e+15
2.55831e+15
2.56935e+15
2.57629e+15
2.58439e+15
2.59291e+15
2.60232e+15
2.6127e+15
2.62397e+15
2.63638e+15
2.5212e+15
2.59205e+15
2.58711e+15
2.60614e+15
2.6211e+15
2.63715e+15
2.65257e+15
2.66725e+15
2.68096e+15
2.69338e+15
2.70549e+15
2.53169e+15
2.61685e+15
2.59268e+15
2.59383e+15
2.58924e+15
2.5873e+15
2.58755e+15
2.59066e+15
2.59676e+15
2.60546e+15
2.61528e+15
2.47889e+15
2.66109e+15
2.69981e+15
2.76384e+15
2.8119e+15
2.8537e+15
2.88885e+15
2.91861e+15
2.94387e+15
2.9647e+15
2.98006e+15
2.16821e+15
2.16182e+15
2.05234e+15
2.01505e+15
1.98531e+15
1.96663e+15
1.95439e+15
1.94717e+15
1.94399e+15
1.94361e+15
1.94333e+15
8.70637e+14
9.20312e+14
9.74564e+14
1.01615e+15
1.049e+15
1.07668e+15
1.09967e+15
1.11751e+15
1.1305e+15
1.13924e+15
1.14275e+15
1.13925e+15
1.12504e+15
1.10231e+15
1.07375e+15
1.03947e+15
1.00151e+15
9.62895e+14
9.17975e+14
8.80494e+14
8.18851e+14
7.65438e+14
7.23221e+14
6.803e+14
6.44719e+14
6.14339e+14
5.87788e+14
5.62622e+14
5.3763e+14
5.12237e+14
4.86205e+14
4.59583e+14
4.29679e+14
4.00664e+14
3.8121e+14
1.24901e+15
1.22961e+15
1.22441e+15
1.21976e+15
1.21521e+15
1.21059e+15
1.20518e+15
1.19791e+15
1.18876e+15
1.17697e+15
1.16056e+15
1.13742e+15
1.10544e+15
1.07061e+15
1.03548e+15
9.99065e+14
9.62545e+14
9.26987e+14
8.88966e+14
8.55519e+14
8.11744e+14
7.76643e+14
7.47467e+14
7.17246e+14
6.90155e+14
6.65765e+14
6.44442e+14
6.25231e+14
6.07658e+14
5.92037e+14
5.79122e+14
5.70044e+14
5.62878e+14
5.58962e+14
5.65763e+14
1.29036e+15
1.30916e+15
1.30701e+15
1.29851e+15
1.28673e+15
1.27103e+15
1.25203e+15
1.23008e+15
1.20615e+15
1.17835e+15
1.14429e+15
1.10483e+15
1.06415e+15
1.03011e+15
1.00052e+15
9.71399e+14
9.42276e+14
9.12871e+14
8.82152e+14
8.54323e+14
8.25372e+14
8.00116e+14
7.81133e+14
7.66438e+14
7.54301e+14
7.41785e+14
7.28882e+14
7.16093e+14
7.03127e+14
6.89469e+14
6.75062e+14
6.62294e+14
6.4641e+14
6.23261e+14
6.02182e+14
1.26944e+15
1.26601e+15
1.25537e+15
1.24441e+15
1.23258e+15
1.21905e+15
1.20399e+15
1.18718e+15
1.16968e+15
1.15154e+15
1.13171e+15
1.10951e+15
1.08429e+15
1.05935e+15
1.03495e+15
1.01008e+15
9.85102e+14
9.6012e+14
9.35099e+14
9.1061e+14
8.8252e+14
8.54399e+14
8.29914e+14
8.07815e+14
7.87775e+14
7.68968e+14
7.51423e+14
7.34542e+14
7.17652e+14
7.00736e+14
6.83562e+14
6.67077e+14
6.48428e+14
6.28999e+14
6.16679e+14
1.20735e+15
1.20337e+15
1.18887e+15
1.17575e+15
1.16199e+15
1.14674e+15
1.13019e+15
1.11243e+15
1.09441e+15
1.07549e+15
1.05461e+15
1.0315e+15
1.00666e+15
9.83448e+14
9.60878e+14
9.37921e+14
9.14757e+14
8.91433e+14
8.67972e+14
8.44661e+14
8.20442e+14
7.96372e+14
7.75522e+14
7.58178e+14
7.42847e+14
7.28332e+14
7.14109e+14
7.00176e+14
6.86201e+14
6.72227e+14
6.58145e+14
6.45751e+14
6.33303e+14
6.15854e+14
5.96747e+14
1.23074e+15
1.22253e+15
1.2074e+15
1.19405e+15
1.17952e+15
1.16342e+15
1.14599e+15
1.12761e+15
1.10929e+15
1.09038e+15
1.0699e+15
1.04735e+15
1.02307e+15
1.00006e+15
9.77323e+14
9.54287e+14
9.31091e+14
9.07819e+14
8.84599e+14
8.61479e+14
8.38223e+14
8.14593e+14
7.93831e+14
7.76782e+14
7.61709e+14
7.47521e+14
7.33465e+14
7.19612e+14
7.05666e+14
6.91666e+14
6.77343e+14
6.64691e+14
6.53954e+14
6.38809e+14
6.18412e+14
1.23255e+15
1.222e+15
1.20702e+15
1.19343e+15
1.17832e+15
1.16165e+15
1.14373e+15
1.12519e+15
1.10697e+15
1.08828e+15
1.06825e+15
1.04628e+15
1.02277e+15
1.00035e+15
9.77958e+14
9.55323e+14
9.3252e+14
9.09659e+14
8.86871e+14
8.64143e+14
8.41539e+14
8.18449e+14
7.97819e+14
7.80989e+14
7.662e+14
7.52367e+14
7.38529e+14
7.24826e+14
7.11026e+14
6.97183e+14
6.82795e+14
6.69803e+14
6.60481e+14
6.48474e+14
6.28356e+14
1.23892e+15
1.2273e+15
1.21301e+15
1.19909e+15
1.18348e+15
1.16633e+15
1.14796e+15
1.12925e+15
1.11102e+15
1.09239e+15
1.07256e+15
1.0508e+15
1.02759e+15
1.00533e+15
9.82957e+14
9.604e+14
9.37687e+14
9.14957e+14
8.9232e+14
8.69779e+14
8.47358e+14
8.247e+14
8.04146e+14
7.87402e+14
7.72733e+14
7.59075e+14
7.45324e+14
7.31665e+14
7.17899e+14
7.04117e+14
6.89631e+14
6.76131e+14
6.67216e+14
6.57424e+14
6.38682e+14
1.24468e+15
1.23281e+15
1.21913e+15
1.20477e+15
1.18877e+15
1.17124e+15
1.15254e+15
1.13372e+15
1.11548e+15
1.09687e+15
1.07716e+15
1.05553e+15
1.03251e+15
1.01033e+15
9.8794e+14
9.65414e+14
9.42734e+14
9.20063e+14
8.97493e+14
8.7503e+14
8.52668e+14
8.30153e+14
8.09717e+14
7.92985e+14
7.78338e+14
7.6475e+14
7.51016e+14
7.37353e+14
7.23572e+14
7.09809e+14
6.95259e+14
6.8137e+14
6.72505e+14
6.64083e+14
6.46892e+14
1.25115e+15
1.23944e+15
1.22622e+15
1.21139e+15
1.1951e+15
1.17726e+15
1.15829e+15
1.13936e+15
1.12107e+15
1.10243e+15
1.08276e+15
1.06116e+15
1.0382e+15
1.01602e+15
9.93545e+14
9.70978e+14
9.4826e+14
9.2557e+14
9.02988e+14
8.80517e+14
8.58151e+14
8.35614e+14
8.15237e+14
7.98517e+14
7.83845e+14
7.70257e+14
7.565e+14
7.42801e+14
7.28977e+14
7.15194e+14
7.00578e+14
6.86412e+14
6.77472e+14
6.698e+14
6.5383e+14
1.25811e+15
1.24671e+15
1.23376e+15
1.2185e+15
1.202e+15
1.18389e+15
1.16469e+15
1.14565e+15
1.1273e+15
1.10859e+15
1.08891e+15
1.06728e+15
1.04431e+15
1.02207e+15
9.99487e+14
9.76839e+14
9.54043e+14
9.31286e+14
9.08644e+14
8.86114e+14
8.63693e+14
8.41088e+14
8.20655e+14
8.03937e+14
7.89236e+14
7.7561e+14
7.61803e+14
7.48047e+14
7.34162e+14
7.20332e+14
7.05644e+14
6.9128e+14
6.82249e+14
6.74969e+14
6.59782e+14
1.26554e+15
1.25444e+15
1.24165e+15
1.22602e+15
1.20934e+15
1.19101e+15
1.1716e+15
1.15245e+15
1.13401e+15
1.11522e+15
1.09549e+15
1.07378e+15
1.05076e+15
1.02842e+15
1.00571e+15
9.82953e+14
9.6005e+14
9.37194e+14
9.14458e+14
8.91837e+14
8.69324e+14
8.46623e+14
8.26111e+14
8.09322e+14
7.94573e+14
7.80911e+14
7.67038e+14
7.53214e+14
7.39254e+14
7.25361e+14
7.10593e+14
6.96076e+14
6.86965e+14
6.79885e+14
6.65119e+14
1.27335e+15
1.2625e+15
1.24978e+15
1.23385e+15
1.21701e+15
1.19848e+15
1.17889e+15
1.15961e+15
1.14107e+15
1.12218e+15
1.10237e+15
1.08057e+15
1.05745e+15
1.035e+15
1.01214e+15
9.89262e+14
9.6623e+14
9.43257e+14
9.20405e+14
8.9767e+14
8.75043e+14
8.52224e+14
8.31615e+14
8.14746e+14
7.99917e+14
7.86183e+14
7.7225e+14
7.58355e+14
7.44315e+14
7.30346e+14
7.1549e+14
7.00845e+14
6.91666e+14
6.84689e+14
6.70098e+14
1.28147e+15
1.2708e+15
1.25809e+15
1.2419e+15
1.22493e+15
1.20622e+15
1.18645e+15
1.16705e+15
1.1484e+15
1.12939e+15
1.10948e+15
1.08756e+15
1.06433e+15
1.04176e+15
1.01874e+15
9.95727e+14
9.72556e+14
9.49451e+14
9.26466e+14
9.03602e+14
8.80849e+14
8.57898e+14
8.37174e+14
8.20217e+14
8.05304e+14
7.91489e+14
7.77468e+14
7.63495e+14
7.49381e+14
7.3533e+14
7.20379e+14
7.05618e+14
6.96379e+14
6.89455e+14
6.74902e+14
1.28983e+15
1.27927e+15
1.26655e+15
1.25014e+15
1.23303e+15
1.21415e+15
1.19422e+15
1.17469e+15
1.15592e+15
1.13679e+15
1.11677e+15
1.09472e+15
1.07136e+15
1.04865e+15
1.02548e+15
1.00232e+15
9.79002e+14
9.55752e+14
9.32628e+14
9.09625e+14
8.86733e+14
8.63642e+14
8.42796e+14
8.25741e+14
8.10737e+14
7.96838e+14
7.82727e+14
7.68665e+14
7.54465e+14
7.40333e+14
7.25286e+14
7.10411e+14
7.01119e+14
6.94222e+14
6.79641e+14
1.29838e+15
1.28789e+15
1.27512e+15
1.25852e+15
1.24128e+15
1.22224e+15
1.20215e+15
1.18249e+15
1.1636e+15
1.14434e+15
1.1242e+15
1.10201e+15
1.07851e+15
1.05565e+15
1.03233e+15
1.00902e+15
9.85545e+14
9.62147e+14
9.38875e+14
9.15729e+14
8.92691e+14
8.69452e+14
8.48478e+14
8.31319e+14
8.1622e+14
8.02233e+14
7.8803e+14
7.73879e+14
7.59586e+14
7.45368e+14
7.30222e+14
7.15233e+14
7.05889e+14
6.99009e+14
6.84378e+14
1.30709e+15
1.29662e+15
1.28378e+15
1.26702e+15
1.24965e+15
1.23046e+15
1.21021e+15
1.19041e+15
1.17139e+15
1.15201e+15
1.13174e+15
1.1094e+15
1.08575e+15
1.06275e+15
1.03927e+15
1.0158e+15
9.92171e+14
9.6862e+14
9.45195e+14
9.21899e+14
8.98714e+14
8.75322e+14
8.54213e+14
8.36948e+14
8.21752e+14
8.07675e+14
7.93377e+14
7.79132e+14
7.64749e+14
7.5044e+14
7.35194e+14
7.20087e+14
7.10692e+14
7.03823e+14
6.89145e+14
1.3159e+15
1.30544e+15
1.29252e+15
1.27561e+15
1.25811e+15
1.23877e+15
1.21836e+15
1.19843e+15
1.17928e+15
1.15976e+15
1.13936e+15
1.11688e+15
1.09308e+15
1.06992e+15
1.04628e+15
1.02265e+15
9.98865e+14
9.75158e+14
9.51579e+14
9.28128e+14
9.04791e+14
8.81245e+14
8.59997e+14
8.42622e+14
8.27327e+14
8.13158e+14
7.98764e+14
7.84425e+14
7.69951e+14
7.55548e+14
7.40199e+14
7.24977e+14
7.15527e+14
7.08664e+14
6.93951e+14
1.3248e+15
1.31435e+15
1.30133e+15
1.28428e+15
1.26664e+15
1.24716e+15
1.22659e+15
1.20652e+15
1.18724e+15
1.16759e+15
1.14705e+15
1.12442e+15
1.10046e+15
1.07715e+15
1.05335e+15
1.02956e+15
1.00561e+15
9.81747e+14
9.5801e+14
9.34406e+14
9.10913e+14
8.87209e+14
8.65821e+14
8.48334e+14
8.3294e+14
8.18677e+14
8.04187e+14
7.89751e+14
7.75181e+14
7.60688e+14
7.45235e+14
7.29899e+14
7.20394e+14
7.13526e+14
6.98792e+14
1.33375e+15
1.32334e+15
1.31018e+15
1.29301e+15
1.27524e+15
1.2556e+15
1.23487e+15
1.21466e+15
1.19524e+15
1.17546e+15
1.15479e+15
1.13201e+15
1.10789e+15
1.08442e+15
1.06045e+15
1.0365e+15
1.0124e+15
9.8837e+14
9.64476e+14
9.40714e+14
9.17066e+14
8.93204e+14
8.71674e+14
8.54075e+14
8.3858e+14
8.24222e+14
8.09637e+14
7.95102e+14
7.80435e+14
7.65848e+14
7.50291e+14
7.34846e+14
7.25281e+14
7.18396e+14
7.03645e+14
1.34273e+15
1.33239e+15
1.31908e+15
1.30178e+15
1.28386e+15
1.26408e+15
1.24319e+15
1.22282e+15
1.20328e+15
1.18337e+15
1.16255e+15
1.13962e+15
1.11534e+15
1.09172e+15
1.06759e+15
1.04347e+15
1.0192e+15
9.95013e+14
9.7096e+14
9.47041e+14
9.23235e+14
8.99215e+14
8.77543e+14
8.59833e+14
8.44236e+14
8.29783e+14
8.151e+14
8.00466e+14
7.85705e+14
7.71022e+14
7.55361e+14
7.39807e+14
7.3018e+14
7.23267e+14
7.08514e+14
1.35171e+15
1.3415e+15
1.328e+15
1.31059e+15
1.29251e+15
1.27257e+15
1.25151e+15
1.231e+15
1.21132e+15
1.19128e+15
1.17032e+15
1.14725e+15
1.12281e+15
1.09903e+15
1.07473e+15
1.05044e+15
1.02601e+15
1.00166e+15
9.77444e+14
9.5337e+14
9.29404e+14
9.05227e+14
8.83414e+14
8.65591e+14
8.49893e+14
8.35344e+14
8.20564e+14
8.0583e+14
7.90975e+14
7.76196e+14
7.6043e+14
7.44771e+14
7.35082e+14
7.28136e+14
7.13398e+14
1.36066e+15
1.35065e+15
1.33694e+15
1.31939e+15
1.30116e+15
1.28106e+15
1.25982e+15
1.23916e+15
1.21934e+15
1.19917e+15
1.17808e+15
1.15486e+15
1.13026e+15
1.10632e+15
1.08185e+15
1.0574e+15
1.0328e+15
1.00828e+15
9.83908e+14
9.59677e+14
9.35552e+14
9.11218e+14
8.89265e+14
8.7133e+14
8.5553e+14
8.40887e+14
8.2601e+14
8.11176e+14
7.96228e+14
7.81353e+14
7.65482e+14
7.49722e+14
7.3997e+14
7.32986e+14
7.18282e+14
1.36954e+15
1.35984e+15
1.34586e+15
1.32819e+15
1.30979e+15
1.2895e+15
1.26808e+15
1.24726e+15
1.22731e+15
1.20702e+15
1.1858e+15
1.16243e+15
1.13768e+15
1.11358e+15
1.08894e+15
1.06431e+15
1.03955e+15
1.01486e+15
9.90327e+14
9.65938e+14
9.41654e+14
9.17164e+14
8.95073e+14
8.77028e+14
8.61127e+14
8.46388e+14
8.31413e+14
8.16481e+14
8.01439e+14
7.86469e+14
7.70496e+14
7.54639e+14
7.44826e+14
7.37799e+14
7.23144e+14
1.3783e+15
1.36907e+15
1.35476e+15
1.33694e+15
1.31837e+15
1.29788e+15
1.27626e+15
1.25529e+15
1.23521e+15
1.21479e+15
1.19344e+15
1.16995e+15
1.14504e+15
1.12078e+15
1.09596e+15
1.07115e+15
1.04621e+15
1.02137e+15
9.9667e+14
9.72121e+14
9.47681e+14
9.23034e+14
9.00808e+14
8.82657e+14
8.66654e+14
8.51818e+14
8.36747e+14
8.21716e+14
8.06583e+14
7.9152e+14
7.75444e+14
7.59496e+14
7.49627e+14
7.42551e+14
7.27955e+14
1.38691e+15
1.37831e+15
1.36361e+15
1.34563e+15
1.32686e+15
1.30616e+15
1.28433e+15
1.2632e+15
1.24299e+15
1.22245e+15
1.20098e+15
1.17736e+15
1.1523e+15
1.12787e+15
1.10287e+15
1.07788e+15
1.05277e+15
1.02776e+15
1.00289e+15
9.78189e+14
9.53592e+14
9.28789e+14
9.0643e+14
8.88177e+14
8.72074e+14
8.57141e+14
8.41974e+14
8.26845e+14
8.11623e+14
7.96469e+14
7.8029e+14
7.6426e+14
7.54337e+14
7.47211e+14
7.32687e+14
1.39531e+15
1.38758e+15
1.37237e+15
1.35422e+15
1.33525e+15
1.3143e+15
1.29224e+15
1.27094e+15
1.2506e+15
1.22996e+15
1.20838e+15
1.18462e+15