/*--------------------------------*- C++ -*----------------------------------*\
| =========                 |                                                 |
| \\      /  F ield         | OpenFOAM: The Open Source CFD Toolbox           |
|  \\    /   O peration     | Version:  2406                                  |
|   \\  /    A nd           | Website:  www.openfoam.com                      |
|    \\/     M anipulation  |                                                 |
\*---------------------------------------------------------------------------*/
FoamFile
{
    version     2.0;
    format      ascii;
    arch        "LSB;label=32;scalar=64";
    class       volScalarField;
    location    "0/neutroRegion";
    object      prec0;
}
// * * * * * * * * * * * * * * * * * * * * * * * * * * * * * * * * * * * * * //

dimensions      [0 -3 0 0 0 0 0];

internalField   nonuniform List<scalar> 
8595
(
1.63644e+17
1.39835e+17
1.1171e+17
1.05272e+17
9.95267e+16
9.70625e+16
9.63924e+16
9.58931e+16
9.54459e+16
9.50804e+16
9.46505e+16
9.45038e+16
9.19307e+16
1.01357e+17
9.00736e+16
1.0442e+17
8.54235e+16
1.10505e+17
4.24175e+16
3.78204e+16
3.90393e+16
3.98276e+16
3.99401e+16
4.00159e+16
4.01281e+16
4.02179e+16
4.02811e+16
4.03279e+16
4.03628e+16
4.03875e+16
4.04038e+16
4.04137e+16
4.04186e+16
4.04198e+16
4.04183e+16
4.04149e+16
4.04104e+16
4.04054e+16
4.04004e+16
4.03963e+16
4.03934e+16
4.03929e+16
4.03958e+16
4.04037e+16
4.04188e+16
4.04446e+16
4.04865e+16
4.05526e+16
4.06545e+16
4.08183e+16
4.10497e+16
4.15478e+16
4.17336e+16
4.52148e+16
5.12661e+16
1.50899e+17
1.42436e+17
1.21566e+17
1.14717e+17
1.07342e+17
1.14158e+17
1.18727e+17
1.23191e+17
1.23648e+17
1.23815e+17
1.23738e+17
1.23485e+17
1.22699e+17
1.23502e+17
1.21666e+17
1.24098e+17
1.19595e+17
1.25889e+17
1.13663e+17
1.39481e+17
5.43498e+16
4.81076e+16
4.90429e+16
4.95491e+16
4.94161e+16
4.92854e+16
4.91974e+16
4.91037e+16
4.90058e+16
4.89163e+16
4.88387e+16
4.87723e+16
4.87161e+16
4.8669e+16
4.86298e+16
4.8597e+16
4.85693e+16
4.85457e+16
4.85252e+16
4.85068e+16
4.84895e+16
4.84727e+16
4.84551e+16
4.84359e+16
4.84136e+16
4.83865e+16
4.83521e+16
4.83069e+16
4.8246e+16
4.81618e+16
4.8042e+16
4.78766e+16
4.76108e+16
4.73695e+16
4.63463e+16
4.81147e+16
4.88327e+16
1.25714e+17
1.08583e+17
1.2184e+17
1.18662e+17
1.13286e+17
1.17159e+17
1.15336e+17
1.14256e+17
1.14529e+17
1.14677e+17
1.14514e+17
1.14134e+17
1.13379e+17
1.13658e+17
1.12482e+17
1.13281e+17
1.10903e+17
1.14745e+17
1.06851e+17
1.23252e+17
4.81446e+16
4.25197e+16
4.32659e+16
4.36312e+16
4.35036e+16
4.34447e+16
4.34901e+16
4.35534e+16
4.3613e+16
4.36685e+16
4.37178e+16
4.37594e+16
4.37929e+16
4.38193e+16
4.38394e+16
4.38541e+16
4.38645e+16
4.38714e+16
4.38757e+16
4.38782e+16
4.38797e+16
4.38809e+16
4.38826e+16
4.38857e+16
4.38915e+16
4.39015e+16
4.39179e+16
4.39435e+16
4.39825e+16
4.4041e+16
4.41258e+16
4.42531e+16
4.44048e+16
4.47393e+16
4.45096e+16
4.72089e+16
4.90107e+16
1.27279e+17
1.057e+17
1.19448e+17
1.17882e+17
1.12749e+17
1.16328e+17
1.14732e+17
1.16413e+17
1.17207e+17
1.17404e+17
1.173e+17
1.17172e+17
1.16611e+17
1.16354e+17
1.15571e+17
1.15844e+17
1.14079e+17
1.16527e+17
1.09907e+17
1.23055e+17
4.85754e+16
4.31844e+16
4.42356e+16
4.47272e+16
4.46665e+16
4.46288e+16
4.4632e+16
4.46245e+16
4.46047e+16
4.45829e+16
4.45621e+16
4.45425e+16
4.45243e+16
4.45078e+16
4.44929e+16
4.44794e+16
4.44672e+16
4.44561e+16
4.44459e+16
4.44362e+16
4.4427e+16
4.44184e+16
4.44099e+16
4.44012e+16
4.43924e+16
4.43829e+16
4.43725e+16
4.43608e+16
4.43474e+16
4.43323e+16
4.43148e+16
4.43025e+16
4.427e+16
4.43836e+16
4.39104e+16
4.64302e+16
4.81774e+16
1.25396e+17
1.02178e+17
1.19728e+17
1.1777e+17
1.12381e+17
1.16471e+17
1.12026e+17
1.14626e+17
1.16443e+17
1.17075e+17
1.16971e+17
1.16568e+17
1.15931e+17
1.15467e+17
1.14718e+17
1.14653e+17
1.13203e+17
1.14898e+17
1.09079e+17
1.19465e+17
4.76691e+16
4.22015e+16
4.3219e+16
4.36395e+16
4.35145e+16
4.34459e+16
4.34533e+16
4.34665e+16
4.34749e+16
4.34832e+16
4.34913e+16
4.34978e+16
4.35023e+16
4.35051e+16
4.35063e+16
4.35061e+16
4.35046e+16
4.35022e+16
4.3499e+16
4.34953e+16
4.34914e+16
4.34874e+16
4.34835e+16
4.34803e+16
4.3478e+16
4.34771e+16
4.34785e+16
4.34832e+16
4.34925e+16
4.35085e+16
4.35327e+16
4.35745e+16
4.36061e+16
4.37917e+16
4.33679e+16
4.59399e+16
4.76141e+16
1.24309e+17
1.00017e+17
1.20379e+17
1.18104e+17
1.11496e+17
1.16689e+17
1.13507e+17
1.15322e+17
1.16812e+17
1.17227e+17
1.1691e+17
1.16254e+17
1.15444e+17
1.14778e+17
1.13994e+17
1.13709e+17
1.12423e+17
1.136e+17
1.08279e+17
1.16744e+17
4.7128e+16
4.15815e+16
4.26867e+16
4.31608e+16
4.30465e+16
4.29879e+16
4.29992e+16
4.30086e+16
4.30096e+16
4.30095e+16
4.3009e+16
4.30074e+16
4.30047e+16
4.3001e+16
4.29965e+16
4.29913e+16
4.29857e+16
4.29797e+16
4.29736e+16
4.29674e+16
4.29613e+16
4.29553e+16
4.29496e+16
4.29445e+16
4.294e+16
4.29366e+16
4.29348e+16
4.29352e+16
4.29389e+16
4.29478e+16
4.29634e+16
4.29962e+16
4.30193e+16
4.3207e+16
4.27849e+16
4.54012e+16
4.70425e+16
1.23388e+17
9.83749e+16
1.22365e+17
1.18907e+17
1.11691e+17
1.14779e+17
1.15327e+17
1.17354e+17
1.18043e+17
1.17647e+17
1.16689e+17
1.15591e+17
1.14521e+17
1.13661e+17
1.12821e+17
1.12394e+17
1.11218e+17
1.1206e+17
1.07125e+17
1.14226e+17
4.66494e+16
4.09851e+16
4.21549e+16
4.26701e+16
4.25517e+16
4.24975e+16
4.25184e+16
4.25341e+16
4.25395e+16
4.25428e+16
4.25448e+16
4.2545e+16
4.25436e+16
4.2541e+16
4.25374e+16
4.25331e+16
4.25283e+16
4.25231e+16
4.25176e+16
4.25121e+16
4.25066e+16
4.25014e+16
4.24965e+16
4.2492e+16
4.24885e+16
4.24862e+16
4.24855e+16
4.24872e+16
4.24927e+16
4.25037e+16
4.25214e+16
4.25566e+16
4.25805e+16
4.27737e+16
4.23407e+16
4.49943e+16
4.65561e+16
1.22667e+17
9.69801e+16
1.19282e+17
1.17092e+17
1.13563e+17
1.16974e+17
1.19285e+17
1.19858e+17
1.18879e+17
1.17258e+17
1.15551e+17
1.14042e+17
1.12787e+17
1.1184e+17
1.11015e+17
1.10551e+17
1.09501e+17
1.10165e+17
1.05598e+17
1.11833e+17
4.62026e+16
4.04189e+16
4.16459e+16
4.21656e+16
4.19913e+16
4.19078e+16
4.19163e+16
4.19263e+16
4.19314e+16
4.19376e+16
4.19441e+16
4.19494e+16
4.1953e+16
4.19549e+16
4.19552e+16
4.19542e+16
4.19521e+16
4.1949e+16
4.19453e+16
4.1941e+16
4.19365e+16
4.1932e+16
4.19276e+16
4.19236e+16
4.19203e+16
4.19182e+16
4.19178e+16
4.19199e+16
4.19257e+16
4.19369e+16
4.19549e+16
4.19905e+16
4.20129e+16
4.22095e+16
4.17617e+16
4.44537e+16
4.59006e+16
1.21849e+17
9.56251e+16
1.49716e+17
1.34141e+17
1.29555e+17
1.27638e+17
1.24254e+17
1.20705e+17
1.17477e+17
1.14812e+17
1.12742e+17
1.11207e+17
1.1009e+17
1.09326e+17
1.08711e+17
1.08375e+17
1.07493e+17
1.0806e+17
1.03945e+17
1.09896e+17
4.58168e+16
4.0036e+16
4.14759e+16
4.21572e+16
4.20614e+16
4.20178e+16
4.20373e+16
4.20398e+16
4.20289e+16
4.20164e+16
4.20042e+16
4.19923e+16
4.19809e+16
4.19702e+16
4.19604e+16
4.19513e+16
4.19429e+16
4.1935e+16
4.19276e+16
4.19207e+16
4.19143e+16
4.19083e+16
4.19028e+16
4.18978e+16
4.18934e+16
4.18899e+16
4.18876e+16
4.18871e+16
4.18891e+16
4.18957e+16
4.19079e+16
4.19381e+16
4.19555e+16
4.2162e+16
4.17013e+16
4.45145e+16
4.58485e+16
1.2209e+17
9.45349e+16
1.7752e+17
1.35084e+17
1.27984e+17
1.22745e+17
1.18139e+17
1.14477e+17
1.11661e+17
1.09563e+17
1.08026e+17
1.06907e+17
1.06081e+17
1.05494e+17
1.05031e+17
1.04853e+17
1.04384e+17
1.054e+17
1.026e+17
1.09122e+17
4.53292e+16
3.93805e+16
4.05956e+16
4.10796e+16
4.0907e+16
4.08626e+16
4.09098e+16
4.09529e+16
4.09861e+16
4.10151e+16
4.10391e+16
4.10576e+16
4.10709e+16
4.10799e+16
4.10854e+16
4.10878e+16
4.10879e+16
4.10863e+16
4.10835e+16
4.10797e+16
4.10754e+16
4.1071e+16
4.10669e+16
4.10634e+16
4.10612e+16
4.10607e+16
4.10628e+16
4.10686e+16
4.10796e+16
4.10978e+16
4.1124e+16
4.11693e+16
4.11972e+16
4.14091e+16
4.0921e+16
4.36982e+16
4.49247e+16
1.21492e+17
9.47724e+16
7.99512e+16
7.89318e+16
8.0056e+16
8.15368e+16
8.30685e+16
8.49739e+16
8.75483e+16
9.17418e+16
9.5745e+16
1.27986e+17
1.03472e+17
1.02885e+17
1.01553e+17
1.01845e+17
1.02152e+17
1.03017e+17
1.04499e+17
1.07474e+17
1.08951e+17
1.37333e+17
3.80481e+16
3.87641e+16
3.83688e+16
3.86717e+16
3.87646e+16
3.90322e+16
3.94582e+16
4.04634e+16
4.16623e+16
4.64908e+16
3.80106e+16
3.84405e+16
3.78433e+16
3.79195e+16
3.78238e+16
3.79078e+16
3.80453e+16
3.86489e+16
4.06171e+16
4.01251e+16
3.55982e+16
3.60503e+16
3.5657e+16
3.57864e+16
3.57361e+16
3.58457e+16
3.59862e+16
3.6312e+16
3.89205e+16
3.69972e+16
3.6127e+16
3.65319e+16
3.61379e+16
3.62404e+16
3.61644e+16
3.62498e+16
3.63889e+16
3.64474e+16
3.96272e+16
3.68749e+16
3.6018e+16
3.6421e+16
3.60477e+16
3.61488e+16
3.60704e+16
3.61468e+16
3.63131e+16
3.6176e+16
3.97166e+16
3.64807e+16
3.60398e+16
3.6443e+16
3.60726e+16
3.617e+16
3.60872e+16
3.61531e+16
3.63434e+16
3.60689e+16
3.98493e+16
3.63217e+16
3.60354e+16
3.64427e+16
3.60733e+16
3.61697e+16
3.60852e+16
3.61438e+16
3.63536e+16
3.5989e+16
3.99205e+16
3.62183e+16
3.60372e+16
3.64482e+16
3.60781e+16
3.61739e+16
3.60887e+16
3.61418e+16
3.63657e+16
3.59425e+16
3.99704e+16
3.61637e+16
3.60391e+16
3.6453e+16
3.60821e+16
3.61774e+16
3.60924e+16
3.61414e+16
3.63753e+16
3.5914e+16
4.00042e+16
3.61348e+16
3.6042e+16
3.64581e+16
3.60863e+16
3.61814e+16
3.60968e+16
3.61425e+16
3.63839e+16
3.58966e+16
4.00292e+16
3.61217e+16
3.60452e+16
3.64631e+16
3.60907e+16
3.61853e+16
3.61015e+16
3.61443e+16
3.63919e+16
3.58854e+16
4.00495e+16
3.61175e+16
3.60487e+16
3.64681e+16
3.60951e+16
3.61893e+16
3.61066e+16
3.61466e+16
3.63997e+16
3.58773e+16
4.00674e+16
3.61182e+16
3.60523e+16
3.64732e+16
3.60997e+16
3.61933e+16
3.61119e+16
3.61491e+16
3.64075e+16
3.58704e+16
4.00845e+16
3.61213e+16
3.60558e+16
3.64784e+16
3.61045e+16
3.61971e+16
3.61174e+16
3.61515e+16
3.64155e+16
3.58639e+16
4.01017e+16
3.61253e+16
3.60593e+16
3.64834e+16
3.61094e+16
3.62008e+16
3.61231e+16
3.61539e+16
3.64236e+16
3.58568e+16
4.01196e+16
3.61293e+16
3.60627e+16
3.64883e+16
3.61145e+16
3.62045e+16
3.61289e+16
3.61562e+16
3.64321e+16
3.58491e+16
4.01386e+16
3.61326e+16
3.60663e+16
3.64928e+16
3.61199e+16
3.62078e+16
3.61349e+16
3.61584e+16
3.64408e+16
3.58405e+16
4.01586e+16
3.61349e+16
3.60701e+16
3.6497e+16
3.61257e+16
3.62109e+16
3.6141e+16
3.61606e+16
3.64496e+16
3.58312e+16
4.01798e+16
3.61359e+16
3.60737e+16
3.65006e+16
3.6132e+16
3.62138e+16
3.61473e+16
3.61627e+16
3.64586e+16
3.58214e+16
4.0202e+16
3.61356e+16
3.60771e+16
3.65037e+16
3.61386e+16
3.62163e+16
3.61537e+16
3.61649e+16
3.64674e+16
3.58113e+16
4.02252e+16
3.61338e+16
3.608e+16
3.65065e+16
3.61455e+16
3.62184e+16
3.61601e+16
3.61672e+16
3.64761e+16
3.58016e+16
4.0249e+16
3.61305e+16
3.60823e+16
3.65088e+16
3.61528e+16
3.62201e+16
3.61667e+16
3.61698e+16
3.64843e+16
3.57931e+16
4.0273e+16
3.61257e+16
3.60838e+16
3.65105e+16
3.61603e+16
3.62214e+16
3.61732e+16
3.61726e+16
3.64924e+16
3.5786e+16
4.02965e+16
3.61196e+16
3.60841e+16
3.65114e+16
3.61681e+16
3.62222e+16
3.61796e+16
3.61758e+16
3.65005e+16
3.57799e+16
4.03208e+16
3.61122e+16
3.60831e+16
3.65115e+16
3.61764e+16
3.62224e+16
3.6186e+16
3.61794e+16
3.65082e+16
3.57739e+16
4.03475e+16
3.61032e+16
3.60803e+16
3.65101e+16
3.61849e+16
3.6222e+16
3.61922e+16
3.61836e+16
3.65156e+16
3.57684e+16
4.03782e+16
3.60917e+16
3.60754e+16
3.65068e+16
3.61937e+16
3.62208e+16
3.6198e+16
3.61887e+16
3.65224e+16
3.57637e+16
4.04137e+16
3.60779e+16
3.60681e+16
3.6501e+16
3.62027e+16
3.62189e+16
3.62033e+16
3.61947e+16
3.65289e+16
3.57606e+16
4.04552e+16
3.6062e+16
3.6058e+16
3.64921e+16
3.62118e+16
3.62165e+16
3.62084e+16
3.62021e+16
3.65351e+16
3.57599e+16
4.05049e+16
3.60449e+16
3.60455e+16
3.64795e+16
3.62212e+16
3.62141e+16
3.62133e+16
3.62114e+16
3.65416e+16
3.57629e+16
4.05653e+16
3.60274e+16
3.60291e+16
3.64599e+16
3.62281e+16
3.62098e+16
3.6216e+16
3.62209e+16
3.65463e+16
3.57687e+16
4.06368e+16
3.60081e+16
3.60023e+16
3.64252e+16
3.62255e+16
3.61988e+16
3.62124e+16
3.62273e+16
3.65468e+16
3.57768e+16
4.07209e+16
3.59857e+16
3.59874e+16
3.63988e+16
3.62374e+16
3.62055e+16
3.62254e+16
3.62532e+16
3.6567e+16
3.58163e+16
4.08571e+16
3.59944e+16
3.60762e+16
3.64589e+16
3.63348e+16
3.62938e+16
3.63097e+16
3.63453e+16
3.66497e+16
3.5931e+16
4.10959e+16
3.60722e+16
3.59567e+16
3.62327e+16
3.61637e+16
3.61492e+16
3.61819e+16
3.6241e+16
3.65351e+16
3.58521e+16
4.10917e+16
3.58605e+16
3.46517e+16
3.48928e+16
3.50112e+16
3.51226e+16
3.52343e+16
3.53795e+16
3.57277e+16
3.52018e+16
4.05089e+16
3.50933e+16
3.87341e+16
3.90436e+16
3.9142e+16
3.90664e+16
3.89715e+16
3.89936e+16
3.93362e+16
3.91163e+16
4.54737e+16
3.93884e+16
1.01808e+17
1.01403e+17
1.0178e+17
1.02513e+17
1.03648e+17
1.05457e+17
1.08458e+17
1.10212e+17
1.30913e+17
1.15831e+17
8.8173e+16
8.67252e+16
8.59028e+16
8.51959e+16
8.45258e+16
8.37846e+16
8.27096e+16
7.89613e+16
8.25734e+16
5.65896e+16
8.75067e+16
8.65867e+16
8.64048e+16
8.64739e+16
8.69819e+16
8.81134e+16
8.96163e+16
8.78786e+16
9.17888e+16
6.49311e+16
8.43536e+16
8.30041e+16
8.24046e+16
8.18728e+16
8.11941e+16
8.10324e+16
8.28054e+16
8.33149e+16
8.98435e+16
6.56304e+16
8.28686e+16
8.182e+16
8.1899e+16
8.23162e+16
8.24053e+16
8.21542e+16
8.2948e+16
8.29723e+16
9.00251e+16
6.67489e+16
8.11618e+16
7.98105e+16
7.94624e+16
7.95885e+16
8.06606e+16
8.14164e+16
8.24598e+16
8.25591e+16
8.95529e+16
6.70513e+16
8.0731e+16
7.94792e+16
8.01235e+16
7.9798e+16
8.07618e+16
8.15289e+16
8.24759e+16
8.31591e+16
8.82615e+16
6.79114e+16
8.0351e+16
7.94604e+16
7.97596e+16
8.01046e+16
8.09353e+16
8.16721e+16
8.25502e+16
8.39003e+16
8.61415e+16
6.91029e+16
8.06794e+16
8.04273e+16
8.05459e+16
8.07091e+16
8.13145e+16
8.19761e+16
8.28014e+16
8.44383e+16
8.37636e+16
7.05979e+16
8.08479e+16
8.07154e+16
8.09073e+16
8.11442e+16
8.16476e+16
8.22603e+16
8.30032e+16
8.45112e+16
8.13315e+16
7.23321e+16
8.11382e+16
8.12377e+16
8.14501e+16
8.16203e+16
8.20179e+16
8.25334e+16
8.30745e+16
8.41481e+16
7.90721e+16
7.43487e+16
8.1184e+16
8.14216e+16
8.16678e+16
8.18628e+16
8.21884e+16
8.25698e+16
8.28013e+16
8.33198e+16
7.70342e+16
7.66323e+16
8.11812e+16
8.17347e+16
8.20545e+16
8.21232e+16
8.22947e+16
8.24556e+16
8.22842e+16
8.22827e+16
7.54561e+16
7.94008e+16
8.0608e+16
8.1088e+16
8.13944e+16
8.15991e+16
8.17046e+16
8.16847e+16
8.11578e+16
8.08675e+16
7.42042e+16
8.25574e+16
8.04223e+16
8.10452e+16
8.13552e+16
8.13796e+16
8.1284e+16
8.10567e+16
8.02543e+16
8.00093e+16
7.41466e+16
8.72705e+16
7.96761e+16
7.93334e+16
7.90844e+16
7.9322e+16
7.9277e+16
7.91184e+16
7.84001e+16
7.87965e+16
7.45698e+16
9.24903e+16
8.15196e+16
8.12198e+16
8.07455e+16
8.09845e+16
8.11265e+16
8.1479e+16
8.15633e+16
8.36448e+16
8.22046e+16
1.08187e+17
9.01639e+16
8.74115e+16
8.66654e+16
8.61869e+16
8.60626e+16
8.68024e+16
8.75677e+16
9.20665e+16
9.31129e+16
1.25243e+17
7.43288e+16
6.86947e+16
7.28673e+16
7.40097e+16
7.52622e+16
7.62119e+16
7.6808e+16
7.70953e+16
7.72667e+16
7.50927e+16
6.70265e+16
9.58337e+16
8.77384e+16
8.82428e+16
8.71924e+16
8.66454e+16
8.63369e+16
8.63664e+16
8.70085e+16
8.86691e+16
8.9636e+16
8.77725e+16
8.96499e+16
8.55823e+16
8.6448e+16
8.62797e+16
8.63006e+16
8.62132e+16
8.6038e+16
8.59351e+16
8.59913e+16
8.4704e+16
8.20916e+16
9.1054e+16
8.80957e+16
8.81827e+16
8.77607e+16
8.75997e+16
8.7506e+16
8.7504e+16
8.77013e+16
8.80638e+16
8.73679e+16
8.62017e+16
9.165e+16
8.97017e+16
8.96024e+16
8.9279e+16
8.9151e+16
8.90471e+16
8.89787e+16
8.90565e+16
8.92437e+16
8.86705e+16
8.81425e+16
9.2145e+16
9.07358e+16
9.04452e+16
9.00849e+16
8.99084e+16
8.97929e+16
8.97413e+16
8.98225e+16
8.99379e+16
8.95229e+16
8.9431e+16
9.28576e+16
9.178e+16
9.14028e+16
9.10387e+16
9.08318e+16
9.06955e+16
9.06302e+16
9.06836e+16
9.076e+16
9.04754e+16
9.05684e+16
9.35829e+16
9.2725e+16
9.23113e+16
9.19596e+16
9.17392e+16
9.15905e+16
9.15162e+16
9.15511e+16
9.16071e+16
9.14277e+16
9.161e+16
9.42694e+16
9.35596e+16
9.31338e+16
9.28144e+16
9.26109e+16
9.24752e+16
9.24025e+16
9.24146e+16
9.24469e+16
9.23295e+16
9.25369e+16
9.48994e+16
9.4273e+16
9.38082e+16
9.34839e+16
9.3273e+16
9.31414e+16
9.30792e+16
9.30967e+16
9.31283e+16
9.30619e+16
9.3277e+16
9.55844e+16
9.5032e+16
9.45349e+16
9.41953e+16
9.39619e+16
9.38178e+16
9.37528e+16
9.37703e+16
9.38069e+16
9.37859e+16
9.40138e+16
9.63739e+16
9.59099e+16
9.54054e+16
9.50622e+16
9.4809e+16
9.46483e+16
9.45737e+16
9.45856e+16
9.46278e+16
9.4644e+16
9.48767e+16
9.72601e+16
9.69112e+16
9.64479e+16
9.61452e+16
9.59072e+16
9.57458e+16
9.56578e+16
9.56445e+16
9.56712e+16
9.57003e+16
9.59166e+16
9.81412e+16
9.79022e+16
9.74942e+16
9.72513e+16
9.70543e+16
9.69175e+16
9.68329e+16
9.67984e+16
9.68003e+16
9.68233e+16
9.7002e+16
9.88301e+16
9.86531e+16
9.82677e+16
9.80535e+16
9.78771e+16
9.77568e+16
9.76842e+16
9.76565e+16
9.76618e+16
9.76899e+16
9.78382e+16
9.95096e+16
9.93783e+16
9.90067e+16
9.88104e+16
9.86448e+16
9.85314e+16
9.84618e+16
9.8433e+16
9.84388e+16
9.84712e+16
9.86014e+16
1.00175e+17
1.00085e+17
9.97264e+16
9.95467e+16
9.93915e+16
9.92853e+16
9.92194e+16
9.91908e+16
9.91961e+16
9.92297e+16
9.93454e+16
1.00802e+17
1.00755e+17
1.00409e+17
1.00246e+17
1.00102e+17
1.00003e+17
9.99411e+16
9.9913e+16
9.99171e+16
9.99498e+16
1.00051e+17
1.0139e+17
1.01389e+17
1.01056e+17
1.00913e+17
1.00781e+17
1.00691e+17
1.00634e+17
1.00607e+17
1.00607e+17
1.00638e+17
1.00726e+17
1.01937e+17
1.01985e+17
1.01662e+17
1.01539e+17
1.01422e+17
1.01342e+17
1.01291e+17
1.01267e+17
1.01267e+17
1.01295e+17
1.01373e+17
1.02452e+17
1.02547e+17
1.02223e+17
1.02121e+17
1.0202e+17
1.01957e+17
1.01917e+17
1.01899e+17
1.019e+17
1.01926e+17
1.01993e+17
1.02972e+17
1.03114e+17
1.02761e+17
1.02654e+17
1.02546e+17
1.02481e+17
1.02444e+17
1.02432e+17
1.02443e+17
1.02473e+17
1.02537e+17
1.03581e+17
1.03807e+17
1.03439e+17
1.03339e+17
1.03223e+17
1.03149e+17
1.03102e+17
1.03081e+17
1.03082e+17
1.03106e+17
1.03161e+17
1.04115e+17
1.04448e+17
1.04091e+17
1.04027e+17
1.03926e+17
1.03861e+17
1.03812e+17
1.03782e+17
1.03767e+17
1.03775e+17
1.03816e+17
1.04418e+17
1.04826e+17
1.04463e+17
1.04428e+17
1.04344e+17
1.04296e+17
1.04261e+17
1.04241e+17
1.04234e+17
1.04243e+17
1.04277e+17
1.04673e+17
1.05152e+17
1.04765e+17
1.04745e+17
1.04671e+17
1.04635e+17
1.0461e+17
1.046e+17
1.046e+17
1.04613e+17
1.04647e+17
1.04924e+17
1.05508e+17
1.05076e+17
1.05058e+17
1.04977e+17
1.04941e+17
1.04919e+17
1.04913e+17
1.04919e+17
1.04937e+17
1.04972e+17
1.05201e+17
1.05956e+17
1.05472e+17
1.05462e+17
1.05372e+17
1.0533e+17
1.05302e+17
1.05292e+17
1.05296e+17
1.05313e+17
1.05346e+17
1.05454e+17
1.0646e+17
1.05926e+17
1.05945e+17
1.05859e+17
1.05819e+17
1.0579e+17
1.05777e+17
1.05776e+17
1.05786e+17
1.05812e+17
1.05606e+17
1.06931e+17
1.06334e+17
1.06392e+17
1.06317e+17
1.06287e+17
1.06265e+17
1.06258e+17
1.0626e+17
1.06266e+17
1.06286e+17
1.05683e+17
1.07392e+17
1.067e+17
1.06805e+17
1.06739e+17
1.06706e+17
1.06669e+17
1.06646e+17
1.06639e+17
1.06644e+17
1.06658e+17
1.05808e+17
1.07869e+17
1.06951e+17
1.07143e+17
1.07227e+17
1.07387e+17
1.07538e+17
1.07664e+17
1.07752e+17
1.07786e+17
1.07789e+17
1.07267e+17
1.09628e+17
1.07607e+17
1.06815e+17
1.05891e+17
1.05156e+17
1.0457e+17
1.04147e+17
1.03883e+17
1.03753e+17
1.03688e+17
1.07834e+17
1.14454e+17
1.15073e+17
1.16926e+17
1.1818e+17
1.19225e+17
1.2003e+17
1.2064e+17
1.21087e+17
1.21369e+17
1.21445e+17
1.01157e+17
1.00023e+17
9.42548e+16
9.19389e+16
9.00341e+16
8.86789e+16
8.76472e+16
8.68645e+16
8.62792e+16
8.5831e+16
8.53965e+16
9.6055e+16
9.98488e+16
1.03806e+17
1.06249e+17
1.07714e+17
1.08673e+17
1.09248e+17
1.0946e+17
1.094e+17
1.0913e+17
1.08644e+17
1.0798e+17
1.07068e+17
1.06123e+17
1.05309e+17
1.04492e+17
1.03712e+17
1.03129e+17
1.0199e+17
1.01898e+17
1.00851e+17
9.91275e+16
9.86383e+16
9.78355e+16
9.73256e+16
9.69155e+16
9.65287e+16
9.60422e+16
9.52817e+16
9.41079e+16
9.24333e+16
9.02357e+16
8.69281e+16
8.28386e+16
7.99994e+16
1.19147e+17
1.16108e+17
1.14479e+17
1.13033e+17
1.11753e+17
1.10658e+17
1.09713e+17
1.08844e+17
1.08064e+17
1.07348e+17
1.0661e+17
1.058e+17
1.04776e+17
1.03803e+17
1.03005e+17
1.02168e+17
1.01323e+17
1.00535e+17
9.94043e+16
9.89149e+16
9.7916e+16
9.71061e+16
9.69169e+16
9.64372e+16
9.59725e+16
9.5528e+16
9.52174e+16
9.50787e+16
9.50703e+16
9.5229e+16
9.56618e+16
9.65552e+16
9.75818e+16
9.85596e+16
1.0096e+17
4.49318e+16
4.53412e+16
4.51359e+16
4.48406e+16
4.45582e+16
4.42569e+16
4.39451e+16
4.36191e+16
4.3292e+16
4.29104e+16
4.23994e+16
4.17997e+16
4.12334e+16
4.08762e+16
4.0648e+16
4.03963e+16
4.01117e+16
3.97909e+16
3.93897e+16
3.91021e+16
3.88484e+16
3.86621e+16
3.86799e+16
3.88083e+16
3.89838e+16
3.90894e+16
3.9137e+16
3.91887e+16
3.92411e+16
3.9272e+16
3.9288e+16
3.9445e+16
3.94614e+16
3.88342e+16
3.80862e+16
4.33188e+16
4.3128e+16
4.2837e+16
4.26593e+16
4.25538e+16
4.24728e+16
4.2407e+16
4.23324e+16
4.22671e+16
4.22312e+16
4.22089e+16
4.22025e+16
4.21734e+16
4.2129e+16
4.20758e+16
4.19773e+16
4.18568e+16
4.17268e+16
4.15883e+16
4.1474e+16
4.12589e+16
4.09589e+16
4.07165e+16
4.0448e+16
4.01693e+16
3.98833e+16
3.96163e+16
3.93673e+16
3.91081e+16
3.88394e+16
3.8556e+16
3.8338e+16
3.80793e+16
3.77327e+16
3.76642e+16
4.07168e+16
4.06377e+16
4.03425e+16
4.01897e+16
4.00869e+16
3.99895e+16
3.98936e+16
3.97858e+16
3.96794e+16
3.95701e+16
3.94412e+16
3.93121e+16
3.91932e+16
3.91103e+16
3.90252e+16
3.89023e+16
3.87571e+16
3.8597e+16
3.84235e+16
3.82493e+16
3.8061e+16
3.7847e+16
3.76869e+16
3.75603e+16
3.74343e+16
3.72909e+16
3.71313e+16
3.69765e+16
3.68133e+16
3.66425e+16
3.64553e+16
3.63577e+16
3.63038e+16
3.60042e+16
3.55937e+16
4.1162e+16
4.10398e+16
4.08101e+16
4.07127e+16
4.06318e+16
4.05441e+16
4.04491e+16
4.03403e+16
4.02315e+16
4.01205e+16
3.99993e+16
3.98827e+16
3.97775e+16
3.96931e+16
3.95919e+16
3.94577e+16
3.93042e+16
3.91399e+16
3.89705e+16
3.87984e+16
3.86244e+16
3.84274e+16
3.82735e+16
3.81554e+16
3.80346e+16
3.7899e+16
3.77446e+16
3.75929e+16
3.74321e+16
3.72625e+16
3.70648e+16
3.69362e+16
3.68983e+16
3.66491e+16
3.62064e+16
4.09315e+16
4.08024e+16
4.06267e+16
4.05524e+16
4.04746e+16
4.03868e+16
4.02893e+16
4.01812e+16
4.00731e+16
3.99611e+16
3.98448e+16
3.97373e+16
3.96478e+16
3.95718e+16
3.947e+16
3.93385e+16
3.91883e+16
3.90284e+16
3.88644e+16
3.86958e+16
3.85265e+16
3.83357e+16
3.81809e+16
3.8063e+16
3.7946e+16
3.7817e+16
3.76668e+16
3.75174e+16
3.73599e+16
3.71961e+16
3.69962e+16
3.68491e+16
3.68441e+16
3.66825e+16
3.62161e+16
4.08772e+16
4.07606e+16
4.06364e+16
4.05697e+16
4.04912e+16
4.0402e+16
4.03017e+16
4.01933e+16
4.00842e+16
3.99703e+16
3.98572e+16
3.97543e+16
3.96722e+16
3.95973e+16
3.94906e+16
3.93574e+16
3.92065e+16
3.90476e+16
3.88852e+16
3.87198e+16
3.85523e+16
3.83668e+16
3.82149e+16
3.80983e+16
3.79844e+16
3.78603e+16
3.77131e+16
3.75657e+16
3.74103e+16
3.72511e+16
3.70503e+16
3.68849e+16
3.68868e+16
3.6792e+16
3.63318e+16
4.08089e+16
4.07143e+16
4.06271e+16
4.05573e+16
4.04778e+16
4.03871e+16
4.02848e+16
4.01767e+16
4.00674e+16
3.99527e+16
3.98429e+16
3.9744e+16
3.96682e+16
3.95947e+16
3.94855e+16
3.93523e+16
3.92016e+16
3.9044e+16
3.88832e+16
3.87196e+16
3.85532e+16
3.83695e+16
3.82197e+16
3.81035e+16
3.79905e+16
3.78689e+16
3.77232e+16
3.75767e+16
3.74222e+16
3.72661e+16
3.70657e+16
3.68882e+16
3.68892e+16
3.68417e+16
3.63973e+16
4.07637e+16
4.06933e+16
4.06312e+16
4.05549e+16
4.04753e+16
4.03833e+16
4.02796e+16
4.01719e+16
4.00622e+16
3.99469e+16
3.98395e+16
3.97433e+16
3.96714e+16
3.95986e+16
3.94873e+16
3.93538e+16
3.92031e+16
3.90462e+16
3.88863e+16
3.87237e+16
3.85584e+16
3.83752e+16
3.82267e+16
3.81116e+16
3.79991e+16
3.78787e+16
3.77339e+16
3.75881e+16
3.74341e+16
3.72798e+16
3.708e+16
3.68953e+16
3.6893e+16
3.68751e+16
3.64453e+16
4.07308e+16
4.06822e+16
4.06364e+16
4.05532e+16
4.04741e+16
4.03811e+16
4.02764e+16
4.0169e+16
4.0059e+16
3.99432e+16
3.98378e+16
3.97434e+16
3.96744e+16
3.96019e+16
3.9489e+16
3.93553e+16
3.92047e+16
3.90482e+16
3.88889e+16
3.8727e+16
3.85624e+16
3.83795e+16
3.82313e+16
3.81169e+16
3.80052e+16
3.78854e+16
3.77411e+16
3.75955e+16
3.74418e+16
3.72887e+16
3.70893e+16
3.69005e+16
3.68954e+16
3.68953e+16
3.64753e+16
4.07085e+16
4.06777e+16
4.06426e+16
4.05534e+16
4.04751e+16
4.03812e+16
4.02758e+16
4.01687e+16
4.00584e+16
3.99424e+16
3.98384e+16
3.97452e+16
3.96781e+16
3.96058e+16
3.94917e+16
3.93579e+16
3.92073e+16
3.90511e+16
3.88921e+16
3.87306e+16
3.85664e+16
3.83837e+16
3.8236e+16
3.81215e+16
3.80101e+16
3.7891e+16
3.7747e+16
3.76017e+16
3.7448e+16
3.72956e+16
3.70966e+16
3.69054e+16
3.68985e+16
3.69091e+16
3.64942e+16
4.0694e+16
4.06771e+16
4.06488e+16
4.05548e+16
4.04775e+16
4.03829e+16
4.0277e+16
4.017e+16
4.00596e+16
3.99432e+16
3.98403e+16
3.97479e+16
3.96822e+16
3.96099e+16
3.9495e+16
3.93611e+16
3.92103e+16
3.90544e+16
3.88957e+16
3.87344e+16
3.85704e+16
3.83879e+16
3.82405e+16
3.81262e+16
3.80147e+16
3.78957e+16
3.7752e+16
3.7607e+16
3.74534e+16
3.73014e+16
3.71024e+16
3.69099e+16
3.69022e+16
3.69195e+16
3.6506e+16
4.06852e+16
4.06787e+16
4.06549e+16
4.05574e+16
4.04808e+16
4.03857e+16
4.02794e+16
4.01725e+16
4.0062e+16
3.99454e+16
3.98431e+16
3.97513e+16
3.96866e+16
3.96144e+16
3.94988e+16
3.93648e+16
3.92139e+16
3.90582e+16
3.88995e+16
3.87384e+16
3.85746e+16
3.83921e+16
3.8245e+16
3.81309e+16
3.80194e+16
3.79004e+16
3.77566e+16
3.76117e+16
3.74584e+16
3.73066e+16
3.71076e+16
3.69143e+16
3.69063e+16
3.69282e+16
3.65142e+16
4.06805e+16
4.06817e+16
4.06609e+16
4.05608e+16
4.04846e+16
4.03893e+16
4.02826e+16
4.01759e+16
4.00652e+16
3.99484e+16
3.98467e+16
3.97553e+16
3.96912e+16
3.9619e+16
3.9503e+16
3.93689e+16
3.9218e+16
3.90622e+16
3.89037e+16
3.87426e+16
3.85789e+16
3.83965e+16
3.82495e+16
3.81356e+16
3.80242e+16
3.79051e+16
3.77612e+16
3.76164e+16
3.74632e+16
3.73116e+16
3.71126e+16
3.69186e+16
3.69108e+16
3.69362e+16
3.65207e+16
4.06787e+16
4.06856e+16
4.06667e+16
4.05647e+16
4.0489e+16
4.03933e+16
4.02865e+16
4.01798e+16
4.0069e+16
3.99521e+16
3.98507e+16
3.97595e+16
3.96959e+16
3.96238e+16
3.95074e+16
3.93732e+16
3.92222e+16
3.90665e+16
3.8908e+16
3.87471e+16
3.85834e+16
3.8401e+16
3.82542e+16
3.81404e+16
3.8029e+16
3.79099e+16
3.7766e+16
3.76212e+16
3.74679e+16
3.73166e+16
3.71176e+16
3.69229e+16
3.69155e+16
3.69438e+16
3.65268e+16
4.06787e+16
4.06903e+16
4.06722e+16
4.05692e+16
4.04936e+16
4.03978e+16
4.02908e+16
4.01841e+16
4.00731e+16
3.99562e+16
3.9855e+16
3.97641e+16
3.97007e+16
3.96285e+16
3.95119e+16
3.93777e+16
3.92266e+16
3.9071e+16
3.89125e+16
3.87517e+16
3.8588e+16
3.84056e+16
3.82589e+16
3.81452e+16
3.80338e+16
3.79148e+16
3.77708e+16
3.76261e+16
3.74728e+16
3.73215e+16
3.71225e+16
3.69271e+16
3.69201e+16
3.69511e+16
3.65332e+16
4.06797e+16
4.06953e+16
4.06775e+16
4.05739e+16
4.04983e+16
4.04026e+16
4.02953e+16
4.01887e+16
4.00775e+16
3.99606e+16
3.98595e+16
3.97687e+16
3.97056e+16
3.96334e+16
3.95166e+16
3.93823e+16
3.92312e+16
3.90756e+16
3.89171e+16
3.87563e+16
3.85927e+16
3.84102e+16
3.82635e+16
3.815e+16
3.80386e+16
3.79196e+16
3.77756e+16
3.76309e+16
3.74777e+16
3.73265e+16
3.71274e+16
3.69315e+16
3.69248e+16
3.69582e+16
3.654e+16
4.06813e+16
4.07008e+16
4.06827e+16
4.05789e+16
4.05031e+16
4.04074e+16
4.02999e+16
4.01933e+16
4.00821e+16
3.99651e+16
3.98641e+16
3.97734e+16
3.97105e+16
3.96383e+16
3.95213e+16
3.9387e+16
3.92359e+16
3.90802e+16
3.89218e+16
3.8761e+16
3.85974e+16
3.84149e+16
3.82682e+16
3.81547e+16
3.80434e+16
3.79244e+16
3.77804e+16
3.76356e+16
3.74825e+16
3.73314e+16
3.71323e+16
3.69359e+16
3.69295e+16
3.69648e+16
3.65477e+16
4.06827e+16
4.07068e+16
4.06876e+16
4.05839e+16
4.0508e+16
4.04122e+16
4.03045e+16
4.01979e+16
4.00866e+16
3.99696e+16
3.98687e+16
3.97782e+16
3.97153e+16
3.96432e+16
3.9526e+16
3.93916e+16
3.92404e+16
3.90847e+16
3.89263e+16
3.87655e+16
3.8602e+16
3.84194e+16
3.82728e+16
3.81594e+16
3.80481e+16
3.79291e+16
3.77852e+16
3.76403e+16
3.74871e+16
3.73362e+16
3.7137e+16
3.69403e+16
3.69339e+16
3.69704e+16
3.65558e+16
4.06834e+16
4.07133e+16
4.06923e+16
4.05888e+16
4.05127e+16
4.04169e+16
4.0309e+16
4.02024e+16
4.0091e+16
3.9974e+16
3.98731e+16
3.97828e+16
3.97201e+16
3.96479e+16
3.95306e+16
3.9396e+16
3.92448e+16
3.9089e+16
3.89306e+16
3.87699e+16
3.86063e+16
3.84238e+16
3.82772e+16
3.81639e+16
3.80526e+16
3.79336e+16
3.77897e+16
3.76446e+16
3.74916e+16
3.73407e+16
3.71415e+16
3.69446e+16
3.6938e+16
3.69752e+16
3.65642e+16
4.06829e+16
4.07203e+16
4.06968e+16
4.05937e+16
4.05173e+16
4.04215e+16
4.03134e+16
4.02066e+16
4.00951e+16
3.99781e+16
3.98774e+16
3.97874e+16
3.97248e+16
3.96526e+16
3.9535e+16
3.94002e+16
3.92489e+16
3.90931e+16
3.89347e+16
3.8774e+16
3.86103e+16
3.84279e+16
3.82814e+16
3.81681e+16
3.80569e+16
3.79377e+16
3.77938e+16
3.76486e+16
3.74957e+16
3.73448e+16
3.71455e+16
3.69485e+16
3.69418e+16
3.69795e+16
3.65729e+16
4.06806e+16
4.07279e+16
4.0701e+16
4.05983e+16
4.05217e+16
4.04258e+16
4.03174e+16
4.02105e+16
4.00988e+16
3.9982e+16
3.98814e+16
3.97917e+16
3.97293e+16
3.9657e+16
3.95391e+16
3.9404e+16
3.92526e+16
3.90968e+16
3.89382e+16
3.87777e+16
3.86139e+16
3.84315e+16
3.82851e+16
3.81719e+16
3.80606e+16
3.79414e+16
3.77974e+16
3.7652e+16
3.74992e+16
3.73483e+16
3.71488e+16
3.6952e+16
3.69451e+16
3.6983e+16
3.65818e+16
4.06757e+16
4.07362e+16
4.07047e+16
4.06026e+16
4.05258e+16
4.04296e+16
4.0321e+16
4.02138e+16
4.0102e+16
3.99853e+16
3.9885e+16
3.97957e+16
3.97336e+16
3.96611e+16
3.95429e+16
3.94074e+16
3.92558e+16
3.90999e+16
3.89413e+16
3.87808e+16
3.86169e+16
3.84346e+16
3.82882e+16
3.81751e+16
3.80638e+16
3.79444e+16
3.78003e+16
3.76546e+16
3.75019e+16
3.73509e+16
3.71514e+16
3.69549e+16
3.69478e+16
3.69855e+16
3.65903e+16
4.06677e+16
4.07456e+16
4.07079e+16
4.06064e+16
4.05295e+16
4.04329e+16
4.03239e+16
4.02165e+16
4.01044e+16
3.9988e+16
3.98881e+16
3.97995e+16
3.97377e+16
3.96649e+16
3.95461e+16
3.94101e+16
3.92583e+16
3.91022e+16
3.89437e+16
3.87831e+16
3.86192e+16
3.84368e+16
3.82906e+16
3.81776e+16
3.80661e+16
3.79465e+16
3.78022e+16
3.76562e+16
3.75036e+16
3.73526e+16
3.71528e+16
3.69568e+16
3.69497e+16
3.6987e+16
3.65982e+16
4.06556e+16
4.07564e+16
4.07106e+16
4.06096e+16
4.05327e+16
4.04356e+16
4.03261e+16
4.02182e+16
4.0106e+16
3.99899e+16
3.98905e+16
3.98028e+16
3.97414e+16
3.96683e+16
3.95487e+16
3.94119e+16
3.92598e+16
3.91036e+16
3.89449e+16
3.87844e+16
3.86204e+16
3.8438e+16
3.82919e+16
3.81792e+16
3.80674e+16
3.79473e+16
3.78028e+16
3.76565e+16
3.75039e+16
3.73528e+16
3.71527e+16
3.69574e+16
3.69504e+16
3.6987e+16
3.66052e+16
4.06388e+16
4.07689e+16
4.07125e+16
4.06121e+16
4.05353e+16
4.04375e+16
4.03272e+16
4.0219e+16
4.01064e+16
3.99907e+16
3.98921e+16