/*--------------------------------*- C++ -*----------------------------------*\
| =========                 |                                                 |
| \\      /  F ield         | OpenFOAM: The Open Source CFD Toolbox           |
|  \\    /   O peration     | Version:  2406                                  |
|   \\  /    A nd           | Website:  www.openfoam.com                      |
|    \\/     M anipulation  |                                                 |
\*---------------------------------------------------------------------------*/
FoamFile
{
    version     2.0;
    format      ascii;
    arch        "LSB;label=32;scalar=64";
    class       volScalarField;
    location    "0/neutroRegion";
    object      precStar6;
}
// * * * * * * * * * * * * * * * * * * * * * * * * * * * * * * * * * * * * * //

dimensions      [0 -3 0 0 0 0 0];

internalField   nonuniform List<scalar> 
8595
(
1.0048e+14
1.07406e+14
9.59582e+13
9.72757e+13
9.7755e+13
1.00691e+14
1.05472e+14
1.0951e+14
1.12337e+14
1.1343e+14
1.12568e+14
1.10026e+14
1.03982e+14
1.04002e+14
9.2766e+13
1.07943e+14
9.80572e+13
1.65753e+14
1.69353e+14
1.51251e+14
1.54771e+14
1.55819e+14
1.53794e+14
1.51546e+14
1.4946e+14
1.47309e+14
1.45083e+14
1.42821e+14
1.40544e+14
1.3826e+14
1.35978e+14
1.33708e+14
1.31456e+14
1.29228e+14
1.27026e+14
1.24855e+14
1.22718e+14
1.20615e+14
1.18548e+14
1.16519e+14
1.14528e+14
1.12578e+14
1.1067e+14
1.08806e+14
1.06991e+14
1.05231e+14
1.03535e+14
1.0192e+14
1.00407e+14
9.90476e+13
9.7839e+13
9.7218e+13
9.58187e+13
1.0162e+14
1.12287e+14
1.21306e+14
9.84934e+13
7.50384e+13
9.15336e+13
9.87366e+13
1.15738e+14
1.30618e+14
1.45663e+14
1.56798e+14
1.69756e+14
1.81836e+14
1.89795e+14
1.9362e+14
1.94022e+14
1.88223e+14
1.86414e+14
1.77683e+14
1.89244e+14
1.83356e+14
2.69844e+14
2.77732e+14
2.4715e+14
2.50085e+14
2.49511e+14
2.45039e+14
2.40335e+14
2.35857e+14
2.31403e+14
2.27002e+14
2.22724e+14
2.18588e+14
2.14587e+14
2.10715e+14
2.06963e+14
2.03321e+14
1.99778e+14
1.96326e+14
1.92956e+14
1.89661e+14
1.86434e+14
1.83268e+14
1.80158e+14
1.77097e+14
1.74077e+14
1.7109e+14
1.68126e+14
1.65171e+14
1.62204e+14
1.59198e+14
1.56113e+14
1.52887e+14
1.49451e+14
1.45584e+14
1.41575e+14
1.34937e+14
1.35534e+14
1.30507e+14
1.17567e+14
8.32241e+13
7.36409e+13
9.29567e+13
1.00712e+14
1.13414e+14
1.20351e+14
1.29007e+14
1.45067e+14
1.67055e+14
1.89025e+14
2.02887e+14
2.12136e+14
2.15711e+14
2.13923e+14
2.13545e+14
2.0867e+14
2.19644e+14
2.17073e+14
2.87843e+14
2.95048e+14
2.62215e+14
2.64891e+14
2.63831e+14
2.59081e+14
2.54405e+14
2.50228e+14
2.46153e+14
2.42115e+14
2.38142e+14
2.34236e+14
2.30392e+14
2.26607e+14
2.22882e+14
2.19216e+14
2.15608e+14
2.12059e+14
2.08568e+14
2.05132e+14
2.01755e+14
1.98434e+14
1.95162e+14
1.91939e+14
1.88764e+14
1.85635e+14
1.82548e+14
1.79498e+14
1.76476e+14
1.73473e+14
1.7047e+14
1.67437e+14
1.64349e+14
1.61017e+14
1.57823e+14
1.51957e+14
1.54547e+14
1.50536e+14
1.33602e+14
8.85201e+13
6.94819e+13
8.82811e+13
9.26849e+13
1.00205e+14
1.02106e+14
1.11481e+14
1.43348e+14
1.77676e+14
2.11438e+14
2.31596e+14
2.44415e+14
2.51897e+14
2.54047e+14
2.55551e+14
2.5303e+14
2.63755e+14
2.6219e+14
3.28479e+14
3.38167e+14
3.02606e+14
3.0777e+14
3.07387e+14
3.02382e+14
2.97145e+14
2.92088e+14
2.86978e+14
2.81867e+14
2.76848e+14
2.71955e+14
2.67189e+14
2.62549e+14
2.5803e+14
2.53626e+14
2.49328e+14
2.45129e+14
2.4102e+14
2.36995e+14
2.33044e+14
2.29163e+14
2.25347e+14
2.21589e+14
2.17879e+14
2.1421e+14
2.10568e+14
2.06937e+14
2.03297e+14
1.99616e+14
1.95851e+14
1.91933e+14
1.87797e+14
1.83186e+14
1.78538e+14
1.70645e+14
1.72349e+14
1.66775e+14
1.45195e+14
9.21704e+13
6.6159e+13
8.34086e+13
8.42389e+13
8.67517e+13
7.84141e+13
9.6895e+13
1.50502e+14
1.9475e+14
2.30054e+14
2.56088e+14
2.73442e+14
2.84059e+14
2.88707e+14
2.91541e+14
2.90546e+14
3.00954e+14
2.98786e+14
3.57852e+14
3.69955e+14
3.29306e+14
3.34697e+14
3.33741e+14
3.27775e+14
3.21903e+14
3.16453e+14
3.11043e+14
3.05669e+14
3.00406e+14
2.95266e+14
2.90246e+14
2.85341e+14
2.80546e+14
2.75855e+14
2.71261e+14
2.66758e+14
2.62341e+14
2.58004e+14
2.53742e+14
2.4955e+14
2.45424e+14
2.41358e+14
2.37346e+14
2.3338e+14
2.2945e+14
2.25543e+14
2.2164e+14
2.17712e+14
2.13719e+14
2.09593e+14
2.05263e+14
2.0043e+14
1.95568e+14
1.8698e+14
1.8895e+14
1.82372e+14
1.56794e+14
9.62892e+13
6.24551e+13
7.88576e+13
7.66575e+13
7.66744e+13
6.95242e+13
1.1668e+14
1.73227e+14
2.23718e+14
2.63552e+14
2.92435e+14
3.11585e+14
3.23203e+14
3.28591e+14
3.31539e+14
3.3074e+14
3.399e+14
3.35484e+14
3.87022e+14
4.01847e+14
3.55703e+14
3.62078e+14
3.61368e+14
3.549e+14
3.48601e+14
3.42723e+14
3.36834e+14
3.30962e+14
3.25206e+14
3.19586e+14
3.14102e+14
3.08749e+14
3.03523e+14
2.98416e+14
2.9342e+14
2.88529e+14
2.83736e+14
2.79032e+14
2.74411e+14
2.69867e+14
2.65397e+14
2.60992e+14
2.56644e+14
2.52344e+14
2.4808e+14
2.43835e+14
2.39588e+14
2.35304e+14
2.30939e+14
2.26416e+14
2.21663e+14
2.16354e+14
2.11053e+14
2.01667e+14
2.03978e+14
1.96718e+14
1.6793e+14
1.00442e+14
5.95198e+13
7.40232e+13
6.9976e+13
6.7503e+13
1.01355e+14
1.62966e+14
2.24577e+14
2.76002e+14
3.14891e+14
3.42164e+14
3.59628e+14
3.69629e+14
3.73676e+14
3.75192e+14
3.73086e+14
3.79817e+14
3.71535e+14
4.14835e+14
4.32258e+14
3.79827e+14
3.86906e+14
3.86332e+14
3.79246e+14
3.72509e+14
3.6629e+14
3.60037e+14
3.5379e+14
3.4766e+14
3.41671e+14
3.35822e+14
3.30112e+14
3.24535e+14
3.19084e+14
3.13752e+14
3.08531e+14
3.03413e+14
2.98391e+14
2.93458e+14
2.88609e+14
2.83835e+14
2.79131e+14
2.74487e+14
2.69895e+14
2.65342e+14
2.6081e+14
2.56276e+14
2.51706e+14
2.47052e+14
2.42231e+14
2.37168e+14
2.31505e+14
2.25884e+14
2.15774e+14
2.18539e+14
2.10482e+14
1.78888e+14
1.04571e+14
5.43508e+13
6.66779e+13
6.39688e+13
1.00777e+14
1.73853e+14
2.45195e+14
3.04333e+14
3.49357e+14
3.81395e+14
4.02603e+14
4.15108e+14
4.21124e+14
4.22024e+14
4.20737e+14
4.16003e+14
4.1921e+14
4.05795e+14
4.40641e+14
4.60524e+14
4.01456e+14
4.0908e+14
4.08279e+14
4.00272e+14
3.92829e+14
3.86134e+14
3.79481e+14
3.72889e+14
3.66452e+14
3.60179e+14
3.54058e+14
3.48081e+14
3.42239e+14
3.36525e+14
3.30931e+14
3.25447e+14
3.20067e+14
3.14784e+14
3.09592e+14
3.04485e+14
2.99456e+14
2.94498e+14
2.89605e+14
2.84765e+14
2.79966e+14
2.75193e+14
2.7042e+14
2.65614e+14
2.60724e+14
2.55668e+14
2.50372e+14
2.44449e+14
2.38636e+14
2.27964e+14
2.31409e+14
2.2257e+14
1.89345e+14
1.08584e+14
6.26993e+13
6.53965e+13
1.47106e+14
2.36092e+14
3.07318e+14
3.628e+14
4.04429e+14
4.34227e+14
4.54166e+14
4.66141e+14
4.71767e+14
4.72666e+14
4.69697e+14
4.65048e+14
4.56924e+14
4.55779e+14
4.37032e+14
4.64629e+14
4.85838e+14
4.21471e+14
4.31227e+14
4.31803e+14
4.23998e+14
4.1644e+14
4.0944e+14
4.02329e+14
3.95216e+14
3.8825e+14
3.8146e+14
3.74847e+14
3.68407e+14
3.62131e+14
3.56011e+14
3.50034e+14
3.44188e+14
3.38463e+14
3.32851e+14
3.27343e+14
3.2193e+14
3.16604e+14
3.11357e+14
3.06181e+14
3.01064e+14
2.95993e+14
2.9095e+14
2.85912e+14
2.80844e+14
2.75699e+14
2.70396e+14
2.64878e+14
2.58745e+14
2.52881e+14
2.41796e+14
2.46531e+14
2.36957e+14
2.01447e+14
1.12922e+14
3.40341e+14
3.45609e+14
3.92723e+14
4.28711e+14
4.57385e+14
4.80799e+14
4.98538e+14
5.10492e+14
5.17e+14
5.18787e+14
5.16678e+14
5.11697e+14
5.04397e+14
4.96565e+14
4.8649e+14
4.83526e+14
4.64128e+14
4.88319e+14
5.04769e+14
4.33957e+14
4.41279e+14
4.3984e+14
4.30966e+14
4.23239e+14
4.16419e+14
4.09613e+14
4.02827e+14
3.96149e+14
3.89585e+14
3.83131e+14
3.76788e+14
3.70557e+14
3.64436e+14
3.58422e+14
3.52512e+14
3.46703e+14
3.40991e+14
3.35373e+14
3.29845e+14
3.24402e+14
3.1904e+14
3.13753e+14
3.08536e+14
3.03377e+14
2.98265e+14
2.93183e+14
2.88104e+14
2.82987e+14
2.77759e+14
2.72368e+14
2.66385e+14
2.6077e+14
2.49618e+14
2.55295e+14
2.4571e+14
2.11953e+14
1.19018e+14
7.67653e+13
7.16685e+13
6.89741e+13
6.68497e+13
6.48469e+13
6.31266e+13
6.17523e+13
6.11624e+13
5.98054e+13
7.40796e+13
1.30822e+14
1.22243e+14
1.13294e+14
1.06737e+14
1.00434e+14
9.48639e+13
8.98935e+13
8.6074e+13
8.0856e+13
9.30744e+13
1.45576e+14
1.39023e+14
1.28595e+14
1.20842e+14
1.12547e+14
1.04908e+14
9.77113e+13
9.17701e+13
8.61807e+13
8.58484e+13
1.53523e+14
1.45816e+14
1.34319e+14
1.25512e+14
1.16278e+14
1.07782e+14
9.95179e+13
9.2199e+13
8.76067e+13
7.59969e+13
1.49083e+14
1.42023e+14
1.31568e+14
1.23157e+14
1.14162e+14
1.05773e+14
9.75222e+13
8.95112e+13
8.62061e+13
7.15328e+13
1.55424e+14
1.47999e+14
1.37224e+14
1.28377e+14
1.18891e+14
1.09995e+14
1.01296e+14
9.21942e+13
8.96947e+13
7.26203e+13
1.58511e+14
1.51035e+14
1.40184e+14
1.31162e+14
1.21447e+14
1.12281e+14
1.034e+14
9.35679e+13
9.16795e+13
7.31484e+13
1.61812e+14
1.54241e+14
1.43218e+14
1.34002e+14
1.24054e+14
1.14628e+14
1.05578e+14
9.5167e+13
9.3686e+13
7.4123e+13
1.64803e+14
1.57149e+14
1.45952e+14
1.36566e+14
1.26419e+14
1.16772e+14
1.07577e+14
9.67271e+13
9.55166e+13
7.52103e+13
1.67721e+14
1.59973e+14
1.48591e+14
1.3904e+14
1.28705e+14
1.18857e+14
1.09519e+14
9.8318e+13
9.72875e+13
7.64071e+13
1.70597e+14
1.62746e+14
1.51176e+14
1.41463e+14
1.30948e+14
1.20909e+14
1.11429e+14
9.99322e+13
9.90255e+13
7.76733e+13
1.73473e+14
1.65512e+14
1.5375e+14
1.43874e+14
1.33181e+14
1.22958e+14
1.13333e+14
1.01573e+14
1.00757e+14
7.8992e+13
1.76369e+14
1.68291e+14
1.56334e+14
1.46294e+14
1.35424e+14
1.25019e+14
1.15248e+14
1.03241e+14
1.02499e+14
8.03514e+13
1.79298e+14
1.71101e+14
1.58945e+14
1.48737e+14
1.3769e+14
1.27101e+14
1.17183e+14
1.04935e+14
1.04259e+14
8.17444e+13
1.8227e+14
1.73949e+14
1.61591e+14
1.51212e+14
1.39987e+14
1.29212e+14
1.19145e+14
1.06657e+14
1.06046e+14
8.31665e+13
1.85287e+14
1.76841e+14
1.64277e+14
1.53723e+14
1.42319e+14
1.31354e+14
1.21138e+14
1.08405e+14
1.07862e+14
8.46151e+13
1.88353e+14
1.79779e+14
1.67008e+14
1.56275e+14
1.4469e+14
1.33531e+14
1.23164e+14
1.10181e+14
1.09711e+14
8.60885e+13
1.91471e+14
1.82766e+14
1.69785e+14
1.58869e+14
1.471e+14
1.35744e+14
1.25226e+14
1.11984e+14
1.11595e+14
8.75854e+13
1.9464e+14
1.858e+14
1.72609e+14
1.61504e+14
1.49551e+14
1.37994e+14
1.27323e+14
1.13815e+14
1.13515e+14
8.91053e+13
1.9786e+14
1.88881e+14
1.7548e+14
1.6418e+14
1.52043e+14
1.4028e+14
1.29456e+14
1.15675e+14
1.15471e+14
9.06477e+13
2.01125e+14
1.92004e+14
1.78398e+14
1.66898e+14
1.54576e+14
1.42603e+14
1.31625e+14
1.17564e+14
1.17463e+14
9.22124e+13
2.04435e+14
1.95166e+14
1.81356e+14
1.6965e+14
1.57147e+14
1.44963e+14
1.33829e+14
1.19483e+14
1.19493e+14
9.37995e+13
2.07784e+14
1.98367e+14
1.84354e+14
1.72434e+14
1.5975e+14
1.47354e+14
1.36067e+14
1.21434e+14
1.2156e+14
9.5409e+13
2.11165e+14
2.01599e+14
1.87386e+14
1.75248e+14
1.62384e+14
1.49773e+14
1.3833e+14
1.23417e+14
1.23662e+14
9.70412e+13
2.1457e+14
2.04854e+14
1.90446e+14
1.78083e+14
1.65044e+14
1.52218e+14
1.40619e+14
1.25425e+14
1.25798e+14
9.8697e+13
2.17987e+14
2.08122e+14
1.93525e+14
1.80933e+14
1.6772e+14
1.54684e+14
1.42929e+14
1.27455e+14
1.27966e+14
1.00377e+14
2.214e+14
2.11389e+14
1.96609e+14
1.83784e+14
1.70404e+14
1.57162e+14
1.45254e+14
1.29503e+14
1.30167e+14
1.02079e+14
2.24789e+14
2.14632e+14
1.99684e+14
1.8662e+14
1.73082e+14
1.59643e+14
1.47583e+14
1.31564e+14
1.32404e+14
1.03795e+14
2.28126e+14
2.17825e+14
2.02724e+14
1.8942e+14
1.75733e+14
1.62111e+14
1.49905e+14
1.33631e+14
1.34674e+14
1.05523e+14
2.31374e+14
2.20929e+14
2.05697e+14
1.92155e+14
1.78332e+14
1.64546e+14
1.52201e+14
1.35695e+14
1.36975e+14
1.07261e+14
2.34486e+14
2.23894e+14
2.08561e+14
1.94784e+14
1.80843e+14
1.6692e+14
1.5445e+14
1.37742e+14
1.39304e+14
1.09004e+14
2.37396e+14
2.26652e+14
2.11254e+14
1.97255e+14
1.83218e+14
1.69193e+14
1.56619e+14
1.39755e+14
1.41655e+14
1.10751e+14
2.40004e+14
2.29089e+14
2.13674e+14
1.99478e+14
1.85375e+14
1.71298e+14
1.58653e+14
1.41697e+14
1.44006e+14
1.12486e+14
2.42137e+14
2.31024e+14
2.15654e+14
2.0131e+14
1.87191e+14
1.73134e+14
1.60471e+14
1.43517e+14
1.46333e+14
1.14192e+14
2.43757e+14
2.32418e+14
2.17158e+14
2.02722e+14
1.88636e+14
1.74682e+14
1.6208e+14
1.45262e+14
1.48731e+14
1.1596e+14
2.45222e+14
2.33494e+14
2.1834e+14
2.03818e+14
1.89766e+14
1.75974e+14
1.63514e+14
1.47005e+14
1.51316e+14
1.17891e+14
2.43966e+14
2.31416e+14
2.16651e+14
2.02446e+14
1.88756e+14
1.75437e+14
1.63365e+14
1.47454e+14
1.52669e+14
1.18738e+14
2.32771e+14
2.20371e+14
2.07338e+14
1.94526e+14
1.8202e+14
1.69984e+14
1.59099e+14
1.44808e+14
1.5133e+14
1.17488e+14
2.54937e+14
2.41048e+14
2.26208e+14
2.1102e+14
1.96559e+14
1.83486e+14
1.72488e+14
1.59595e+14
1.69916e+14
1.33072e+14
2.54575e+14
2.36289e+14
2.21067e+14
2.078e+14
1.96459e+14
1.87316e+14
1.80912e+14
1.728e+14
1.90484e+14
1.5478e+14
1.82304e+14
1.62043e+14
1.45992e+14
1.32946e+14
1.22509e+14
1.14146e+14
1.07481e+14
9.76814e+13
9.49879e+13
5.88014e+13
1.38537e+14
1.18737e+14
1.04813e+14
9.53705e+13
8.98312e+13
8.61121e+13
8.18022e+13
7.76116e+13
8.2304e+13
5.85839e+13
8.64198e+13
6.91084e+13
5.87493e+13
5.34464e+13
4.92542e+13
4.85959e+13
5.34731e+13
5.88254e+13
6.9311e+13
5.3464e+13
4.21713e+13
3.10368e+13
2.58062e+13
2.32483e+13
2.5843e+13
3.23616e+13
4.12162e+13
4.95746e+13
6.19478e+13
4.99406e+13
1.40968e+13
9.61492e+12
7.76859e+12
9.39504e+12
1.60098e+13
2.48243e+13
3.48325e+13
4.39893e+13
5.63909e+13
4.65847e+13
5.2234e+12
4.30957e+12
2.73145e+12
7.08099e+12
1.40316e+13
2.24202e+13
3.1771e+13
4.07324e+13
5.13421e+13
4.38427e+13
4.95015e+12
5.01648e+12
5.80747e+12
8.70423e+12
1.43744e+13
2.16209e+13
2.98072e+13
3.81566e+13
4.63457e+13
4.13403e+13
5.74564e+12
6.54011e+12
7.8865e+12
1.05114e+13
1.51644e+13
2.12667e+13
2.82578e+13
3.56891e+13
4.15795e+13
3.89455e+13
6.36493e+12
7.60666e+12
9.25847e+12
1.17778e+13
1.57052e+13
2.08181e+13
2.67006e+13
3.30547e+13
3.70573e+13
3.65427e+13
6.66961e+12
8.1888e+12
1.00071e+13
1.24126e+13
1.57912e+13
2.00709e+13
2.49519e+13
3.02115e+13
3.28129e+13
3.40896e+13
6.63745e+12
8.27924e+12
1.01519e+13
1.24223e+13
1.53511e+13
1.89219e+13
2.2909e+13
2.71558e+13
2.88084e+13
3.15213e+13
6.3504e+12
8.01316e+12
9.85062e+12
1.19371e+13
1.44607e+13
1.74146e+13
2.06167e+13
2.39914e+13
2.50687e+13
2.88563e+13
5.83342e+12
7.37801e+12
9.06912e+12
1.09487e+13
1.30956e+13
1.55075e+13
1.80338e+13
2.06952e+13
2.14831e+13
2.59769e+13
5.23495e+12
6.63284e+12
8.13225e+12
9.74885e+12
1.15178e+13
1.34421e+13
1.5395e+13
1.74947e+13
1.81803e+13
2.30652e+13
4.46873e+12
5.55262e+12
6.71632e+12
8.06596e+12
9.4725e+12
1.0962e+13
1.24354e+13
1.40939e+13
1.47957e+13
1.95983e+13
3.8692e+12
4.84102e+12
5.76999e+12
6.76035e+12
7.77144e+12
8.84345e+12
9.90543e+12
1.11998e+13
1.19431e+13
1.65212e+13
2.01722e+12
2.39284e+12
2.8946e+12
3.50587e+12
4.17096e+12
4.85608e+12
5.5192e+12
6.38827e+12
6.98862e+12
9.90663e+12
3.21158e+14
2.93449e+14
3.12029e+14
3.2025e+14
3.30385e+14
3.40251e+14
3.49254e+14
3.57107e+14
3.64298e+14
3.59978e+14
3.26146e+14
4.41385e+14
3.96739e+14
3.97451e+14
3.94622e+14
3.95901e+14
3.99545e+14
4.05697e+14
4.15256e+14
4.29843e+14
4.41133e+14
4.37903e+14
4.3922e+14
4.10259e+14
4.1121e+14
4.10892e+14
4.13609e+14
4.17352e+14
4.21876e+14
4.27754e+14
4.3491e+14
4.35699e+14
4.29497e+14
4.73122e+14
4.47716e+14
4.44184e+14
4.41984e+14
4.43462e+14
4.46961e+14
4.52225e+14
4.59652e+14
4.68742e+14
4.72963e+14
4.75041e+14
5.05073e+14
4.82909e+14
4.77127e+14
4.7434e+14
4.75285e+14
4.78307e+14
4.83043e+14
4.89973e+14
4.98552e+14
5.03927e+14
5.10589e+14
5.35474e+14
5.14853e+14
5.06942e+14
5.0303e+14
5.03091e+14
5.05659e+14
5.10305e+14
5.17283e+14
5.2575e+14
5.32395e+14
5.42451e+14
5.66611e+14
5.46735e+14
5.37288e+14
5.32508e+14
5.31845e+14
5.3397e+14
5.384e+14
5.45194e+14
5.53669e+14
5.61407e+14
5.73317e+14
5.979e+14
5.78386e+14
5.67643e+14
5.62017e+14
5.60658e+14
5.62351e+14
5.66579e+14
5.73297e+14
5.81846e+14
5.90524e+14
6.03606e+14
6.29238e+14
6.10089e+14
5.98288e+14
5.9187e+14
5.89868e+14
5.91176e+14
5.95207e+14
6.01796e+14
6.10376e+14
6.19737e+14
6.33521e+14
6.6036e+14
6.41845e+14
6.29239e+14
6.21967e+14
6.19132e+14
6.19877e+14
6.23654e+14
6.30248e+14
6.38992e+14
6.48978e+14
6.63321e+14
6.91946e+14
6.74722e+14
6.62055e+14
6.54446e+14
6.51076e+14
6.5139e+14
6.54947e+14
6.61533e+14
6.70462e+14
6.80986e+14
6.95753e+14
7.25923e+14
7.10607e+14
6.98652e+14
6.91382e+14
6.87944e+14
6.88066e+14
6.91476e+14
6.98044e+14
7.07178e+14
7.18184e+14
7.33271e+14
7.63063e+14
7.50113e+14
7.39658e+14
7.33681e+14
7.31146e+14
7.31863e+14
7.35583e+14
7.4217e+14
7.51368e+14
7.62632e+14
7.77734e+14
8.04197e+14
7.93468e+14
7.84423e+14
7.79695e+14
7.78084e+14
7.79463e+14
7.83557e+14
7.90204e+14
7.99414e+14
8.10859e+14
8.25908e+14
8.44563e+14
8.35732e+14
8.27826e+14
8.24058e+14
8.23143e+14
8.25053e+14
8.29548e+14
8.3648e+14
8.45903e+14
8.57576e+14
8.7253e+14
8.83366e+14
8.76478e+14
8.69808e+14
8.67082e+14
8.66934e+14
8.69424e+14
8.74344e+14
8.81564e+14
8.91179e+14
9.03003e+14
9.17799e+14
9.20361e+14
9.15571e+14
9.10298e+14
9.08763e+14
9.09522e+14
9.12715e+14
9.18161e+14
9.2575e+14
9.35585e+14
9.47539e+14
9.62194e+14
9.5511e+14
9.52635e+14
9.48945e+14
9.48771e+14
9.5058e+14
9.54591e+14
9.60653e+14
9.68675e+14
9.7876e+14
9.90841e+14
1.00535e+15
9.87256e+14
9.87357e+14
9.8545e+14
9.86837e+14
9.89867e+14
9.9484e+14
1.00163e+15
1.01016e+15
1.02039e+15
1.0326e+15
1.04697e+15
1.01626e+15
1.01919e+15
1.01923e+15
1.02235e+15
1.02674e+15
1.03278e+15
1.04037e+15
1.04948e+15
1.06006e+15
1.07241e+15
1.08666e+15
1.04163e+15
1.04766e+15
1.04975e+15
1.05478e+15
1.06071e+15
1.06799e+15
1.07652e+15
1.08628e+15
1.09726e+15
1.10976e+15
1.12389e+15
1.06309e+15
1.07238e+15
1.07643e+15
1.08332e+15
1.0907e+15
1.09917e+15
1.10864e+15
1.11913e+15
1.13061e+15
1.14332e+15
1.15739e+15
1.08081e+15
1.09375e+15
1.09991e+15
1.10881e+15
1.11774e+15
1.12744e+15
1.13783e+15
1.14894e+15
1.16076e+15
1.17355e+15
1.18745e+15
1.09262e+15
1.10944e+15
1.11773e+15
1.12859e+15
1.13892e+15
1.14969e+15
1.1608e+15
1.17236e+15
1.18437e+15
1.1971e+15
1.21076e+15
1.09622e+15
1.1167e+15
1.12697e+15
1.13963e+15
1.15124e+15
1.16301e+15
1.17488e+15
1.18697e+15
1.19934e+15
1.21215e+15
1.22565e+15
1.09415e+15
1.11839e+15
1.13057e+15
1.14493e+15
1.15776e+15
1.17048e+15
1.18305e+15
1.19563e+15
1.2083e+15
1.22122e+15
1.2346e+15
1.08721e+15
1.11562e+15
1.1296e+15
1.14561e+15
1.15957e+15
1.17315e+15
1.18634e+15
1.19937e+15
1.21231e+15
1.22531e+15
1.23857e+15
1.07523e+15
1.10856e+15
1.12437e+15
1.14214e+15
1.15722e+15
1.17162e+15
1.18536e+15
1.19873e+15
1.21184e+15
1.22481e+15
1.2379e+15
1.05589e+15
1.09501e+15
1.11286e+15
1.13267e+15
1.14908e+15
1.16441e+15
1.17876e+15
1.19246e+15
1.20569e+15
1.21854e+15
1.23136e+15
1.0264e+15
1.07179e+15
1.09164e+15
1.11358e+15
1.13137e+15
1.1477e+15
1.16271e+15
1.17682e+15
1.1902e+15
1.20296e+15
1.21544e+15
9.84332e+14
1.03581e+15
1.05729e+15
1.08129e+15
1.10032e+15
1.11739e+15
1.13274e+15
1.14694e+15
1.16029e+15
1.17294e+15
1.185e+15
9.27035e+14
9.82143e+14
1.00357e+15
1.02964e+15
1.05107e+15
1.07062e+15
1.08813e+15
1.10394e+15
1.1182e+15
1.13099e+15
1.14254e+15
8.6079e+14
9.13295e+14
9.24453e+14
9.41243e+14
9.53737e+14
9.65356e+14
9.76242e+14
9.86878e+14
9.97516e+14
1.00816e+15
1.01801e+15
7.6892e+14
8.39986e+14
8.6403e+14
8.94529e+14
9.1909e+14
9.41061e+14
9.60464e+14
9.77797e+14
9.93417e+14
1.00739e+15
1.01926e+15
5.91003e+14
5.96406e+14
5.72333e+14
5.6728e+14
5.63833e+14
5.63162e+14
5.6409e+14
5.66298e+14
5.69567e+14
5.73586e+14
5.77587e+14
1.23267e+14
1.33594e+14
1.45491e+14
1.56191e+14
1.66154e+14
1.75824e+14
1.85214e+14
1.94172e+14
2.02673e+14
2.11155e+14
2.19757e+14
2.2836e+14
2.35724e+14
2.40593e+14
2.43142e+14
2.43064e+14
2.40617e+14
2.36447e+14
2.292e+14
2.22424e+14
2.08241e+14
1.9412e+14
1.81878e+14
1.6886e+14
1.57579e+14
1.47688e+14
1.38915e+14
1.30583e+14
1.22429e+14
1.14374e+14
1.06415e+14
9.85971e+13
9.03939e+13
8.3049e+13
7.81961e+13
2.11518e+14
2.12307e+14
2.15991e+14
2.20135e+14
2.24663e+14
2.29471e+14
2.3435e+14
2.38994e+14
2.43295e+14
2.47364e+14
2.50947e+14
2.53599e+14
2.54294e+14
2.53176e+14
2.50737e+14
2.46719e+14
2.41477e+14
2.35412e+14
2.27815e+14
2.20651e+14
2.10107e+14
2.00864e+14
1.92597e+14
1.83644e+14
1.75307e+14
1.67592e+14
1.60653e+14
1.54211e+14
1.48165e+14
1.42626e+14
1.37808e+14
1.34e+14
1.30766e+14
1.28713e+14
1.29461e+14
2.50192e+14
2.59664e+14
2.65729e+14
2.70735e+14
2.75007e+14
2.78129e+14
2.80073e+14
2.80826e+14
2.80559e+14
2.79056e+14
2.75811e+14
2.70973e+14
2.6529e+14
2.60295e+14
2.55645e+14
2.50488e+14
2.44818e+14
2.38639e+14
2.31729e+14
2.25216e+14
2.18087e+14
2.11529e+14
2.0634e+14
2.02081e+14
1.9835e+14
1.944e+14
1.90249e+14
1.86009e+14
1.81602e+14
1.76894e+14
1.71871e+14
1.67127e+14
1.61477e+14
1.54329e+14
1.48121e+14
2.57453e+14
2.63164e+14
2.67812e+14
2.72094e+14
2.75629e+14
2.78145e+14
2.79731e+14
2.80391e+14
2.804e+14
2.79982e+14
2.78998e+14
2.77324e+14
2.74639e+14
2.71365e+14
2.6765e+14
2.63319e+14
2.58535e+14
2.53376e+14
2.4786e+14
2.42155e+14
2.35182e+14
2.27829e+14
2.2117e+14
2.14978e+14
2.09227e+14
2.03719e+14
1.98472e+14
1.93316e+14
1.88075e+14
1.82749e+14
1.77278e+14
1.71874e+14
1.65716e+14
1.59375e+14
1.55058e+14
2.52512e+14
2.58403e+14
2.62111e+14
2.65328e+14
2.67565e+14
2.6877e+14
2.6915e+14
2.68793e+14
2.67926e+14
2.66571e+14
2.64567e+14
2.61912e+14
2.58618e+14
2.55203e+14
2.51484e+14
2.4726e+14
2.42635e+14
2.37653e+14
2.32339e+14
2.26782e+14
2.2071e+14
2.14381e+14
2.08676e+14
2.03768e+14
1.9931e+14
1.95e+14
1.90698e+14
1.86395e+14
1.82003e+14
1.77542e+14
1.72992e+14
1.68827e+14
1.64519e+14
1.58792e+14
1.52615e+14
2.63517e+14
2.69141e+14
2.7277e+14
2.75614e+14
2.77273e+14
2.77942e+14
2.7785e+14
2.77102e+14
2.75913e+14
2.74292e+14
2.7212e+14
2.69353e+14
2.65981e+14
2.62433e+14
2.58514e+14
2.54138e+14
2.49391e+14
2.44325e+14
2.3899e+14
2.33408e+14
2.27524e+14
2.21268e+14
2.15553e+14
2.10703e+14
2.06303e+14
2.02074e+14
1.9781e+14
1.9352e+14
1.89127e+14
1.84646e+14
1.80018e+14
1.75801e+14
1.72062e+14
1.67057e+14
1.60438e+14
2.69141e+14
2.74602e+14
2.78047e+14
2.80437e+14
2.81621e+14
2.81919e+14
2.8152e+14
2.80543e+14
2.79172e+14
2.77389e+14
2.75117e+14
2.72295e+14
2.68932e+14
2.65374e+14
2.61405e+14
2.5701e+14
2.52257e+14
2.47203e+14
2.41895e+14
2.36339e+14
2.3056e+14
2.24396e+14
2.18675e+14
2.13856e+14
2.09512e+14
2.05365e+14
2.01143e+14
1.96878e+14
1.92508e+14
1.8805e+14
1.83379e+14
1.79049e+14
1.7574e+14
1.71691e+14
1.65179e+14
2.75145e+14
2.8057e+14
2.83933e+14
2.85965e+14
2.86849e+14
2.86922e+14
2.86324e+14
2.85192e+14
2.83687e+14
2.8178e+14
2.79427e+14
2.76537e+14
2.73133e+14
2.69509e+14
2.65442e+14
2.60977e+14
2.56164e+14
2.51065e+14
2.45724e+14
2.40149e+14
2.34355e+14
2.28248e+14
2.225e+14
2.17667e+14
2.13325e+14
2.09199e+14
2.04973e+14
2.00692e+14
1.96301e+14
1.91828e+14
1.87093e+14
1.82581e+14
1.79383e+14
1.75996e+14
1.69936e+14
2.80586e+14
2.86031e+14
2.89325e+14
2.91068e+14
2.91767e+14
2.91694e+14
2.90962e+14
2.89724e+14
2.88124e+14
2.86127e+14
2.83716e+14
2.80771e+14
2.77328e+14
2.73645e+14
2.69495e+14
2.64963e+14
2.60086e+14
2.54934e+14
2.49543e+14
2.43924e+14
2.38082e+14
2.31953e+14
2.26184e+14
2.21312e+14
2.16939e+14
2.12799e+14
2.08543e+14
2.04226e+14
1.99795e+14
1.9529e+14
1.90494e+14
1.85827e+14
1.82622e+14
1.79628e+14
1.74069e+14
2.85877e+14
2.91382e+14
2.94628e+14
2.96157e+14
2.96746e+14
2.96575e+14
2.95746e+14
2.9443e+14
2.92755e+14
2.90685e+14
2.88221e+14
2.8522e+14
2.8173e+14
2.77981e+14
2.73745e+14
2.69139e+14
2.64189e+14
2.58969e+14
2.53512e+14
2.47828e+14
2.41923e+14
2.35724e+14
2.29914e+14
2.25001e+14
2.2058e+14
2.16402e+14
2.12101e+14
2.07734e+14
2.03249e+14
1.98697e+14
1.93837e+14
1.89041e+14
1.85787e+14
1.8299e+14
1.77818e+14
2.91058e+14
2.96644e+14
2.99861e+14
3.01236e+14
3.01761e+14
3.01522e+14
3.0062e+14
2.99243e+14
2.97507e+14
2.95374e+14
2.92862e+14
2.89807e+14
2.86264e+14
2.82448e+14
2.78128e+14
2.73444e+14
2.68416e+14
2.63118e+14
2.57585e+14
2.51824e+14
2.45841e+14
2.3956e+14
2.33675e+14
2.28714e+14
2.24242e+14
2.20013e+14
2.15655e+14
2.11229e+14
2.06684e+14
2.02072e+14
1.97143e+14
1.9224e+14
1.88927e+14
1.86219e+14
1.81281e+14
2.96198e+14
3.01879e+14
3.05087e+14
3.06354e+14
3.06842e+14
3.06553e+14
3.05595e+14
3.04169e+14
3.02379e+14
3.00191e+14
2.97632e+14
2.94521e+14
2.90923e+14
2.87039e+14
2.82635e+14
2.77871e+14
2.7276e+14
2.67379e+14
2.61762e+14
2.55916e+14
2.49845e+14
2.43471e+14
2.37505e+14
2.32472e+14
2.27942e+14
2.2366e+14
2.1924e+14
2.14749e+14
2.10136e+14
2.05459e+14
2.00455e+14
1.95456e+14
1.92085e+14
1.89407e+14
1.84579e+14
3.01333e+14
3.0712e+14
3.10334e+14
3.11528e+14
3.11996e+14
3.1167e+14
3.10667e+14
3.09197e+14
3.07361e+14
3.05122e+14
3.02517e+14
2.9935e+14
2.95694e+14
2.9174e+14
2.87253e+14
2.82407e+14
2.77209e+14
2.71742e+14
2.66035e+14
2.60098e+14
2.53933e+14
2.4746e+14
2.41404e+14
2.36297e+14
2.31697e+14
2.27351e+14
2.22868e+14
2.18311e+14
2.13625e+14
2.08877e+14
2.03796e+14
1.98705e+14
1.95278e+14
1.92601e+14
1.87797e+14
3.06491e+14
3.12391e+14
3.15623e+14
3.16771e+14
3.17229e+14
3.16874e+14
3.15833e+14
3.14326e+14
3.12447e+14
3.10159e+14
3.07508e+14
3.04285e+14
3.00568e+14
2.96544e+14
2.91974e+14
2.87045e+14
2.81758e+14
2.76201e+14
2.70401e+14
2.64367e+14
2.58104e+14
2.51528e+14
2.45377e+14
2.40192e+14
2.35519e+14
2.31104e+14
2.26549e+14
2.21921e+14
2.17165e+14
2.12343e+14
2.07179e+14
2.01999e+14
1.98517e+14
1.95826e+14
1.90996e+14
3.1169e+14
3.1771e+14
3.2097e+14
3.22089e+14
3.22543e+14
3.22166e+14
3.21093e+14
3.19551e+14
3.17632e+14
3.15298e+14
3.126e+14
3.09321e+14
3.05542e+14
3.01447e+14
2.96795e+14
2.9178e+14
2.86403e+14
2.80752e+14
2.74856e+14
2.68724e+14
2.62358e+14
2.55675e+14
2.49425e+14
2.44157e+14
2.3941e+14
2.34924e+14
2.30294e+14
2.25591e+14
2.2076e+14
2.15862e+14
2.10614e+14
2.05344e+14
2.01808e+14
1.99095e+14
1.94216e+14
3.16943e+14
3.23092e+14
3.26384e+14
3.2749e+14
3.27942e+14
3.27548e+14
3.26446e+14
3.24871e+14
3.22913e+14
3.20535e+14
3.1779e+14
3.14453e+14
3.1061e+14
3.06445e+14
3.01709e+14
2.96609e+14
2.9114e+14
2.85394e+14
2.79399e+14
2.73165e+14
2.66694e+14
2.599e+14
2.53548e+14
2.48196e+14
2.43371e+14
2.38811e+14
2.34106e+14
2.29326e+14
2.24415e+14
2.1944e+14
2.14106e+14
2.08744e+14
2.05153e+14
2.02414e+14
1.97477e+14
3.22261e+14
3.28544e+14
3.31874e+14
3.32976e+14
3.33429e+14
3.3302e+14
3.31892e+14
3.30286e+14
3.2829e+14
3.25867e+14
3.23075e+14
3.1968e+14
3.15772e+14
3.11534e+14
3.06716e+14
3.01527e+14
2.95965e+14
2.90122e+14
2.84026e+14
2.77689e+14
2.7111e+14
2.64202e+14
2.57746e+14
2.52307e+14
2.47402e+14
2.42768e+14
2.37984e+14
2.33126e+14
2.28135e+14
2.23078e+14
2.17657e+14
2.12202e+14
2.08555e+14
2.05788e+14
2.00792e+14
3.27651e+14
3.34076e+14
3.37444e+14
3.3855e+14
3.39005e+14
3.38584e+14
3.37431e+14
3.35793e+14
3.3376e+14
3.31293e+14
3.28452e+14
3.25e+14
3.21025e+14
3.16714e+14
3.11812e+14
3.06534e+14
3.00878e+14
2.94936e+14
2.88738e+14
2.82293e+14
2.75605e+14
2.68581e+14
2.62017e+14
2.56489e+14
2.51504e+14
2.46793e+14
2.4193e+14
2.3699e+14
2.31919e+14
2.26779e+14
2.21268e+14
2.15718e+14
2.12013e+14
2.09217e+14
2.04165e+14
3.33122e+14
3.39695e+14
3.431e+14
3.44215e+14
3.44672e+14
3.4424e+14
3.43062e+14
3.41394e+14
3.39322e+14
3.36813e+14
3.33922e+14
3.3041e+14
3.26368e+14
3.21983e+14
3.16996e+14
3.11628e+14
3.05875e+14
2.99833e+14
2.9353e+14
2.86978e+14
2.80177e+14
2.73035e+14
2.66362e+14
2.60742e+14
2.55674e+14
2.50885e+14
2.45941e+14
2.4092e+14
2.35764e+14
2.30541e+14
2.24938e+14
2.19292e+14
2.1553e+14
2.127e+14
2.07593e+14
3.38676e+14
3.45409e+14
3.48847e+14
3.49973e+14
3.50432e+14
3.49989e+14
3.48785e+14
3.47085e+14
3.44976e+14
3.42422e+14
3.39482e+14
3.35911e+14
3.31799e+14
3.2734e+14
3.22266e+14
3.16806e+14
3.10955e+14
3.0481e+14
2.98401e+14
2.91738e+14
2.84823e+14
2.77561e+14
2.70776e+14
2.65063e+14
2.59912e+14
2.55043e+14
2.50017e+14
2.44911e+14
2.3967e+14
2.34361e+14
2.28665e+14
2.22924e+14
2.191e+14
2.16233e+14
2.1107e+14
3.44321e+14
3.51224e+14
3.54687e+14
3.55826e+14
3.56285e+14
3.55831e+14
3.54601e+14
3.52868e+14
3.50721e+14
3.48122e+14
3.45131e+14
3.41499e+14
3.37318e+14
3.32781e+14
3.2762e+14
3.22065e+14
3.16114e+14
3.09864e+14
3.03347e+14
2.96572e+14
2.8954e+14
2.82157e+14
2.75257e+14
2.69451e+14
2.64213e+14
2.59263e+14
2.54153e+14
2.48962e+14
2.43635e+14
2.38238e+14
2.32448e+14
2.26609e+14
2.22723e+14
2.19814e+14
2.14598e+14
3.50062e+14
3.57149e+14
3.60625e+14
3.61776e+14
3.62234e+14
3.61767e+14
3.60508e+14
3.58741e+14
3.56554e+14
3.53909e+14
3.50866e+14
3.47174e+14
3.42921e+14
3.38306e+14
3.33054e+14
3.27403e+14
3.21349e+14
3.14993e+14
3.08365e+14
3.01476e+14
2.94324e+14
2.86817e+14
2.79802e+14
2.739e+14
2.68575e+14
2.63542e+14
2.58346e+14
2.53068e+14
2.47653e+14
2.42167e+14
2.36281e+14
2.30344e+14
2.26395e+14
2.23443e+14
2.18178e+14
3.55903e+14
3.6319e+14
3.66664e+14
3.67824e+14
3.6828e+14
3.67796e+14
3.66507e+14
3.64703e+14
3.62473e+14
3.59782e+14
3.56687e+14
3.52931e+14
3.48605e+14
3.43911e+14
3.38566e+14
3.32815e+14
3.26657e+14
3.20191e+14
3.13449e+14
3.06444e+14
2.99171e+14
2.91537e+14
2.84405e+14
2.78405e+14
2.72991e+14
2.67874e+14
2.62591e+14
2.57223e+14
2.5172e+14
2.46144e+14
2.40159e+14
2.34125e+14
2.30111e+14
2.27113e+14
2.21805e+14
3.6185e+14
3.69357e+14
3.72807e+14
3.73972e+14
3.74422e+14
3.73918e+14
3.72595e+14
3.70752e+14
3.68477e+14
3.65736e+14
3.62588e+14
3.58769e+14
3.54369e+14
3.49591e+14
3.4415e+14
3.38297e+14
3.32031e+14
3.25454e+14
3.18596e+14
3.11471e+14
3.04074e+14
2.96311e+14
2.89059e+14
2.82959e+14
2.77454e+14
2.72252e+14
2.6688e+14
2.61422e+14
2.55828e+14
2.50159e+14
2.44076e+14
2.37943e+14
2.33865e+14
2.30818e+14
2.25471e+14
3.6791e+14
3.75661e+14
3.79057e+14
3.80221e+14
3.80662e+14
3.80132e+14
3.7877e+14
3.76882e+14
3.74559e+14
3.7177e+14
3.68565e+14
3.64684e+14
3.60207e+14
3.55343e+14
3.49801e+14
3.43841e+14
3.37464e+14
3.30771e+14
3.23795e+14
3.16548e+14
3.09024e+14
3.01129e+14
2.93755e+14
2.87555e+14
2.81957e+14
2.76666e+14
2.71204e+14
2.65653e+14
2.59968e+14
2.54205e+14
2.4802e+14
2.4179e+14
2.37646e+14
2.34549e+14
2.29165e+14
3.74089e+14
3.82114e+14
3.85418e+14
3.86571e+14
3.86999e+14
3.86437e+14
3.85029e+14
3.83091e+14
3.80717e+14
3.77875e+14
3.74614e+14
3.70667e+14
3.66113e+14
3.61159e+14
3.55512e+14
3.49439e+14
3.42947e+14
3.36135e+14
3.29035e+14
3.21663e+14
3.14009e+14
3.05978e+14
2.98481e+14
2.92178e+14
2.86485e+14
2.81103e+14
2.75549e+14
2.69904e+14
2.64126e+14
2.58268e+14
2.5198e+14
2.45653e+14
2.41443e+14
2.38293e+14
2.32877e+14
3.80396e+14
3.88729e+14
3.91889e+14
3.93022e+14
3.93431e+14
3.92829e+14
3.91367e+14
3.89374e+14
3.86943e+14
3.84045e+14
3.80727e+14
3.76713e+14
3.72079e+14