/*--------------------------------*- C++ -*----------------------------------*\
| =========                 |                                                 |
| \\      /  F ield         | OpenFOAM: The Open Source CFD Toolbox           |
|  \\    /   O peration     | Version:  2406                                  |
|   \\  /    A nd           | Website:  www.openfoam.com                      |
|    \\/     M anipulation  |                                                 |
\*---------------------------------------------------------------------------*/
FoamFile
{
    version     2.0;
    format      ascii;
    arch        "LSB;label=32;scalar=64";
    class       volScalarField;
    location    "0/neutroRegion";
    object      prec4;
}
// * * * * * * * * * * * * * * * * * * * * * * * * * * * * * * * * * * * * * //

dimensions      [0 -3 0 0 0 0 0];

internalField   nonuniform List<scalar> 
8595
(
2.74251e+16
2.44511e+16
1.99333e+16
1.90307e+16
1.81884e+16
1.79109e+16
1.79567e+16
1.80143e+16
1.80481e+16
1.80442e+16
1.79728e+16
1.78917e+16
1.73222e+16
1.87323e+16
1.66749e+16
1.93544e+16
1.61434e+16
2.19426e+16
8.52717e+15
7.60806e+15
7.84263e+15
7.9831e+15
7.98363e+15
7.97566e+15
7.97485e+15
7.96945e+15
7.95864e+15
7.94452e+15
7.92796e+15
7.90935e+15
7.88908e+15
7.86757e+15
7.84511e+15
7.82197e+15
7.79833e+15
7.7744e+15
7.75033e+15
7.72622e+15
7.7022e+15
7.6784e+15
7.65492e+15
7.63195e+15
7.60969e+15
7.5884e+15
7.56851e+15
7.55064e+15
7.5357e+15
7.52519e+15
7.52116e+15
7.52822e+15
7.54726e+15
7.61431e+15
7.62308e+15
8.22823e+15
9.28746e+15
2.69193e+16
2.47156e+16
2.03554e+16
2.0123e+16
1.92822e+16
2.08419e+16
2.19775e+16
2.30897e+16
2.34774e+16
2.39177e+16
2.43065e+16
2.45446e+16
2.45926e+16
2.47926e+16
2.43978e+16
2.47789e+16
2.38549e+16
2.51878e+16
2.30542e+16
2.9251e+16
1.15168e+16
1.02064e+16
1.03925e+16
1.04773e+16
1.04212e+16
1.03631e+16
1.03135e+16
1.02626e+16
1.0211e+16
1.01614e+16
1.01146e+16
1.00704e+16
1.00286e+16
9.98902e+15
9.95132e+15
9.91517e+15
9.8803e+15
9.84645e+15
9.81341e+15
9.78095e+15
9.74883e+15
9.7169e+15
9.68493e+15
9.65265e+15
9.61977e+15
9.5859e+15
9.55047e+15
9.51268e+15
9.47139e+15
9.42492e+15
9.37049e+15
9.3056e+15
9.21878e+15
9.13276e+15
8.89059e+15
9.17011e+15
9.20784e+15
2.30825e+16
1.91859e+16
2.0297e+16
2.06823e+16
2.01052e+16
2.10174e+16
2.08747e+16
2.09031e+16
2.14439e+16
2.21837e+16
2.2863e+16
2.32403e+16
2.34426e+16
2.3639e+16
2.34623e+16
2.36369e+16
2.3171e+16
2.40868e+16
2.27042e+16
2.68578e+16
1.05823e+16
9.35663e+15
9.50897e+15
9.56852e+15
9.51519e+15
9.47417e+15
9.45448e+15
9.43817e+15
9.421e+15
9.40315e+15
9.38433e+15
9.36422e+15
9.34279e+15
9.32019e+15
9.29657e+15
9.27211e+15
9.247e+15
9.22136e+15
9.19536e+15
9.16914e+15
9.14283e+15
9.1165e+15
9.09027e+15
9.0643e+15
9.03875e+15
9.01386e+15
8.9899e+15
8.96724e+15
8.94642e+15
8.92819e+15
8.91324e+15
8.90376e+15
8.89455e+15
8.91486e+15
8.81307e+15
9.2706e+15
9.50073e+15
2.3896e+16
1.89757e+16
1.97464e+16
2.03361e+16
1.96299e+16
2.02549e+16
1.99158e+16
2.03492e+16
2.15749e+16
2.27214e+16
2.37481e+16
2.43213e+16
2.4617e+16
2.48199e+16
2.48033e+16
2.49394e+16
2.46331e+16
2.52995e+16
2.41203e+16
2.75235e+16
1.09373e+16
9.73117e+15
9.95409e+15
1.00424e+16
1.00022e+16
9.96472e+15
9.93529e+15
9.90311e+15
9.86822e+15
9.83312e+15
9.79857e+15
9.76466e+15
9.73143e+15
9.69891e+15
9.66704e+15
9.63577e+15
9.60503e+15
9.57473e+15
9.54478e+15
9.51508e+15
9.48559e+15
9.45628e+15
9.42703e+15
9.39774e+15
9.3683e+15
9.33855e+15
9.30828e+15
9.27725e+15
9.24507e+15
9.21131e+15
9.17514e+15
9.13711e+15
9.09026e+15
9.06592e+15
8.91092e+15
9.33926e+15
9.55697e+15
2.39847e+16
1.85897e+16
1.96047e+16
2.00941e+16
1.91971e+16
1.96739e+16
1.8512e+16
1.94524e+16
2.15716e+16
2.30471e+16
2.40604e+16
2.47196e+16
2.50891e+16
2.5309e+16
2.53371e+16
2.54326e+16
2.51994e+16
2.57058e+16
2.46104e+16
2.72933e+16
1.09361e+16
9.68141e+15
9.89759e+15
9.97017e+15
9.9148e+15
9.8707e+15
9.84273e+15
9.81562e+15
9.78738e+15
9.7593e+15
9.73142e+15
9.70353e+15
9.67553e+15
9.64745e+15
9.6193e+15
9.59109e+15
9.56282e+15
9.53453e+15
9.50623e+15
9.47794e+15
9.4497e+15
9.42149e+15
9.39333e+15
9.36528e+15
9.33734e+15
9.30951e+15
9.28185e+15
9.2544e+15
9.22715e+15
9.20012e+15
9.17297e+15
9.14669e+15
9.11383e+15
9.10593e+15
8.96089e+15
9.41039e+15
9.62153e+15
2.41555e+16
1.84085e+16
1.94903e+16
1.99404e+16
1.87535e+16
1.92841e+16
1.83613e+16
2.02417e+16
2.2264e+16
2.38105e+16
2.48424e+16
2.54677e+16
2.57941e+16
2.59556e+16
2.59567e+16
2.59876e+16
2.57593e+16
2.61132e+16
2.50118e+16
2.71154e+16
1.09589e+16
9.6575e+15
9.89228e+15
9.97642e+15
9.92263e+15
9.88072e+15
9.85399e+15
9.82647e+15
9.79701e+15
9.76745e+15
9.73804e+15
9.70865e+15
9.67926e+15
9.64993e+15
9.62066e+15
9.59146e+15
9.56235e+15
9.53334e+15
9.50442e+15
9.4756e+15
9.44689e+15
9.41828e+15
9.38976e+15
9.36134e+15
9.33302e+15
9.30477e+15
9.27662e+15
9.24855e+15
9.22054e+15
9.19266e+15
9.16464e+15
9.13783e+15
9.10512e+15
9.10077e+15
8.95855e+15
9.42918e+15
9.64599e+15
2.43006e+16
1.82932e+16
1.95852e+16
1.98236e+16
1.85063e+16
1.86843e+16
1.98412e+16
2.20618e+16
2.39519e+16
2.52496e+16
2.60217e+16
2.64214e+16
2.65724e+16
2.65935e+16
2.65025e+16
2.64378e+16
2.61666e+16
2.63687e+16
2.52156e+16
2.68343e+16
1.0935e+16
9.5826e+15
9.82923e+15
9.92182e+15
9.8669e+15
9.82639e+15
9.80269e+15
9.77753e+15
9.74998e+15
9.722e+15
9.69385e+15
9.66545e+15
9.63687e+15
9.60818e+15
9.57943e+15
9.55069e+15
9.52197e+15
9.49329e+15
9.46468e+15
9.43613e+15
9.4077e+15
9.37938e+15
9.35118e+15
9.3231e+15
9.2952e+15
9.2675e+15
9.24001e+15
9.21281e+15
9.18601e+15
9.15975e+15
9.13388e+15
9.11001e+15
9.08089e+15
9.08281e+15
8.94406e+15
9.43646e+15
9.65305e+15
2.44348e+16
1.82023e+16
1.887e+16
1.92066e+16
1.85102e+16
2.01508e+16
2.27621e+16
2.48899e+16
2.6241e+16
2.69619e+16
2.72528e+16
2.72876e+16
2.71791e+16
2.70151e+16
2.68031e+16
2.66345e+16
2.63026e+16
2.63664e+16
2.51571e+16
2.64002e+16
1.08461e+16
9.45197e+15
9.70795e+15
9.80088e+15
9.7337e+15
9.68764e+15
9.6627e+15
9.63795e+15
9.61194e+15
9.58612e+15
9.56031e+15
9.53419e+15
9.50769e+15
9.48084e+15
9.45368e+15
9.42627e+15
9.39866e+15
9.37093e+15
9.3431e+15
9.31523e+15
9.28739e+15
9.2596e+15
9.23193e+15
9.20442e+15
9.17711e+15
9.15011e+15
9.12351e+15
9.09745e+15
9.07213e+15
9.04786e+15
9.0247e+15
9.00467e+15
8.98048e+15
8.99057e+15
8.85842e+15
9.3755e+15
9.58977e+15
2.45017e+16
1.81012e+16
2.33156e+16
2.13812e+16
2.35235e+16
2.60486e+16
2.75064e+16
2.82115e+16
2.83963e+16
2.82679e+16
2.79785e+16
2.76317e+16
2.72835e+16
2.69721e+16
2.66777e+16
2.64442e+16
2.60704e+16
2.60229e+16
2.48121e+16
2.58449e+16
1.06849e+16
9.29329e+15
9.59439e+15
9.72444e+15
9.67666e+15
9.64188e+15
9.62175e+15
9.59755e+15
9.56998e+15
9.54172e+15
9.51321e+15
9.48448e+15
9.45565e+15
9.42682e+15
9.39806e+15
9.36938e+15
9.34079e+15
9.31232e+15
9.28397e+15
9.25578e+15
9.22776e+15
9.19991e+15
9.17228e+15
9.1449e+15
9.11782e+15
9.09113e+15
9.06496e+15
9.0395e+15
9.01503e+15
8.99206e+15
8.97097e+15
8.95451e+15
8.93601e+15
8.95772e+15
8.83632e+15
9.39774e+15
9.61571e+15
2.47364e+16
1.80371e+16
3.79246e+16
3.15289e+16
3.14923e+16
3.1147e+16
3.04959e+16
2.97419e+16
2.89591e+16
2.82068e+16
2.75218e+16
2.69245e+16
2.64184e+16
2.60073e+16
2.56641e+16
2.5418e+16
2.51104e+16
2.51293e+16
2.41961e+16
2.5286e+16
1.04041e+16
8.99741e+15
9.24511e+15
9.3306e+15
9.26919e+15
9.2386e+15
9.22898e+15
9.21804e+15
9.20418e+15
9.18859e+15
9.17113e+15
9.15173e+15
9.13061e+15
9.10804e+15
9.08431e+15
9.05963e+15
9.03422e+15
9.0083e+15
8.98203e+15
8.95555e+15
8.92899e+15
8.90251e+15
8.87622e+15
8.85029e+15
8.8249e+15
8.80026e+15
8.77668e+15
8.75461e+15
8.73459e+15
8.71741e+15
8.70373e+15
8.6965e+15
8.68865e+15
8.72298e+15
8.61305e+15
9.1875e+15
9.41799e+15
2.47484e+16
1.82156e+16
8.12151e+15
7.85662e+15
7.8228e+15
7.83428e+15
7.85506e+15
7.91332e+15
8.03219e+15
8.29257e+15
8.52211e+15
1.12134e+16
1.1622e+16
1.12477e+16
1.08098e+16
1.05661e+16
1.03337e+16
1.01678e+16
1.00701e+16
1.01217e+16
1.00411e+16
1.23874e+16
4.61573e+15
4.5609e+15
4.37511e+15
4.27239e+15
4.14689e+15
4.04227e+15
3.95606e+15
3.92983e+15
3.92929e+15
4.25853e+15
4.70998e+15
4.62144e+15
4.40922e+15
4.27819e+15
4.12807e+15
3.99951e+15
3.87864e+15
3.80516e+15
3.86678e+15
3.69174e+15
4.46664e+15
4.39088e+15
4.20973e+15
4.0902e+15
3.94858e+15
3.82481e+15
3.7053e+15
3.60443e+15
3.72547e+15
3.41621e+15
4.57063e+15
4.48798e+15
4.30418e+15
4.17833e+15
4.02957e+15
3.89812e+15
3.7729e+15
3.63994e+15
3.80931e+15
3.41583e+15
4.58467e+15
4.50265e+15
4.32121e+15
4.1946e+15
4.04421e+15
3.90991e+15
3.78515e+15
3.63049e+15
3.83208e+15
3.38991e+15
4.60931e+15
4.52744e+15
4.3458e+15
4.21799e+15
4.06584e+15
3.92884e+15
3.8047e+15
3.63456e+15
3.85784e+15
3.38548e+15
4.62704e+15
4.54576e+15
4.36377e+15
4.2353e+15
4.08211e+15
3.94327e+15
3.81993e+15
3.63958e+15
3.87697e+15
3.38608e+15
4.64341e+15
4.56257e+15
4.38001e+15
4.251e+15
4.09703e+15
3.95681e+15
3.83403e+15
3.64689e+15
3.89365e+15
3.39115e+15
4.65856e+15
4.57799e+15
4.39483e+15
4.26536e+15
4.11081e+15
3.9695e+15
3.84711e+15
3.65536e+15
3.90855e+15
3.39861e+15
4.67312e+15
4.5927e+15
4.40894e+15
4.27903e+15
4.124e+15
3.98179e+15
3.85964e+15
3.66459e+15
3.92249e+15
3.40755e+15
4.68735e+15
4.607e+15
4.42265e+15
4.29231e+15
4.13687e+15
3.99385e+15
3.87188e+15
3.67425e+15
3.93592e+15
3.41734e+15
4.70143e+15
4.62111e+15
4.43617e+15
4.30538e+15
4.14959e+15
4.00579e+15
3.88397e+15
3.68414e+15
3.94911e+15
3.42762e+15
4.71545e+15
4.63516e+15
4.44961e+15
4.31838e+15
4.16226e+15
4.0177e+15
3.89604e+15
3.69413e+15
3.96224e+15
3.43815e+15
4.72947e+15
4.64919e+15
4.46307e+15
4.33133e+15
4.17494e+15
4.0296e+15
3.90813e+15
3.70415e+15
3.97542e+15
3.4488e+15
4.7435e+15
4.66324e+15
4.47656e+15
4.3443e+15
4.18766e+15
4.04151e+15
3.92027e+15
3.71415e+15
3.98871e+15
3.45947e+15
4.75756e+15
4.6773e+15
4.49011e+15
4.35729e+15
4.20044e+15
4.05345e+15
3.93248e+15
3.72411e+15
4.00214e+15
3.47011e+15
4.77167e+15
4.69135e+15
4.50372e+15
4.37027e+15
4.21326e+15
4.06542e+15
3.94476e+15
3.73403e+15
4.01574e+15
3.48068e+15
4.7858e+15
4.70536e+15
4.51741e+15
4.38325e+15
4.22613e+15
4.07741e+15
3.95709e+15
3.7439e+15
4.02949e+15
3.49115e+15
4.79987e+15
4.71925e+15
4.53113e+15
4.3962e+15
4.23903e+15
4.08941e+15
3.96947e+15
3.75376e+15
4.0434e+15
3.50152e+15
4.81381e+15
4.733e+15
4.54482e+15
4.40902e+15
4.25193e+15
4.10142e+15
3.98186e+15
3.76361e+15
4.05746e+15
3.51176e+15
4.82758e+15
4.74658e+15
4.55843e+15
4.42168e+15
4.26472e+15
4.11338e+15
3.99424e+15
3.77351e+15
4.07162e+15
3.52189e+15
4.84105e+15
4.75989e+15
4.5719e+15
4.43413e+15
4.27739e+15
4.12522e+15
4.00645e+15
3.78352e+15
4.08584e+15
3.53189e+15
4.8541e+15
4.77284e+15
4.58515e+15
4.44629e+15
4.28985e+15
4.13694e+15
4.01855e+15
3.79354e+15
4.10005e+15
3.54178e+15
4.86658e+15
4.78528e+15
4.59806e+15
4.45803e+15
4.302e+15
4.14844e+15
4.03045e+15
3.80351e+15
4.11429e+15
3.55158e+15
4.87829e+15
4.79703e+15
4.61049e+15
4.46922e+15
4.31372e+15
4.15964e+15
4.04205e+15
3.81332e+15
4.12869e+15
3.56121e+15
4.88899e+15
4.80782e+15
4.62223e+15
4.47965e+15
4.32482e+15
4.17042e+15
4.05322e+15
3.82291e+15
4.14335e+15
3.57056e+15
4.89833e+15
4.81733e+15
4.63303e+15
4.48908e+15
4.33507e+15
4.18061e+15
4.0638e+15
3.83223e+15
4.1583e+15
3.57959e+15
4.90591e+15
4.82509e+15
4.64253e+15
4.49717e+15
4.34416e+15
4.18997e+15
4.07359e+15
3.84119e+15
4.17357e+15
3.5883e+15
4.91123e+15
4.83056e+15
4.65025e+15
4.50352e+15
4.35171e+15
4.19819e+15
4.08233e+15
3.8497e+15
4.18925e+15
3.59672e+15
4.91365e+15
4.833e+15
4.65558e+15
4.50759e+15
4.35718e+15
4.2049e+15
4.08968e+15
3.85761e+15
4.20541e+15
3.60487e+15
4.91207e+15
4.83105e+15
4.65726e+15
4.5083e+15
4.35957e+15
4.20919e+15
4.09489e+15
3.86445e+15
4.22185e+15
3.6125e+15
4.90437e+15
4.82237e+15
4.65314e+15
4.50385e+15
4.35728e+15
4.20976e+15
4.0969e+15
3.86961e+15
4.23835e+15
3.61936e+15
4.89182e+15
4.80824e+15
4.64451e+15
4.49559e+15
4.35153e+15
4.20788e+15
4.09733e+15
3.87549e+15
4.25853e+15
3.6287e+15
4.88433e+15
4.79626e+15
4.63769e+15
4.48876e+15
4.34637e+15
4.2068e+15
4.09922e+15
3.8856e+15
4.28686e+15
3.64414e+15
4.83548e+15
4.73308e+15
4.58327e+15
4.44049e+15
4.30432e+15
4.17296e+15
4.07088e+15
3.86887e+15
4.28582e+15
3.62884e+15
4.60979e+15
4.50696e+15
4.38742e+15
4.26763e+15
4.14971e+15
4.03872e+15
3.95455e+15
3.78262e+15
4.21888e+15
3.55509e+15
5.07263e+15
4.95994e+15
4.82093e+15
4.66503e+15
4.51462e+15
4.38692e+15
4.30435e+15
4.17152e+15
4.72035e+15
3.99242e+15
1.29252e+16
1.24496e+16
1.20937e+16
1.18081e+16
1.16007e+16
1.15012e+16
1.15634e+16
1.15229e+16
1.34224e+16
1.16874e+16
1.00437e+16
9.41156e+15
8.92493e+15
8.53343e+15
8.22946e+15
7.99575e+15
7.81144e+15
7.39278e+15
7.63133e+15
5.13473e+15
8.63743e+15
7.98401e+15
7.55072e+15
7.28991e+15
7.20203e+15
7.22441e+15
7.25867e+15
7.16002e+15
7.72076e+15
5.6402e+15
6.69752e+15
6.01719e+15
5.62872e+15
5.46378e+15
5.34719e+15
5.40839e+15
5.8183e+15
6.23199e+15
7.18923e+15
5.54566e+15
4.90289e+15
4.36274e+15
4.13477e+15
4.07101e+15
4.2667e+15
4.68762e+15
5.29822e+15
5.87399e+15
6.9782e+15
5.53037e+15
3.56121e+15
3.18496e+15
3.00324e+15
3.10715e+15
3.63044e+15
4.29851e+15
5.03846e+15
5.68963e+15
6.81771e+15
5.47918e+15
3.04755e+15
2.75754e+15
2.31012e+15
2.90433e+15
3.57565e+15
4.26383e+15
4.99095e+15
5.67231e+15
6.63241e+15
5.47624e+15
3.02119e+15
2.79724e+15
2.80097e+15
3.1454e+15
3.71636e+15
4.34458e+15
5.01281e+15
5.69607e+15
6.39714e+15
5.49599e+15
3.20168e+15
3.12854e+15
3.19595e+15
3.45719e+15
3.92283e+15
4.4726e+15
5.06931e+15
5.71356e+15
6.1488e+15
5.53293e+15
3.39659e+15
3.40388e+15
3.50694e+15
3.73999e+15
4.12751e+15
4.60221e+15
5.12369e+15
5.69563e+15
5.89856e+15
5.57891e+15
3.5701e+15
3.64051e+15
3.7675e+15
3.98057e+15
4.30896e+15
4.71434e+15
5.15742e+15
5.63826e+15
5.65955e+15
5.63389e+15
3.6954e+15
3.81233e+15
3.9589e+15
4.161e+15
4.44419e+15
4.78656e+15
5.15046e+15
5.53682e+15
5.43213e+15
5.69255e+15
3.77981e+15
3.9425e+15
4.1071e+15
4.29392e+15
4.53639e+15
4.81924e+15
5.10564e+15
5.40651e+15
5.22915e+15
5.76511e+15
3.80083e+15
3.98141e+15
4.15336e+15
4.33779e+15
4.54883e+15
4.78048e+15
4.99845e+15
5.23417e+15
5.0361e+15
5.83594e+15
3.80736e+15
4.01341e+15
4.1917e+15
4.35744e+15
4.53372e+15
4.71864e+15
4.87954e+15
5.07634e+15
4.90225e+15
5.97007e+15
3.74318e+15
3.91174e+15
4.05669e+15
4.22312e+15
4.37952e+15
4.53613e+15
4.6643e+15
4.85911e+15
4.7594e+15
6.06486e+15
3.75798e+15
3.97153e+15
4.11835e+15
4.26865e+15
4.40361e+15
4.55085e+15
4.68308e+15
4.92893e+15
4.96136e+15
6.64445e+15
3.56903e+15
3.65102e+15
3.78879e+15
3.92996e+15
4.07112e+15
4.2334e+15
4.38333e+15
4.71034e+15
4.85426e+15
6.61888e+15
9.2301e+15
8.45149e+15
8.93868e+15
9.07982e+15
9.24759e+15
9.38698e+15
9.48884e+15
9.55467e+15
9.60509e+15
9.36146e+15
8.37728e+15
1.22624e+16
1.10726e+16
1.10642e+16
1.09053e+16
1.08327e+16
1.0806e+16
1.08336e+16
1.09449e+16
1.11864e+16
1.13422e+16
1.11371e+16
1.1844e+16
1.11246e+16
1.11397e+16
1.10704e+16
1.10538e+16
1.10434e+16
1.1038e+16
1.10557e+16
1.11011e+16
1.09811e+16
1.06928e+16
1.24229e+16
1.18159e+16
1.17146e+16
1.16005e+16
1.15534e+16
1.1538e+16
1.15522e+16
1.16083e+16
1.16974e+16
1.16578e+16
1.15652e+16
1.29301e+16
1.24229e+16
1.22722e+16
1.21519e+16
1.20965e+16
1.20714e+16
1.20722e+16
1.21123e+16
1.21819e+16
1.21632e+16
1.21678e+16
1.3416e+16
1.29539e+16
1.2754e+16
1.2611e+16
1.25369e+16
1.25023e+16
1.25008e+16
1.25401e+16
1.26022e+16
1.26085e+16
1.26831e+16
1.39343e+16
1.34916e+16
1.32562e+16
1.3095e+16
1.30048e+16
1.29597e+16
1.2952e+16
1.2985e+16
1.30432e+16
1.30708e+16
1.31799e+16
1.44653e+16
1.40285e+16
1.37628e+16
1.35836e+16
1.34779e+16
1.34225e+16
1.34088e+16
1.34376e+16
1.3494e+16
1.35393e+16
1.36684e+16
1.50052e+16
1.45694e+16
1.42771e+16
1.40807e+16
1.39613e+16
1.3897e+16
1.38776e+16
1.39011e+16
1.39548e+16
1.40119e+16
1.41511e+16
1.55495e+16
1.51149e+16
1.47975e+16
1.45798e+16
1.44414e+16
1.43646e+16
1.43388e+16
1.43603e+16
1.44146e+16
1.44821e+16
1.46287e+16
1.61159e+16
1.56919e+16
1.53606e+16
1.51279e+16
1.49732e+16
1.48839e+16
1.48507e+16
1.48693e+16
1.49246e+16
1.50008e+16
1.51533e+16
1.67417e+16
1.63375e+16
1.60045e+16
1.57669e+16
1.5602e+16
1.55025e+16
1.54616e+16
1.54759e+16
1.5532e+16
1.56154e+16
1.57713e+16
1.74455e+16
1.70677e+16
1.67463e+16
1.65196e+16
1.63603e+16
1.62625e+16
1.62198e+16
1.62283e+16
1.6281e+16
1.6366e+16
1.65192e+16
1.82487e+16
1.78904e+16
1.75766e+16
1.73587e+16
1.72049e+16
1.71097e+16
1.70657e+16
1.70684e+16
1.71157e+16
1.71998e+16
1.73479e+16
1.90678e+16
1.87184e+16
1.84037e+16
1.81866e+16
1.80321e+16
1.79361e+16
1.7891e+16
1.78921e+16
1.79382e+16
1.80226e+16
1.81655e+16
1.98996e+16
1.95565e+16
1.92402e+16
1.9023e+16
1.88672e+16
1.87695e+16
1.87224e+16
1.87211e+16
1.87652e+16
1.88484e+16
1.89853e+16
2.07457e+16
2.04088e+16
2.00909e+16
1.98742e+16
1.97179e+16
1.96194e+16
1.95711e+16
1.95681e+16
1.961e+16
1.96912e+16
1.98225e+16
2.16055e+16
2.12756e+16
2.09568e+16
2.07414e+16
2.05854e+16
2.04868e+16
2.04378e+16
2.04334e+16
2.04733e+16
2.05523e+16
2.06778e+16
2.24816e+16
2.21612e+16
2.18426e+16
2.16302e+16
2.14759e+16
2.13784e+16
2.13298e+16
2.13249e+16
2.13598e+16
2.14363e+16
2.15565e+16
2.33732e+16
2.30661e+16
2.27488e+16
2.25411e+16
2.23894e+16
2.22939e+16
2.22461e+16
2.22412e+16
2.2275e+16
2.23494e+16
2.24648e+16
2.42811e+16
2.39925e+16
2.36784e+16
2.34789e+16
2.3333e+16
2.3242e+16
2.31972e+16
2.31935e+16
2.32268e+16
2.32992e+16
2.34102e+16
2.52097e+16
2.49439e+16
2.46327e+16
2.44428e+16
2.43029e+16
2.42168e+16
2.41756e+16
2.41747e+16
2.421e+16
2.42824e+16
2.43907e+16
2.61762e+16
2.5937e+16
2.56318e+16
2.54588e+16
2.53324e+16
2.52577e+16
2.52242e+16
2.52271e+16
2.52618e+16
2.53314e+16
2.54352e+16
2.71598e+16
2.69362e+16
2.66246e+16
2.64594e+16
2.6338e+16
2.62678e+16
2.62363e+16
2.62385e+16
2.62701e+16
2.63347e+16
2.64327e+16
2.80456e+16
2.78276e+16
2.75005e+16
2.73352e+16
2.72134e+16
2.7145e+16
2.71156e+16
2.71199e+16
2.71531e+16
2.72169e+16
2.73115e+16
2.8867e+16
2.8662e+16
2.8318e+16
2.8151e+16
2.80268e+16
2.79585e+16
2.793e+16
2.79359e+16
2.79707e+16
2.80347e+16
2.81275e+16
2.96557e+16
2.94846e+16
2.91256e+16
2.89589e+16
2.88316e+16
2.87618e+16
2.87327e+16
2.8739e+16
2.87752e+16
2.88402e+16
2.89318e+16
3.04444e+16
3.0339e+16
2.99723e+16
2.98161e+16
2.96923e+16
2.96256e+16
2.95983e+16
2.96057e+16
2.96422e+16
2.97066e+16
2.97962e+16
3.12572e+16
3.12532e+16
3.08846e+16
3.07487e+16
3.06347e+16
3.05754e+16
3.05522e+16
3.05613e+16
3.05975e+16
3.06598e+16
3.07463e+16
3.20667e+16
3.22034e+16
3.18373e+16
3.17319e+16
3.1634e+16
3.1587e+16
3.15722e+16
3.15868e+16
3.16256e+16
3.16856e+16
3.17684e+16
3.28659e+16
3.31886e+16
3.28285e+16
3.27671e+16
3.26919e+16
3.26577e+16
3.26477e+16
3.2663e+16
3.27014e+16
3.27598e+16
3.28391e+16
3.36642e+16
3.41946e+16
3.38162e+16
3.38252e+16
3.38274e+16
3.38765e+16
3.39412e+16
3.40142e+16
3.40884e+16
3.41571e+16
3.42316e+16
3.48133e+16
3.55726e+16
3.49185e+16
3.46725e+16
3.43924e+16
3.41818e+16
3.40276e+16
3.39338e+16
3.38988e+16
3.39141e+16
3.39614e+16
3.54434e+16
3.77287e+16
3.80317e+16
3.87356e+16
3.92378e+16
3.96688e+16
4.00189e+16
4.03032e+16
4.05322e+16
4.07058e+16
4.08107e+16
3.3146e+16
3.28946e+16
3.10991e+16
3.04227e+16
2.98724e+16
2.94974e+16
2.9225e+16
2.90319e+16
2.8902e+16
2.88161e+16
2.87333e+16
1.85209e+16
1.93662e+16
2.02591e+16
2.08576e+16
2.12553e+16
2.15353e+16
2.17141e+16
2.17892e+16
2.17729e+16
2.16673e+16
2.145e+16
2.10939e+16
2.05608e+16
1.99386e+16
1.92786e+16
1.85809e+16
1.78758e+16
1.7208e+16
1.64653e+16
1.58889e+16
1.49496e+16
1.41276e+16
1.35148e+16
1.28887e+16
1.23801e+16
1.195e+16
1.15752e+16
1.12172e+16
1.08525e+16
1.04677e+16
1.00559e+16
9.61677e+15
9.09135e+15
8.54738e+15
8.17889e+15
2.4308e+16
2.37334e+16
2.34259e+16
2.31285e+16
2.28339e+16
2.25435e+16
2.22479e+16
2.19314e+16
2.15972e+16
2.12267e+16
2.07847e+16
2.02411e+16
1.95739e+16
1.89027e+16
1.82661e+16
1.76393e+16
1.70354e+16
1.64661e+16
1.58644e+16
1.53578e+16
1.46929e+16
1.41655e+16
1.37468e+16
1.33074e+16
1.29155e+16
1.25639e+16
1.22609e+16
1.19942e+16
1.17555e+16
1.15501e+16
1.1392e+16
1.13031e+16
1.12451e+16
1.12291e+16
1.14106e+16
9.41291e+15
9.46919e+15
9.37375e+15
9.23963e+15
9.09183e+15
8.92805e+15
8.75331e+15
8.56973e+15
8.38276e+15
8.17747e+15
7.93675e+15
7.66695e+15
7.39652e+15
7.17677e+15
6.99068e+15
6.8094e+15
6.6292e+15
6.44781e+15
6.25762e+15
6.0885e+15
5.91487e+15
5.76536e+15
5.65866e+15
5.58033e+15
5.51843e+15
5.45252e+15
5.3829e+15
5.31444e+15
5.24541e+15
5.17216e+15
5.09458e+15
5.03127e+15
4.9461e+15
4.79804e+15
4.6567e+15
9.08733e+15
8.98868e+15
8.84473e+15
8.71072e+15
8.58392e+15
8.45806e+15
8.3323e+15
8.20317e+15
8.07609e+15
7.9499e+15
7.81717e+15
7.6737e+15
7.51486e+15
7.36074e+15
7.21213e+15
7.06155e+15
6.91125e+15
6.76191e+15
6.61314e+15
6.46905e+15
6.30212e+15
6.13322e+15
5.98736e+15
5.85457e+15
5.73339e+15
5.6192e+15
5.513e+15
5.41138e+15
5.30966e+15
5.20775e+15
5.10418e+15
5.00696e+15
4.89675e+15
4.77937e+15
4.71068e+15
8.53939e+15
8.44393e+15
8.284e+15
8.14908e+15
8.02378e+15
7.89938e+15
7.77433e+15
7.64714e+15
7.52268e+15
7.39573e+15
7.25892e+15
7.11105e+15
6.95538e+15
6.81279e+15
6.67581e+15
6.53703e+15
6.39761e+15
6.25783e+15
6.11769e+15
5.97912e+15
5.83564e+15
5.69287e+15
5.57052e+15
5.46934e+15
5.37975e+15
5.2944e+15
5.21038e+15
5.12838e+15
5.04611e+15
4.96383e+15
4.88062e+15
4.81001e+15
4.74086e+15
4.63596e+15
4.5183e+15
8.62881e+15
8.50501e+15
8.34716e+15
8.21933e+15
8.09707e+15
7.97353e+15
7.84759e+15
7.72007e+15
7.5965e+15
7.47193e+15
7.33983e+15
7.19741e+15
7.04702e+15
6.90676e+15
6.76934e+15
6.6306e+15
6.49148e+15
6.35249e+15
6.21443e+15
6.07754e+15
5.94045e+15
5.80112e+15
5.67982e+15
5.58083e+15
5.49306e+15
5.40996e+15
5.32722e+15
5.24591e+15
5.16403e+15
5.08178e+15
4.99703e+15
4.92402e+15
4.86479e+15
4.77428e+15
4.64873e+15
8.57983e+15
8.44228e+15
8.29211e+15
8.16984e+15
8.04929e+15
7.92607e+15
7.79983e+15
7.67362e+15
7.55258e+15
7.43104e+15
7.30327e+15
7.16584e+15
7.02157e+15
6.88596e+15
6.75141e+15
6.6158e+15
6.4797e+15
6.3438e+15
6.20892e+15
6.07488e+15
5.9421e+15
5.80646e+15
5.68624e+15
5.58877e+15
5.50295e+15
5.42227e+15
5.34106e+15
5.26086e+15
5.18008e+15
5.09908e+15
5.01409e+15
4.93875e+15
4.88848e+15
4.81819e+15
4.69351e+15
8.57189e+15
8.42931e+15
8.28927e+15
8.16966e+15
8.04919e+15
7.92518e+15
7.7979e+15
7.67208e+15
7.55226e+15
7.43216e+15
7.30673e+15
7.17172e+15
7.03034e+15
6.89651e+15
6.76259e+15
6.62804e+15
6.49303e+15
6.35847e+15
6.22502e+15
6.09263e+15
5.96142e+15
5.82883e+15
5.70953e+15
5.61289e+15
5.5281e+15
5.44878e+15
5.36839e+15
5.28873e+15
5.20843e+15
5.12814e+15
5.04281e+15
4.96428e+15
4.9166e+15
4.86079e+15
4.74395e+15
8.56536e+15
8.42348e+15
8.29185e+15
8.17255e+15
8.05174e+15
7.92681e+15
7.79868e+15
7.67328e+15
7.55438e+15
7.43531e+15
7.31153e+15
7.17818e+15
7.03882e+15
6.90623e+15
6.77277e+15
6.63899e+15
6.50474e+15
6.37109e+15
6.23858e+15
6.10719e+15
5.97681e+15
5.84555e+15
5.72737e+15
5.63113e+15
5.54677e+15
5.46817e+15
5.38818e+15
5.30876e+15
5.22866e+15
5.14882e+15
5.06341e+15
4.98259e+15
4.9353e+15
4.8887e+15
4.78097e+15
8.56765e+15
8.42907e+15
8.30357e+15
8.1834e+15
8.0622e+15
7.93637e+15
7.80747e+15
7.68228e+15
7.56389e+15
7.44535e+15
7.32255e+15
7.19011e+15
7.05192e+15
6.91991e+15
6.78653e+15
6.65307e+15
6.51914e+15
6.38592e+15
6.25388e+15
6.12296e+15
5.99306e+15
5.86216e+15
5.74476e+15
5.64897e+15
5.56477e+15
5.48648e+15
5.40665e+15
5.32731e+15
5.24724e+15
5.16761e+15
5.08212e+15
4.99981e+15
4.95217e+15
4.91079e+15
4.81035e+15
8.57587e+15
8.44117e+15
8.31979e+15
8.19836e+15
8.0768e+15
7.95014e+15
7.82057e+15
7.69545e+15
7.57731e+15
7.45901e+15
7.33679e+15
7.20481e+15
7.06727e+15
6.93553e+15
6.80202e+15
6.66863e+15
6.53478e+15
6.40171e+15
6.26985e+15
6.1391e+15
6.0094e+15
5.87859e+15
5.76132e+15
5.66589e+15
5.58185e+15
5.50364e+15
5.42381e+15
5.34444e+15
5.26432e+15
5.18473e+15
5.09914e+15
5.01588e+15
4.96783e+15
4.92933e+15
4.83364e+15
8.58907e+15
8.45782e+15
8.33912e+15
8.2164e+15
8.09452e+15
7.96711e+15
7.83693e+15
7.71176e+15
7.59366e+15
7.4754e+15
7.35346e+15
7.22165e+15
7.08442e+15
6.95269e+15
6.81895e+15
6.68547e+15
6.55153e+15
6.41841e+15
6.28652e+15
6.15575e+15
6.02603e+15
5.89517e+15
5.77789e+15
5.68242e+15
5.59843e+15
5.52031e+15
5.44041e+15
5.36094e+15
5.28068e+15
5.20104e+15
5.11531e+15
5.03142e+15
4.98305e+15
4.94616e+15
4.85311e+15
8.60601e+15
8.47746e+15
8.36044e+15
8.23653e+15
8.11436e+15
7.98628e+15
7.85554e+15
7.7302e+15
7.61203e+15
7.49366e+15
7.37178e+15
7.23998e+15
7.10281e+15
6.97096e+15
6.8369e+15
6.70322e+15
6.56906e+15
6.43579e+15
6.30374e+15
6.17284e+15
6.04296e+15
5.91193e+15
5.79455e+15
5.69899e+15
5.61486e+15
5.53662e+15
5.45668e+15
5.37712e+15
5.29669e+15
5.21693e+15
5.13101e+15
5.04667e+15
4.99809e+15
4.96213e+15
4.8703e+15
8.62576e+15
8.4991e+15
8.38309e+15
8.25819e+15
8.1357e+15
8.00702e+15
7.87575e+15
7.75017e+15
7.63184e+15
7.51326e+15
7.39131e+15
7.25936e+15
7.12211e+15
6.99005e+15
6.85562e+15
6.72167e+15
6.58723e+15
6.45372e+15
6.32143e+15
6.19029e+15
6.0602e+15
5.92891e+15
5.81134e+15
5.71565e+15
5.63137e+15
5.55297e+15
5.47282e+15
5.39311e+15
5.31257e+15
5.23266e+15
5.14651e+15
5.0618e+15
5.01308e+15
4.9777e+15
4.8863e+15
8.64756e+15
8.5221e+15
8.40667e+15
8.28092e+15
8.15809e+15
8.02886e+15
7.89708e+15
7.77123e+15
7.65264e+15
7.53381e+15
7.4117e+15
7.27951e+15
7.14206e+15
7.00974e+15
6.87493e+15
6.74066e+15
6.60589e+15
6.47208e+15
6.3395e+15
6.20807e+15
6.0777e+15
5.94611e+15
5.82831e+15
5.73244e+15
5.64797e+15
5.56939e+15
5.48903e+15
5.40912e+15
5.3284e+15
5.24834e+15
5.16196e+15
5.07691e+15
5.02809e+15
4.99312e+15
4.90177e+15
8.67084e+15
8.54607e+15
8.43089e+15
8.30441e+15
8.18123e+15
8.05148e+15
7.91921e+15
7.79303e+15
7.67416e+15
7.55504e+15
7.43268e+15
7.3002e+15
7.16249e+15
7.02986e+15
6.89466e+15
6.76003e+15
6.62491e+15
6.49076e+15
6.35785e+15
6.22613e+15
6.09543e+15
5.96351e+15
5.84545e+15
5.74936e+15
5.66468e+15
5.58591e+15
5.50534e+15
5.42523e+15
5.34429e+15
5.26404e+15
5.17744e+15
5.09202e+15
5.04315e+15
5.00852e+15
4.91708e+15
8.69513e+15
8.5707e+15
8.45553e+15
8.32847e+15
8.20489e+15
8.07466e+15
7.9419e+15
7.81536e+15
7.69617e+15
7.57673e+15
7.4541e+15
7.32129e+15
7.18326e+15
7.05028e+15
6.91468e+15
6.77969e+15
6.64419e+15
6.5097e+15
6.37643e+15
6.24437e+15
6.11334e+15
5.98107e+15
5.86271e+15
5.76641e+15
5.6815e+15
5.60253e+15
5.52173e+15
5.4414e+15
5.36026e+15
5.27981e+15
5.19296e+15
5.10719e+15
5.05824e+15
5.02391e+15
4.93244e+15
8.72007e+15
8.59579e+15
8.48045e+15
8.35289e+15
8.22888e+15
8.09821e+15
7.96495e+15
7.83805e+15
7.71851e+15
7.59874e+15
7.47578e+15
7.34263e+15
7.20426e+15
7.07091e+15
6.93492e+15
6.79953e+15
6.66367e+15
6.5288e+15
6.39518e+15
6.26276e+15
6.13138e+15
5.99874e+15
5.88006e+15
5.78352e+15
5.6984e+15
5.61922e+15
5.53818e+15
5.45763e+15
5.37629e+15
5.29563e+15
5.20852e+15
5.12241e+15
5.07338e+15
5.03931e+15
4.94789e+15
8.74538e+15
8.62118e+15
8.50554e+15
8.37754e+15
8.25307e+15
8.12195e+15
7.9882e+15
7.86091e+15
7.74103e+15
7.62092e+15
7.49762e+15
7.36411e+15
7.22537e+15
7.09167e+15
6.95526e+15
6.81949e+15
6.68324e+15
6.548e+15
6.41401e+15
6.28122e+15
6.14948e+15
6.01647e+15
5.89747e+15
5.80069e+15
5.71535e+15
5.63594e+15
5.55468e+15
5.47389e+15
5.39233e+15
5.31147e+15
5.22411e+15
5.13768e+15
5.08855e+15
5.05467e+15
4.96342e+15
8.77077e+15
8.64678e+15
8.53067e+15
8.40227e+15
8.27735e+15
8.14575e+15
8.01151e+15
7.88382e+15
7.76359e+15
7.64314e+15
7.5195e+15
7.38564e+15
7.24651e+15
7.11244e+15
6.97563e+15
6.83946e+15
6.70281e+15
6.56718e+15
6.43282e+15
6.29968e+15
6.16757e+15
6.0342e+15
5.91487e+15
5.81784e+15
5.73227e+15
5.65265e+15
5.57117e+15
5.49014e+15
5.40834e+15
5.32728e+15
5.23966e+15
5.15294e+15
5.1037e+15
5.06991e+15
4.97891e+15
8.79598e+15
8.67246e+15
8.55572e+15
8.42697e+15
8.30157e+15
8.16949e+15
8.03473e+15
7.90664e+15
7.78607e+15
7.66527e+15
7.5413e+15
7.40709e+15
7.26759e+15
7.13314e+15
6.99591e+15
6.85933e+15
6.7223e+15
6.58628e+15
6.45155e+15
6.31804e+15
6.18557e+15
6.05184e+15
5.93218e+15
5.83492e+15
5.74912e+15
5.66928e+15
5.58757e+15
5.50629e+15
5.42429e+15
5.34301e+15
5.25514e+15
5.16814e+15
5.11876e+15
5.08499e+15
4.99436e+15
8.82075e+15
8.69813e+15
8.58062e+15
8.45154e+15
8.32561e+15
8.19305e+15
8.05775e+15
7.92924e+15
7.80831e+15
7.68721e+15
7.56291e+15
7.42837e+15
7.2885e+15
7.15367e+15
7.01602e+15
6.87903e+15
6.74159e+15
6.60519e+15
6.47008e+15
6.33623e+15
6.20338e+15
6.06929e+15
5.94933e+15
5.85184e+15
5.76581e+15
5.68575e+15
5.60381e+15
5.52229e+15
5.44009e+15
5.35859e+15
5.27047e+15
5.18321e+15
5.1337e+15
5.09991e+15
5.00978e+15
8.84482e+15
8.72365e+15
8.60523e+15
8.47583e+15
8.34935e+15
8.21625e+15
8.08039e+15
7.95146e+15
7.83019e+15
7.7088e+15
7.58421e+15
7.44933e+15
7.30911e+15
7.17392e+15
7.03585e+15
6.89841e+15
6.76058e+15
6.62379e+15
6.4883e+15
6.35411e+15
6.22089e+15
6.08646e+15
5.9662e+15
5.86847e+15
5.78222e+15
5.70194e+15
5.61979e+15
5.53803e+15
5.45563e+15
5.37392e+15
5.28555e+15
5.19807e+15
5.14841e+15
5.11459e+15
5.02507e+15
8.86786e+15
8.74894e+15
8.62939e+15
8.49968e+15
8.37264e+15
8.23893e+15
8.10248e+15
7.97313e+15
7.85154e+15
7.72989e+15
7.60502e+15
7.46987e+15
7.32931e+15
7.19374e+15
7.05523e+15
6.91736e+15
6.77913e+15
6.64195e+15
6.50609e+15
6.37154e+15
6.23797e+15
6.1032e+15
5.98265e+15
5.88471e+15
5.79825e+15
5.71775e+15
5.63538e+15
5.55338e+15
5.47079e+15
5.38887e+15
5.30026e+15
5.21259e+15
5.16282e+15
5.12891e+15
5.0401e+15
8.8895e+15
8.77391e+15
8.65296e+15
8.52293e+15
8.39531e+15
8.26091e+15
8.12382e+15
7.99405e+15
7.87217e+15
7.7503e+15
7.62519e+15
7.48982e+15
7.34895e+15
7.21301e+15
7.07403e+15
6.93571e+15
6.79705e+15
6.65948e+15
6.52327e+15
6.38836e+15
6.25445e+15
6.11935e+15
5.99854e+15
5.90041e+15
5.81373e+15
5.73301e+15
5.65042e+15
5.56819e+15
5.48542e+15
5.4033e+15
5.31447e+15
5.22665e+15
5.17678e+15
5.14275e+15
5.05473e+15
8.90935e+15
8.79845e+15
8.67579e+15
8.54541e+15
8.41716e+15
8.28199e+15
8.14419e+15
8.01399e+15
7.89187e+15
7.76982e+15
7.64453e+15
7.50898e+15
7.36786e+15
7.23153e+15
7.09206e+15
6.95324e+15
6.81415e+15
6.67619e+15
6.5396e+15
6.40437e+15
6.27012e+15
6.13469e+15
6.01364e+15
5.91535e+15
5.82846e+15
5.74751e+15
5.66471e+15
5.58226e+15
5.49933e+15
5.41703e+15
5.32796e+15
5.24005e+15
5.19011e+15
5.15595e+15
5.0688e+15
8.92695e+15
8.82249e+15
8.69767e+15
8.56692e+15
8.43799e+15
8.30192e+15
8.16332e+15
8.03274e+15
7.91038e+15
7.78823e+15