/*--------------------------------*- C++ -*----------------------------------*\
| =========                 |                                                 |
| \\      /  F ield         | OpenFOAM: The Open Source CFD Toolbox           |
|  \\    /   O peration     | Version:  2406                                  |
|   \\  /    A nd           | Website:  www.openfoam.com                      |
|    \\/     M anipulation  |                                                 |
\*---------------------------------------------------------------------------*/
FoamFile
{
    version     2.0;
    format      ascii;
    arch        "LSB;label=32;scalar=64";
    class       volScalarField;
    location    "0/neutroRegion";
    object      precStar1;
}
// * * * * * * * * * * * * * * * * * * * * * * * * * * * * * * * * * * * * * //

dimensions      [0 -3 0 0 0 0 0];

internalField   nonuniform List<scalar> 
8595
(
1.55068e+17
1.32831e+17
1.06238e+17
1.00189e+17
9.47799e+16
9.24842e+16
9.1895e+16
9.14605e+16
9.10636e+16
9.07276e+16
9.03131e+16
9.01508e+16
8.76658e+16
9.65368e+16
8.57938e+16
9.94585e+16
8.14432e+16
1.05597e+17
1.01389e+17
9.04011e+16
9.33059e+16
9.51771e+16
9.54308e+16
9.55963e+16
9.58485e+16
9.60472e+16
9.61821e+16
9.6278e+16
9.63451e+16
9.63877e+16
9.64104e+16
9.64177e+16
9.64132e+16
9.63997e+16
9.63797e+16
9.63552e+16
9.63282e+16
9.62998e+16
9.62717e+16
9.62455e+16
9.62223e+16
9.62047e+16
9.61953e+16
9.61977e+16
9.62173e+16
9.62624e+16
9.63455e+16
9.64862e+16
9.67121e+16
9.70846e+16
9.76177e+16
9.87842e+16
9.92074e+16
1.0746e+17
1.21811e+17
1.43291e+17
1.35041e+17
1.15192e+17
1.08999e+17
1.02136e+17
1.08726e+17
1.1317e+17
1.1751e+17
1.18033e+17
1.18307e+17
1.18342e+17
1.18169e+17
1.17459e+17
1.18224e+17
1.16446e+17
1.18733e+17
1.14407e+17
1.20433e+17
1.08796e+17
1.33663e+17
1.30247e+17
1.15285e+17
1.17514e+17
1.18711e+17
1.18374e+17
1.18041e+17
1.1781e+17
1.17566e+17
1.17311e+17
1.17077e+17
1.16871e+17
1.16692e+17
1.16538e+17
1.16406e+17
1.16292e+17
1.16194e+17
1.16109e+17
1.16033e+17
1.15965e+17
1.15902e+17
1.15841e+17
1.15781e+17
1.1572e+17
1.15655e+17
1.15583e+17
1.15498e+17
1.15397e+17
1.15269e+17
1.15104e+17
1.14883e+17
1.14576e+17
1.14159e+17
1.13501e+17
1.129e+17
1.10431e+17
1.14605e+17
1.16251e+17
1.19541e+17
1.03037e+17
1.15421e+17
1.12712e+17
1.07723e+17
1.11479e+17
1.09802e+17
1.08841e+17
1.09248e+17
1.09595e+17
1.09633e+17
1.09381e+17
1.08734e+17
1.09022e+17
1.07897e+17
1.08651e+17
1.06362e+17
1.10053e+17
1.02516e+17
1.18304e+17
1.15538e+17
1.02031e+17
1.03807e+17
1.04668e+17
1.04345e+17
1.04186e+17
1.04277e+17
1.04411e+17
1.04536e+17
1.0465e+17
1.04751e+17
1.04832e+17
1.04895e+17
1.0494e+17
1.04971e+17
1.04988e+17
1.04996e+17
1.04995e+17
1.04988e+17
1.04976e+17
1.04963e+17
1.04948e+17
1.04935e+17
1.04925e+17
1.04921e+17
1.04928e+17
1.04949e+17
1.04992e+17
1.05067e+17
1.05187e+17
1.0537e+17
1.05652e+17
1.0599e+17
1.06762e+17
1.06182e+17
1.12578e+17
1.16805e+17
1.21146e+17
1.00375e+17
1.13107e+17
1.11907e+17
1.07096e+17
1.10498e+17
1.08962e+17
1.10602e+17
1.11693e+17
1.12208e+17
1.12393e+17
1.12416e+17
1.11966e+17
1.11764e+17
1.11029e+17
1.1129e+17
1.09591e+17
1.11944e+17
1.05597e+17
1.18212e+17
1.16638e+17
1.03674e+17
1.06179e+17
1.07341e+17
1.07177e+17
1.0707e+17
1.0706e+17
1.07024e+17
1.06959e+17
1.06889e+17
1.06821e+17
1.06756e+17
1.06695e+17
1.06638e+17
1.06584e+17
1.06534e+17
1.06488e+17
1.06444e+17
1.06402e+17
1.06361e+17
1.06322e+17
1.06284e+17
1.06246e+17
1.06208e+17
1.06169e+17
1.06129e+17
1.06086e+17
1.0604e+17
1.0599e+17
1.05936e+17
1.05875e+17
1.05826e+17
1.05727e+17
1.05974e+17
1.04817e+17
1.10793e+17
1.14901e+17
1.19435e+17
9.70859e+16
1.13312e+17
1.11732e+17
1.06631e+17
1.1044e+17
1.0609e+17
1.08718e+17
1.11005e+17
1.12002e+17
1.12179e+17
1.1197e+17
1.11462e+17
1.11069e+17
1.10367e+17
1.10304e+17
1.08899e+17
1.10516e+17
1.04901e+17
1.148e+17
1.14465e+17
1.01305e+17
1.03724e+17
1.04713e+17
1.04395e+17
1.04214e+17
1.04216e+17
1.04231e+17
1.04234e+17
1.04237e+17
1.0424e+17
1.04238e+17
1.04232e+17
1.04222e+17
1.04208e+17
1.0419e+17
1.0417e+17
1.04147e+17
1.04122e+17
1.04096e+17
1.0407e+17
1.04043e+17
1.04017e+17
1.03992e+17
1.03969e+17
1.0395e+17
1.03937e+17
1.03931e+17
1.03936e+17
1.03957e+17
1.03998e+17
1.04081e+17
1.04139e+17
1.04564e+17
1.03532e+17
1.09645e+17
1.13596e+17
1.18455e+17
9.50749e+16
1.13854e+17
1.11981e+17
1.05698e+17
1.10509e+17
1.07362e+17
1.0959e+17
1.11544e+17
1.12356e+17
1.12331e+17
1.11868e+17
1.11177e+17
1.10571e+17
1.09819e+17
1.09528e+17
1.08263e+17
1.09358e+17
1.04178e+17
1.12163e+17
1.13106e+17
9.97499e+16
1.02372e+17
1.03487e+17
1.03196e+17
1.0304e+17
1.03051e+17
1.03058e+17
1.03045e+17
1.03029e+17
1.03012e+17
1.02992e+17
1.0297e+17
1.02944e+17
1.02917e+17
1.02888e+17
1.02858e+17
1.02827e+17
1.02795e+17
1.02764e+17
1.02732e+17
1.02701e+17
1.02671e+17
1.02641e+17
1.02614e+17
1.0259e+17
1.02569e+17
1.02554e+17
1.02547e+17
1.02553e+17
1.02576e+17
1.0264e+17
1.02683e+17
1.0312e+17
1.02103e+17
1.08335e+17
1.1223e+17
1.17608e+17
9.35465e+16
1.15657e+17
1.12661e+17
1.05791e+17
1.08606e+17
1.09476e+17
1.11985e+17
1.13156e+17
1.13137e+17
1.12432e+17
1.1148e+17
1.10483e+17
1.09645e+17
1.08803e+17
1.08347e+17
1.0716e+17
1.07899e+17
1.03046e+17
1.0965e+17
1.11825e+17
9.81898e+16
1.00959e+17
1.0217e+17
1.0187e+17
1.01726e+17
1.01762e+17
1.01786e+17
1.01785e+17
1.01779e+17
1.01769e+17
1.01755e+17
1.01736e+17
1.01714e+17
1.0169e+17
1.01663e+17
1.01635e+17
1.01606e+17
1.01577e+17
1.01547e+17
1.01517e+17
1.01488e+17
1.0146e+17
1.01433e+17
1.01408e+17
1.01387e+17
1.0137e+17
1.01359e+17
1.01358e+17
1.01371e+17
1.01402e+17
1.01477e+17
1.01528e+17
1.01987e+17
1.00959e+17
1.07294e+17
1.11026e+17
1.16927e+17
9.22444e+16
1.12668e+17
1.10837e+17
1.07462e+17
1.11056e+17
1.13959e+17
1.15104e+17
1.14569e+17
1.13231e+17
1.11669e+17
1.10209e+17
1.08946e+17
1.07959e+17
1.07084e+17
1.06558e+17
1.05463e+17
1.05996e+17
1.0146e+17
1.07172e+17
1.10535e+17
9.66327e+16
9.95308e+16
1.00751e+17
1.00319e+17
1.00107e+17
1.00116e+17
1.00129e+17
1.0013e+17
1.00133e+17
1.00136e+17
1.00135e+17
1.0013e+17
1.0012e+17
1.00105e+17
1.00087e+17
1.00067e+17
1.00043e+17
1.00018e+17
9.99917e+16
9.99647e+16
9.99375e+16
9.99109e+16
9.98856e+16
9.98621e+16
9.98419e+16
9.98264e+16
9.98179e+16
9.98195e+16
9.98362e+16
9.98718e+16
9.99535e+16
1.0001e+17
1.00488e+17
9.94429e+16
1.05886e+17
1.09378e+17
1.16131e+17
9.09721e+16
1.41289e+17
1.26763e+17
1.23421e+17
1.22529e+17
1.19908e+17
1.16841e+17
1.13857e+17
1.11264e+17
1.09157e+17
1.07529e+17
1.06299e+17
1.05422e+17
1.04708e+17
1.04278e+17
1.03324e+17
1.03742e+17
9.96265e+16
1.05026e+17
1.09291e+17
9.54365e+16
9.88341e+16
1.00439e+17
1.00198e+17
1.00085e+17
1.00124e+17
1.00123e+17
1.00088e+17
1.00049e+17
1.0001e+17
9.99699e+16
9.99302e+16
9.98912e+16
9.98537e+16
9.98172e+16
9.97817e+16
9.97473e+16
9.97138e+16
9.96813e+16
9.965e+16
9.96196e+16
9.95906e+16
9.95631e+16
9.95376e+16
9.95148e+16
9.94959e+16
9.94826e+16
9.94776e+16
9.94862e+16
9.95127e+16
9.95883e+16
9.96423e+16
1.00158e+17
9.91043e+16
1.05855e+17
1.09119e+17
1.16316e+17
8.99439e+16
1.71297e+17
1.31206e+17
1.24742e+17
1.19788e+17
1.15262e+17
1.11526e+17
1.08535e+17
1.0621e+17
1.04435e+17
1.03093e+17
1.02075e+17
1.01334e+17
1.00749e+17
1.00466e+17
9.99145e+16
1.00763e+17
9.79293e+16
1.03866e+17
1.07702e+17
9.35159e+16
9.63746e+16
9.75089e+16
9.70913e+16
9.69828e+16
9.70928e+16
9.71928e+16
9.7268e+16
9.73314e+16
9.73812e+16
9.74161e+16
9.74374e+16
9.7447e+16
9.74472e+16
9.74393e+16
9.74252e+16
9.74066e+16
9.73846e+16
9.73601e+16
9.73344e+16
9.73086e+16
9.72835e+16
9.72605e+16
9.72409e+16
9.72264e+16
9.72193e+16
9.72231e+16
9.72418e+16
9.72816e+16
9.73463e+16
9.74646e+16
9.75536e+16
9.80954e+16
9.70011e+16
1.03681e+17
1.06736e+17
1.15673e+17
9.01705e+16
6.88593e+16
6.78472e+16
6.86926e+16
6.98531e+16
7.10618e+16
7.25933e+16
7.46972e+16
7.81803e+16
8.14962e+16
1.0882e+17
9.00031e+16
8.92325e+16
8.78296e+16
8.78495e+16
8.78905e+16
8.84219e+16
8.94921e+16
9.18494e+16
9.29416e+16
1.16962e+17
8.3424e+16
8.46968e+16
8.35393e+16
8.39077e+16
8.38205e+16
8.41161e+16
8.47592e+16
8.66555e+16
8.89894e+16
9.90731e+16
8.35338e+16
8.41829e+16
8.25799e+16
8.24505e+16
8.19463e+16
8.18354e+16
8.18453e+16
8.2862e+16
8.68148e+16
8.5529e+16
7.83339e+16
7.90536e+16
7.79122e+16
7.79111e+16
7.75137e+16
7.74629e+16
7.74814e+16
7.79017e+16
8.32186e+16
7.88778e+16
7.9562e+16
8.01765e+16
7.90294e+16
7.89636e+16
7.85024e+16
7.83889e+16
7.83929e+16
7.82282e+16
8.47527e+16
7.86312e+16
7.93653e+16
7.99783e+16
7.88774e+16
7.88081e+16
7.83396e+16
7.82035e+16
7.82615e+16
7.76726e+16
8.49634e+16
7.78044e+16
7.94443e+16
8.00585e+16
7.89639e+16
7.88859e+16
7.84058e+16
7.82446e+16
7.8351e+16
7.74641e+16
8.52644e+16
7.74786e+16
7.94582e+16
8.00822e+16
7.89896e+16
7.8909e+16
7.84245e+16
7.82459e+16
7.83924e+16
7.73102e+16
8.54326e+16
7.72712e+16
7.94809e+16
8.01137e+16
7.90194e+16
7.89373e+16
7.84508e+16
7.82594e+16
7.8435e+16
7.72262e+16
8.55544e+16
7.71677e+16
7.95014e+16
8.01409e+16
7.90447e+16
7.89617e+16
7.84749e+16
7.8274e+16
7.84708e+16
7.71792e+16
8.56413e+16
7.71191e+16
7.95224e+16
8.0167e+16
7.90689e+16
7.89852e+16
7.84992e+16
7.82908e+16
7.85034e+16
7.71554e+16
8.57093e+16
7.7104e+16
7.95434e+16
8.01922e+16
7.90925e+16
7.90078e+16
7.85233e+16
7.83085e+16
7.8534e+16
7.71444e+16
8.57668e+16
7.7108e+16
7.95645e+16
8.02169e+16
7.91158e+16
7.903e+16
7.85477e+16
7.83266e+16
7.85639e+16
7.71398e+16
8.58193e+16
7.71225e+16
7.95855e+16
8.02416e+16
7.91391e+16
7.90519e+16
7.85723e+16
7.83451e+16
7.85938e+16
7.71379e+16
8.587e+16
7.7142e+16
7.96064e+16
8.02661e+16
7.91626e+16
7.90734e+16
7.85974e+16
7.83635e+16
7.86239e+16
7.71365e+16
8.59209e+16
7.71636e+16
7.9627e+16
8.02905e+16
7.91865e+16
7.90946e+16
7.86228e+16
7.83815e+16
7.86545e+16
7.7134e+16
8.59734e+16
7.7185e+16
7.96476e+16
8.03144e+16
7.92108e+16
7.91157e+16
7.86485e+16
7.83995e+16
7.86857e+16
7.71301e+16
8.6028e+16
7.72049e+16
7.96685e+16
8.03376e+16
7.92357e+16
7.91361e+16
7.86744e+16
7.84172e+16
7.87173e+16
7.71245e+16
8.6085e+16
7.72228e+16
7.96897e+16
8.036e+16
7.92615e+16
7.9156e+16
7.87007e+16
7.84349e+16
7.87494e+16
7.71173e+16
8.61445e+16
7.7238e+16
7.97105e+16
8.03808e+16
7.92882e+16
7.91753e+16
7.87273e+16
7.84523e+16
7.87817e+16
7.7109e+16
8.62063e+16
7.72502e+16
7.97303e+16
8.04005e+16
7.93153e+16
7.91934e+16
7.87541e+16
7.847e+16
7.88138e+16
7.71002e+16
8.62702e+16
7.72593e+16
7.9749e+16
8.0419e+16
7.93429e+16
7.92104e+16
7.87807e+16
7.84878e+16
7.88454e+16
7.70921e+16
8.63354e+16
7.72652e+16
7.97658e+16
8.04359e+16
7.93706e+16
7.92261e+16
7.88071e+16
7.85056e+16
7.88757e+16
7.70863e+16
8.6401e+16
7.72677e+16
7.97799e+16
8.04509e+16
7.93984e+16
7.92405e+16
7.88329e+16
7.85237e+16
7.89055e+16
7.70835e+16
8.64656e+16
7.72676e+16
7.97907e+16
8.04634e+16
7.94261e+16
7.92529e+16
7.8858e+16
7.85419e+16
7.89346e+16
7.70822e+16
8.65316e+16
7.72647e+16
7.97972e+16
8.04725e+16
7.94535e+16
7.92629e+16
7.88819e+16
7.85602e+16
7.89626e+16
7.7081e+16
8.66027e+16
7.72583e+16
7.97983e+16
8.04771e+16
7.948e+16
7.92702e+16
7.89041e+16
7.85788e+16
7.89888e+16
7.708e+16
8.66819e+16
7.72464e+16
7.97926e+16
8.04754e+16
7.95051e+16
7.92739e+16
7.89237e+16
7.85978e+16
7.90128e+16
7.70802e+16
8.67709e+16
7.72294e+16
7.97784e+16
8.04652e+16
7.95278e+16
7.92734e+16
7.89402e+16
7.86168e+16
7.90342e+16
7.70824e+16
8.68722e+16
7.72076e+16
7.97546e+16
8.04442e+16
7.95473e+16
7.92685e+16
7.89527e+16
7.8636e+16
7.90531e+16
7.70883e+16
8.69901e+16
7.71827e+16
7.97204e+16
8.04103e+16
7.95624e+16
7.92589e+16
7.89609e+16
7.8656e+16
7.90694e+16
7.71002e+16
8.71296e+16
7.71568e+16
7.96707e+16
8.03541e+16
7.95655e+16
7.92389e+16
7.89586e+16
7.86713e+16
7.90781e+16
7.71153e+16
8.72909e+16
7.71262e+16
7.9589e+16
8.02553e+16
7.95386e+16
7.91955e+16
7.89344e+16
7.8673e+16
7.9072e+16
7.71314e+16
8.7477e+16
7.70881e+16
7.9521e+16
8.01621e+16
7.95311e+16
7.9179e+16
7.89357e+16
7.87076e+16
7.91009e+16
7.72097e+16
8.77713e+16
7.71151e+16
7.96647e+16
8.02413e+16
7.96932e+16
7.93237e+16
7.90761e+16
7.88719e+16
7.92536e+16
7.74421e+16
8.82808e+16
7.72888e+16
7.9323e+16
7.9664e+16
7.92401e+16
7.89341e+16
7.87318e+16
7.85899e+16
7.89632e+16
7.72454e+16
8.82602e+16
7.68392e+16
7.63331e+16
7.66048e+16
7.66036e+16
7.65869e+16
7.6574e+16
7.66399e+16
7.71544e+16
7.58023e+16
8.69862e+16
7.51956e+16
8.51559e+16
8.55408e+16
8.5462e+16
8.50108e+16
8.45329e+16
8.43276e+16
8.4836e+16
8.41578e+16
9.76061e+16
8.43954e+16
8.91965e+16
8.85109e+16
8.85254e+16
8.88702e+16
8.95897e+16
9.09207e+16
9.33085e+16
9.46547e+16
1.12259e+17
9.923e+16
7.63095e+16
7.46801e+16
7.365e+16
7.27875e+16
7.20282e+16
7.12755e+16
7.03106e+16
6.7091e+16
7.01083e+16
4.79967e+16
7.46275e+16
7.33704e+16
7.2865e+16
7.27032e+16
7.30328e+16
7.39415e+16
7.51507e+16
7.376e+16
7.72971e+16
5.48751e+16
7.05498e+16
6.8908e+16
6.80999e+16
6.75538e+16
6.69432e+16
6.68915e+16
6.86441e+16
6.9442e+16
7.53534e+16
5.53491e+16
6.78153e+16
6.64783e+16
6.63059e+16
6.65649e+16
6.68282e+16
6.70591e+16
6.82722e+16
6.88658e+16
7.5326e+16
5.62152e+16
6.52282e+16
6.37496e+16
6.32556e+16
6.34535e+16
6.48323e+16
6.61135e+16
6.7666e+16
6.84005e+16
7.48464e+16
5.64237e+16
6.43289e+16
6.29542e+16
6.27326e+16
6.33419e+16
6.48568e+16
6.61816e+16
6.76568e+16
6.88709e+16
7.37169e+16
5.71039e+16
6.39822e+16
6.29471e+16
6.31501e+16
6.38596e+16
6.51549e+16
6.63968e+16
6.77639e+16
6.9491e+16
7.19059e+16
5.80597e+16
6.44694e+16
6.41179e+16
6.42605e+16
6.46953e+16
6.56885e+16
6.67888e+16
6.80442e+16
6.99527e+16
6.98849e+16
5.92658e+16
6.48699e+16
6.47069e+16
6.49386e+16
6.53774e+16
6.61939e+16
6.71738e+16
6.82892e+16
7.00278e+16
6.78208e+16
6.06659e+16
6.53435e+16
6.54277e+16
6.56949e+16
6.60491e+16
6.67105e+16
6.75388e+16
6.84185e+16
6.97345e+16
6.58998e+16
6.2294e+16
6.55821e+16
6.58231e+16
6.6132e+16
6.64843e+16
6.70336e+16
6.76889e+16
6.82491e+16
6.90457e+16
6.41604e+16
6.4134e+16
6.57406e+16
6.62734e+16
6.66542e+16
6.68875e+16
6.72695e+16
6.76896e+16
6.78601e+16
6.81724e+16
6.2798e+16
6.63639e+16
6.53983e+16
6.58993e+16
6.62766e+16
6.6606e+16
6.68987e+16
6.71229e+16
6.69486e+16
6.69726e+16
6.16975e+16
6.88962e+16
6.53342e+16
6.59794e+16
6.63677e+16
6.65364e+16
6.66351e+16
6.66483e+16
6.62015e+16
6.62185e+16
6.15738e+16
7.26919e+16
6.47664e+16
6.46493e+16
6.45812e+16
6.49114e+16
6.50254e+16
6.50585e+16
6.4639e+16
6.51421e+16
6.18172e+16
7.68514e+16
6.62461e+16
6.62304e+16
6.6005e+16
6.6326e+16
6.65607e+16
6.69734e+16
6.71695e+16
6.90127e+16
6.79479e+16
8.95507e+16
7.268e+16
7.06821e+16
7.02641e+16
7.00465e+16
7.00959e+16
7.08283e+16
7.15683e+16
7.53507e+16
7.63022e+16
1.02727e+17
6.42334e+16
5.92684e+16
6.28212e+16
6.37848e+16
6.4856e+16
6.56753e+16
6.61972e+16
6.64562e+16
6.66148e+16
6.47503e+16
5.78029e+16
8.31962e+16
7.60171e+16
7.6372e+16
7.54201e+16
7.4925e+16
7.46515e+16
7.46825e+16
7.52511e+16
7.67043e+16
7.75616e+16
7.5969e+16
7.81634e+16
7.44531e+16
7.51101e+16
7.49087e+16
7.48956e+16
7.48059e+16
7.46546e+16
7.45792e+16
7.465e+16
7.35636e+16
7.13318e+16
7.97176e+16
7.69541e+16
7.69267e+16
7.64984e+16
7.6324e+16
7.62269e+16
7.62245e+16
7.64089e+16
7.67477e+16
7.61755e+16
7.52029e+16
8.05804e+16
7.86763e+16
7.84701e+16
7.81146e+16
7.79601e+16
7.78481e+16
7.77842e+16
7.7864e+16
7.8052e+16
7.75885e+16
7.71793e+16
8.13385e+16
7.98891e+16
7.95004e+16
7.91005e+16
7.88951e+16
7.87673e+16
7.87147e+16
7.87962e+16
7.89225e+16
7.85987e+16
7.85772e+16
8.22815e+16
8.11074e+16
8.06277e+16
8.02126e+16
7.99724e+16
7.98209e+16
7.9753e+16
7.9808e+16
7.99006e+16
7.96925e+16
7.98383e+16
8.32372e+16
8.22421e+16
8.17143e+16
8.1297e+16
8.10357e+16
8.08674e+16
8.07881e+16
8.08254e+16
8.09003e+16
8.07857e+16
8.10142e+16
8.41632e+16
8.3288e+16
8.27343e+16
8.23314e+16
8.20743e+16
8.191e+16
8.18278e+16
8.18433e+16
8.18973e+16
8.18384e+16
8.20924e+16
8.50423e+16
8.42371e+16
8.36383e+16
8.32183e+16
8.29429e+16
8.27734e+16
8.26949e+16
8.27129e+16
8.27662e+16
8.27536e+16
8.30175e+16
8.59743e+16
8.52383e+16
8.46075e+16
8.41674e+16
8.38645e+16
8.36773e+16
8.35917e+16
8.36073e+16
8.36645e+16
8.36924e+16
8.39688e+16
8.70231e+16
8.63741e+16
8.57396e+16
8.52957e+16
8.49719e+16
8.47656e+16
8.46675e+16
8.46756e+16
8.47369e+16
8.47976e+16
8.50784e+16
8.81943e+16
8.76574e+16
8.70664e+16
8.66643e+16
8.6358e+16
8.61535e+16
8.60439e+16
8.6028e+16
8.60739e+16
8.61443e+16
8.64082e+16
8.94194e+16
8.89863e+16
8.84472e+16
8.81004e+16
8.78317e+16
8.76491e+16
8.75416e+16
8.75048e+16
8.75265e+16
8.759e+16
8.78188e+16
9.04935e+16
9.01193e+16
8.96006e+16
8.92793e+16
8.9028e+16
8.88587e+16
8.87602e+16
8.87273e+16
8.87499e+16
8.88161e+16
8.90153e+16
9.15583e+16
9.12282e+16
9.07223e+16
9.04175e+16
9.01752e+16
9.00112e+16
8.9914e+16
8.98784e+16
8.98991e+16
8.99662e+16
9.01452e+16
9.2611e+16
9.23216e+16
9.18277e+16
9.15382e+16
9.13054e+16
9.11473e+16
9.10525e+16
9.10155e+16
9.10336e+16
9.10989e+16
9.12608e+16
9.36325e+16
9.33844e+16
9.29028e+16
9.26297e+16
9.24069e+16
9.22554e+16
9.21633e+16
9.21255e+16
9.21404e+16
9.22023e+16
9.2347e+16
9.46242e+16
9.44211e+16
9.39522e+16
9.3698e+16
9.34873e+16
9.33441e+16
9.32562e+16
9.32189e+16
9.32266e+16
9.32838e+16
9.34131e+16
9.55846e+16
9.54301e+16
9.49716e+16
9.47383e+16
9.45414e+16
9.4408e+16
9.43254e+16
9.42898e+16
9.42963e+16
9.43489e+16
9.44651e+16
9.65209e+16
9.64171e+16
9.59605e+16
9.57491e+16
9.55697e+16
9.54521e+16
9.53803e+16
9.53497e+16
9.53557e+16
9.5404e+16
9.55079e+16
9.74682e+16
9.74161e+16
9.6938e+16
9.67283e+16
9.65464e+16
9.64302e+16
9.63623e+16
9.63379e+16
9.63514e+16
9.64026e+16
9.65007e+16
9.85053e+16
9.85349e+16
9.80483e+16
9.78534e+16
9.76722e+16
9.75549e+16
9.74824e+16
9.74514e+16
9.74559e+16
9.74987e+16
9.75859e+16
9.94889e+16
9.96126e+16
9.91298e+16
9.89678e+16
9.88014e+16
9.86926e+16
9.8619e+16
9.85794e+16
9.8569e+16
9.85951e+16
9.8666e+16
1.0023e+17
1.00415e+17
9.99185e+16
9.97785e+16
9.96249e+16
9.95303e+16
9.9468e+16
9.9437e+16
9.94325e+16
9.94579e+16
9.95213e+16
1.00899e+17
1.01146e+17
1.00618e+17
1.00488e+17
1.00339e+17
1.00253e+17
1.00199e+17
1.00176e+17
1.00177e+17
1.00205e+17
1.00266e+17
1.01552e+17
1.01896e+17
1.0132e+17
1.0119e+17
1.01032e+17
1.00944e+17
1.00891e+17
1.00871e+17
1.00877e+17
1.00909e+17
1.00969e+17
1.02232e+17
1.02744e+17
1.02117e+17
1.01996e+17
1.01831e+17
1.01738e+17
1.01679e+17
1.01656e+17
1.01659e+17
1.01689e+17
1.01746e+17
1.02919e+17
1.0368e+17
1.03005e+17
1.02914e+17
1.02755e+17
1.02666e+17
1.02607e+17
1.0258e+17
1.02578e+17
1.026e+17
1.02649e+17
1.03544e+17
1.04629e+17
1.03894e+17
1.03845e+17
1.03699e+17
1.03621e+17
1.0357e+17
1.03549e+17
1.0355e+17
1.03567e+17
1.03607e+17
1.04138e+17
1.05621e+17
1.04799e+17
1.04804e+17
1.04671e+17
1.04593e+17
1.04529e+17
1.04492e+17
1.04483e+17
1.04497e+17
1.0453e+17
1.0483e+17
1.06698e+17
1.05663e+17
1.05765e+17
1.05787e+17
1.05905e+17
1.06029e+17
1.06142e+17
1.06228e+17
1.06268e+17
1.06289e+17
1.06898e+17
1.09134e+17
1.07036e+17
1.06183e+17
1.05217e+17
1.04452e+17
1.03848e+17
1.03415e+17
1.0315e+17
1.03025e+17
1.02975e+17
1.08074e+17
1.14674e+17
1.15275e+17
1.17124e+17
1.18377e+17
1.19426e+17
1.20237e+17
1.20856e+17
1.21313e+17
1.21607e+17
1.21696e+17
1.01988e+17
1.00868e+17
9.50699e+16
9.27509e+16
9.08447e+16
8.94918e+16
8.84643e+16
8.76875e+16
8.71094e+16
8.66693e+16
8.62429e+16
9.13907e+16
9.49957e+16
9.8748e+16
1.01047e+17
1.02401e+17
1.03256e+17
1.03724e+17
1.03824e+17
1.0364e+17
1.03217e+17
1.02532e+17
1.01596e+17
1.00334e+17
9.90042e+16
9.77742e+16
9.6536e+16
9.53396e+16
9.43407e+16
9.28553e+16
9.23237e+16
9.07478e+16
8.87312e+16
8.78443e+16
8.67014e+16
8.58833e+16
8.52079e+16
8.45966e+16
8.3922e+16
8.30292e+16
8.17989e+16
8.01573e+16
7.80869e+16
7.50825e+16
7.14549e+16
6.89439e+16
1.13414e+17
1.10466e+17
1.08842e+17
1.07372e+17
1.06039e+17
1.04861e+17
1.03802e+17
1.02794e+17
1.01852e+17
1.00937e+17
9.99541e+16
9.88424e+16
9.74775e+16
9.61643e+16
9.50261e+16
9.38724e+16
9.27349e+16
9.16714e+16
9.03137e+16
8.95308e+16
8.82185e+16
8.71598e+16
8.66706e+16
8.59367e+16
8.52526e+16
8.4617e+16
8.41252e+16
8.37968e+16
8.35925e+16
8.35453e+16
8.375e+16
8.43697e+16
8.51183e+16
8.58637e+16
8.78776e+16
1.06684e+17
1.07515e+17
1.06848e+17
1.0594e+17
1.05046e+17
1.04097e+17
1.0312e+17
1.02108e+17
1.01097e+17
9.99492e+16
9.84846e+16
9.67934e+16
9.51678e+16
9.40498e+16
9.32482e+16
9.24079e+16
9.15035e+16
9.05237e+16
8.93674e+16
8.84727e+16
8.7633e+16
8.69712e+16
8.67916e+16
8.68838e+16
8.71e+16
8.71716e+16
8.71223e+16
8.7083e+16
8.70433e+16
8.69527e+16
8.6824e+16
8.69981e+16
8.68535e+16
8.53288e+16
8.35834e+16
1.02692e+17
1.02057e+17
1.0115e+17
1.00499e+17
1.00019e+17
9.96012e+16
9.92221e+16
9.88259e+16
9.84557e+16
9.81474e+16
9.78551e+16
9.75741e+16
9.72194e+16
9.68422e+16
9.64565e+16
9.59764e+16
9.54519e+16
9.4909e+16
9.43486e+16
9.38428e+16
9.30927e+16
9.2171e+16
9.14062e+16
9.06157e+16
8.98279e+16
8.90396e+16
8.83041e+16
8.76128e+16
8.69009e+16
8.61699e+16
8.54066e+16
8.47832e+16
8.40534e+16
8.31381e+16
8.28631e+16
9.64154e+16
9.60196e+16
9.50894e+16
9.4503e+16
9.40462e+16
9.36111e+16
9.31834e+16
9.27313e+16
9.22892e+16
9.18373e+16
9.13286e+16
9.07988e+16
9.02735e+16
8.98425e+16
8.94164e+16
8.89112e+16
8.83595e+16
8.77762e+16
8.71644e+16
8.65528e+16
8.59023e+16
8.52012e+16
8.46446e+16
8.4195e+16
8.37692e+16
8.33175e+16
8.28367e+16
8.2369e+16
8.18842e+16
8.13841e+16
8.08504e+16
8.05161e+16
8.02691e+16
7.94713e+16
7.84317e+16
9.7389e+16
9.68605e+16
9.60727e+16
9.56185e+16
9.52189e+16
9.48101e+16
9.43866e+16
9.39347e+16
9.34908e+16
9.30411e+16
9.25573e+16
9.2063e+16
9.15751e+16
9.1146e+16
9.06879e+16
9.0161e+16
8.9594e+16
8.90045e+16
8.84054e+16
8.78016e+16
8.71922e+16
8.65319e+16
8.59903e+16
8.5562e+16
8.51505e+16
8.47189e+16
8.42514e+16
8.37915e+16
8.33124e+16
8.28152e+16
8.22581e+16
8.18592e+16
8.16644e+16
8.09945e+16
7.98767e+16
9.6785e+16
9.62229e+16
9.55636e+16
9.51725e+16
9.47873e+16
9.43823e+16
9.39554e+16
9.35087e+16
9.30719e+16
9.26266e+16
9.21612e+16
9.16946e+16
9.12498e+16
9.08465e+16
9.03932e+16
8.9878e+16
8.93238e+16
8.87495e+16
8.81675e+16
8.75768e+16
8.69856e+16
8.63453e+16
8.58047e+16
8.53803e+16
8.49805e+16
8.45673e+16
8.41111e+16
8.36585e+16
8.31884e+16
8.27055e+16
8.21441e+16
8.17048e+16
8.15925e+16
8.11348e+16
7.99733e+16
9.66153e+16
9.6073e+16
9.55402e+16
9.51735e+16
9.47901e+16
9.4383e+16
9.39498e+16
9.35041e+16
9.30686e+16
9.26228e+16
9.21686e+16
9.17161e+16
9.1292e+16
9.08947e+16
9.04334e+16
8.99176e+16
8.93646e+16
8.87953e+16
8.82199e+16
8.76391e+16
8.70552e+16
8.6432e+16
8.58994e+16
8.54797e+16
8.50884e+16
8.46877e+16
8.42397e+16
8.37923e+16
8.33277e+16
8.28556e+16
8.22921e+16
8.1811e+16
8.17179e+16
8.14198e+16
8.02869e+16
9.64267e+16
9.59329e+16
9.54928e+16
9.51239e+16
9.47398e+16
9.43294e+16
9.38917e+16
9.34483e+16
9.30146e+16
9.25698e+16
9.21257e+16
9.16848e+16
9.12773e+16
9.08859e+16
9.04211e+16
8.99072e+16
8.93567e+16
8.87922e+16
8.82223e+16
8.76477e+16
8.70681e+16
8.64516e+16
8.5926e+16
8.55084e+16
8.51201e+16
8.47261e+16
8.42821e+16
8.38374e+16
8.33753e+16
8.29105e+16
8.2348e+16
8.18391e+16
8.17453e+16
8.15584e+16
8.04752e+16
9.63041e+16
9.5867e+16
9.54911e+16
9.51099e+16
9.47264e+16
9.43127e+16
9.38717e+16
9.34301e+16
9.29971e+16
9.25526e+16
9.21158e+16
9.16823e+16
9.12856e+16
9.0897e+16
9.04288e+16
8.99155e+16
8.93662e+16
8.88046e+16
8.82379e+16
8.76668e+16
8.7091e+16
8.64768e+16
8.59556e+16
8.55417e+16
8.51551e+16
8.47645e+16
8.43229e+16
8.388e+16
8.34194e+16
8.2959e+16
8.23979e+16
8.18723e+16
8.17715e+16
8.16529e+16
8.06136e+16
9.62191e+16
9.58346e+16
9.55008e+16
9.51054e+16
9.47233e+16
9.43069e+16
9.38634e+16
9.34232e+16
9.29907e+16
9.25463e+16
9.2115e+16
9.16866e+16
9.12972e+16
9.09105e+16
9.04396e+16
8.99267e+16
8.93782e+16
8.88184e+16
8.82538e+16
8.76849e+16
8.71114e+16
8.64986e+16
8.59789e+16
8.55674e+16
8.51831e+16
8.47943e+16
8.4354e+16
8.3912e+16
8.34522e+16
8.29945e+16
8.24345e+16
8.18993e+16
8.17925e+16
8.17147e+16
8.07045e+16
9.6166e+16
9.5825e+16
9.55189e+16
9.51105e+16
9.47304e+16
9.43117e+16
9.38663e+16
9.34273e+16
9.29948e+16
9.25505e+16
9.21231e+16
9.1698e+16
9.13137e+16
9.09279e+16
9.04549e+16
8.99422e+16
8.93941e+16
8.88353e+16
8.8272e+16
8.77045e+16
8.71323e+16
8.65205e+16
8.60022e+16
8.55909e+16
8.52078e+16
8.48208e+16
8.43815e+16
8.394e+16
8.34805e+16
8.30244e+16
8.24651e+16
8.19246e+16
8.18139e+16
8.17603e+16
8.07656e+16
9.61363e+16
9.58291e+16
9.55411e+16
9.51221e+16
9.4744e+16
9.43234e+16
9.38767e+16
9.34382e+16
9.30059e+16
9.25614e+16
9.21366e+16
9.17139e+16
9.13331e+16
9.09477e+16
9.04731e+16
8.99605e+16
8.94123e+16
8.88544e+16
8.82919e+16
8.77252e+16
8.71538e+16
8.65425e+16
8.60253e+16
8.56147e+16
8.52314e+16
8.48447e+16
8.44063e+16
8.39658e+16
8.35063e+16
8.30512e+16
8.2492e+16
8.19484e+16
8.1836e+16
8.17975e+16
8.08085e+16
9.61237e+16
9.58418e+16
9.55656e+16
9.51386e+16
9.47621e+16
9.43402e+16
9.38924e+16
9.34543e+16
9.3022e+16
9.25772e+16
9.21543e+16
9.1733e+16
9.13545e+16
9.09696e+16
9.04935e+16
8.99809e+16
8.94326e+16
8.88753e+16
8.83131e+16
8.77468e+16
8.7176e+16
8.65649e+16
8.60484e+16
8.56385e+16
8.52554e+16
8.48687e+16
8.44299e+16
8.39898e+16
8.35311e+16
8.30765e+16
8.25173e+16
8.19717e+16
8.18588e+16
8.18305e+16
8.08416e+16
9.61235e+16
9.58598e+16
9.55915e+16
9.51587e+16
9.47833e+16
9.43604e+16
9.39117e+16
9.3474e+16
9.30414e+16
9.25964e+16
9.21747e+16
9.17544e+16
9.13775e+16
9.09928e+16
9.05158e+16
9.00029e+16
8.94547e+16
8.88973e+16
8.83354e+16
8.77694e+16
8.71989e+16
8.6588e+16
8.6072e+16
8.56624e+16
8.52794e+16
8.48928e+16
8.44539e+16
8.40137e+16
8.35552e+16
8.31011e+16
8.25418e+16
8.19946e+16
8.18821e+16
8.18616e+16
8.08704e+16
9.61319e+16
9.58817e+16
9.56183e+16
9.51813e+16
9.48065e+16
9.43829e+16
9.39335e+16
9.34959e+16
9.30632e+16
9.2618e+16
9.2197e+16
9.17773e+16
9.14014e+16
9.10169e+16
9.05391e+16
9.00262e+16
8.94777e+16
8.89204e+16
8.83586e+16
8.7793e+16
8.72224e+16
8.66115e+16
8.60959e+16
8.56866e+16
8.53037e+16
8.4917e+16
8.4478e+16
8.4038e+16
8.35793e+16
8.31256e+16
8.25662e+16
8.20174e+16
8.19058e+16
8.18919e+16
8.08981e+16
9.61459e+16
9.59062e+16
9.56453e+16
9.52058e+16
9.48313e+16
9.44071e+16
9.39572e+16
9.35195e+16
9.30864e+16
9.2641e+16
9.22207e+16
9.18014e+16
9.14262e+16
9.10416e+16
9.05632e+16
9.00501e+16
8.95014e+16
8.89442e+16
8.83823e+16
8.78168e+16
8.72464e+16
8.66354e+16
8.612e+16
8.57111e+16
8.5328e+16
8.49415e+16
8.45024e+16
8.40622e+16
8.36037e+16
8.315e+16
8.25906e+16
8.20402e+16
8.19295e+16
8.19216e+16
8.09261e+16
9.61632e+16
9.59323e+16
9.56723e+16
9.52314e+16
9.48567e+16
9.44324e+16
9.39817e+16
9.35441e+16
9.31107e+16
9.26652e+16
9.2245e+16
9.1826e+16
9.14514e+16
9.10667e+16
9.05879e+16
9.00745e+16
8.95258e+16
8.89685e+16
8.84067e+16
8.78411e+16
8.72707e+16
8.66596e+16
8.61442e+16
8.57354e+16
8.53525e+16
8.49661e+16
8.45267e+16
8.40865e+16
8.36282e+16
8.31747e+16
8.2615e+16
8.20631e+16
8.19531e+16
8.19507e+16
8.09552e+16
9.61822e+16
9.59598e+16
9.56994e+16
9.52578e+16
9.48826e+16
9.44582e+16
9.40068e+16
9.35691e+16
9.31355e+16
9.26898e+16
9.22696e+16
9.1851e+16
9.14766e+16
9.10919e+16
9.06127e+16
9.00991e+16
8.95502e+16
8.89929e+16
8.8431e+16
8.78655e+16
8.72951e+16
8.66838e+16
8.61684e+16
8.57597e+16
8.5377e+16
8.49904e+16
8.45511e+16
8.41108e+16
8.36523e+16
8.31992e+16
8.26393e+16
8.20863e+16
8.19768e+16
8.19787e+16
8.0986e+16
9.62009e+16
9.59885e+16
9.57258e+16
9.52843e+16
9.49086e+16
9.44838e+16
9.40319e+16
9.3594e+16
9.31601e+16
9.27144e+16
9.22944e+16
9.18759e+16
9.15017e+16
9.11171e+16
9.06374e+16
9.01235e+16
8.95744e+16
8.9017e+16
8.8455e+16
8.78895e+16
8.7319e+16
8.67077e+16
8.61922e+16
8.57838e+16
8.54011e+16
8.50144e+16
8.45752e+16
8.41345e+16
8.36761e+16
8.32231e+16
8.2663e+16
8.21094e+16
8.19999e+16
8.20045e+16
8.10175e+16
9.62178e+16
9.60182e+16
9.57515e+16
9.53105e+16
9.49342e+16
9.45091e+16
9.40564e+16
9.36183e+16
9.31843e+16
9.27384e+16
9.23185e+16
9.19005e+16
9.15266e+16
9.11418e+16
9.06616e+16
9.01473e+16
8.9598e+16
8.90403e+16
8.84785e+16
8.79129e+16
8.73423e+16
8.6731e+16
8.62155e+16
8.58073e+16
8.54246e+16
8.50378e+16
8.45985e+16
8.41575e+16
8.36992e+16
8.32463e+16
8.26861e+16
8.21318e+16
8.20221e+16
8.20283e+16
8.10494e+16
9.62312e+16
9.60487e+16
9.57764e+16
9.53363e+16
9.4959e+16
9.45337e+16
9.40802e+16
9.36416e+16
9.32073e+16
9.27616e+16
9.23418e+16
9.19244e+16
9.15508e+16
9.11658e+16
9.0685e+16
9.01702e+16
8.96206e+16
8.90627e+16
8.85007e+16
8.79354e+16
8.73645e+16
8.67533e+16
8.62379e+16
8.58299e+16
8.54472e+16
8.50602e+16
8.46208e+16
8.41793e+16
8.37213e+16
8.32684e+16
8.27078e+16
8.21534e+16
8.20434e+16
8.20506e+16
8.10818e+16
9.62396e+16
9.60799e+16
9.58e+16
9.5361e+16
9.49829e+16
9.4557e+16
9.41026e+16
9.36636e+16
9.32288e+16
9.27833e+16
9.23641e+16
9.19472e+16
9.15739e+16
9.11887e+16
9.07073e+16
9.01916e+16
8.96419e+16
8.90838e+16
8.85215e+16
8.79563e+16
8.73852e+16
8.6774e+16
8.62589e+16
8.58509e+16
8.54681e+16
8.50809e+16
8.46414e+16
8.41995e+16
8.37418e+16
8.32887e+16
8.27278e+16
8.21736e+16
8.20632e+16
8.20709e+16
8.1114e+16
9.62408e+16
9.6112e+16
9.58218e+16
9.5384e+16
9.50052e+16
9.45784e+16
9.4123e+16
9.36835e+16
9.32482e+16
9.28031e+16
9.23845e+16
9.19687e+16
9.15959e+16
9.12103e+16
9.07279e+16
9.02113e+16
8.96611e+16
8.91028e+16
8.85403e+16
8.79751e+16
8.74038e+16
8.67927e+16
8.62777e+16
8.587e+16
8.54871e+16
8.50995e+16
8.46597e+16
8.42173e+16
8.37596e+16
8.33065e+16
8.27454e+16
8.21917e+16
8.20812e+16
8.20885e+16
8.11451e+16
9.62328e+16
9.61454e+16
9.58414e+16
9.54049e+16
9.50256e+16
9.45973e+16
9.41407e+16
9.37005e+16
9.32649e+16
9.28205e+16
9.24026e+16
9.19884e+16
9.16163e+16
9.12301e+16
9.07463e+16
9.02286e+16
8.96777e+16
8.9119e+16
8.85565e+16
8.79911e+16
8.74197e+16
8.68086e+16
8.62939e+16
8.58866e+16
8.55034e+16
8.51152e+16
8.4675e+16
8.4232e+16
8.37745e+16
8.33212e+16
8.27596e+16
8.2207e+16
8.20965e+16
8.2103e+16
8.1174e+16
9.62133e+16
9.61803e+16
9.58584e+16
9.54232e+16
9.50435e+16
9.46135e+16
9.41552e+16
9.3714e+16
9.32782e+16
9.28346e+16
9.2418e+16
9.20057e+16
9.16348e+16
9.12477e+16
9.07621e+16
9.02425e+16
8.96908e+16
8.91317e+16
8.85689e+16
8.80037e+16
8.7432e+16
8.68207e+16
8.63065e+16
8.58998e+16
8.55161e+16
8.5127e+16
8.46862e+16
8.42424e+16
8.37851e+16
8.33317e+16
8.27695e+16
8.22185e+16
8.21083e+16
8.21135e+16
8.12e+16
9.61799e+16
9.62178e+16
9.58721e+16
9.54383e+16
9.50583e+16
9.46259e+16
9.41655e+16
9.37235e+16
9.32871e+16
9.28447e+16
9.24299e+16
9.202e+16