/*--------------------------------*- C++ -*----------------------------------*\
| =========                 |                                                 |
| \\      /  F ield         | OpenFOAM: The Open Source CFD Toolbox           |
|  \\    /   O peration     | Version:  2406                                  |
|   \\  /    A nd           | Website:  www.openfoam.com                      |
|    \\/     M anipulation  |                                                 |
\*---------------------------------------------------------------------------*/
FoamFile
{
    version     2.0;
    format      ascii;
    arch        "LSB;label=32;scalar=64";
    class       volScalarField;
    location    "0/neutroRegion";
    object      precStar0;
}
// * * * * * * * * * * * * * * * * * * * * * * * * * * * * * * * * * * * * * //

dimensions      [0 -3 0 0 0 0 0];

internalField   nonuniform List<scalar> 
8595
(
1.63644e+17
1.39835e+17
1.1171e+17
1.05272e+17
9.95267e+16
9.70625e+16
9.63924e+16
9.58931e+16
9.54459e+16
9.50804e+16
9.46505e+16
9.45038e+16
9.19307e+16
1.01357e+17
9.00736e+16
1.0442e+17
8.54235e+16
1.10505e+17
1.06044e+17
9.4551e+16
9.75983e+16
9.95689e+16
9.98501e+16
1.0004e+17
1.0032e+17
1.00545e+17
1.00703e+17
1.0082e+17
1.00907e+17
1.00969e+17
1.01009e+17
1.01034e+17
1.01047e+17
1.0105e+17
1.01046e+17
1.01037e+17
1.01026e+17
1.01013e+17
1.01001e+17
1.00991e+17
1.00984e+17
1.00982e+17
1.00989e+17
1.01009e+17
1.01047e+17
1.01112e+17
1.01216e+17
1.01381e+17
1.01636e+17
1.02046e+17
1.02624e+17
1.0387e+17
1.04334e+17
1.13037e+17
1.28165e+17
1.50899e+17
1.42436e+17
1.21566e+17
1.14717e+17
1.07342e+17
1.14158e+17
1.18727e+17
1.23191e+17
1.23648e+17
1.23815e+17
1.23738e+17
1.23485e+17
1.22699e+17
1.23502e+17
1.21666e+17
1.24098e+17
1.19595e+17
1.25889e+17
1.13663e+17
1.39481e+17
1.35874e+17
1.20269e+17
1.22607e+17
1.23873e+17
1.2354e+17
1.23213e+17
1.22993e+17
1.22759e+17
1.22514e+17
1.22291e+17
1.22097e+17
1.21931e+17
1.2179e+17
1.21673e+17
1.21574e+17
1.21492e+17
1.21423e+17
1.21364e+17
1.21313e+17
1.21267e+17
1.21224e+17
1.21182e+17
1.21138e+17
1.2109e+17
1.21034e+17
1.20966e+17
1.2088e+17
1.20767e+17
1.20615e+17
1.20404e+17
1.20105e+17
1.19692e+17
1.19027e+17
1.18424e+17
1.15866e+17
1.20287e+17
1.22082e+17
1.25714e+17
1.08583e+17
1.2184e+17
1.18662e+17
1.13286e+17
1.17159e+17
1.15336e+17
1.14256e+17
1.14529e+17
1.14677e+17
1.14514e+17
1.14134e+17
1.13379e+17
1.13658e+17
1.12482e+17
1.13281e+17
1.10903e+17
1.14745e+17
1.06851e+17
1.23252e+17
1.20361e+17
1.06299e+17
1.08165e+17
1.09078e+17
1.08759e+17
1.08612e+17
1.08725e+17
1.08884e+17
1.09033e+17
1.09171e+17
1.09295e+17
1.09398e+17
1.09482e+17
1.09548e+17
1.09598e+17
1.09635e+17
1.09661e+17
1.09678e+17
1.09689e+17
1.09695e+17
1.09699e+17
1.09702e+17
1.09706e+17
1.09714e+17
1.09729e+17
1.09754e+17
1.09795e+17
1.09859e+17
1.09956e+17
1.10102e+17
1.10314e+17
1.10633e+17
1.11012e+17
1.11848e+17
1.11274e+17
1.18022e+17
1.22527e+17
1.27279e+17
1.057e+17
1.19448e+17
1.17882e+17
1.12749e+17
1.16328e+17
1.14732e+17
1.16413e+17
1.17207e+17
1.17404e+17
1.173e+17
1.17172e+17
1.16611e+17
1.16354e+17
1.15571e+17
1.15844e+17
1.14079e+17
1.16527e+17
1.09907e+17
1.23055e+17
1.21439e+17
1.07961e+17
1.10589e+17
1.11818e+17
1.11666e+17
1.11572e+17
1.1158e+17
1.11561e+17
1.11512e+17
1.11457e+17
1.11405e+17
1.11356e+17
1.11311e+17
1.1127e+17
1.11232e+17
1.11198e+17
1.11168e+17
1.1114e+17
1.11115e+17
1.1109e+17
1.11068e+17
1.11046e+17
1.11025e+17
1.11003e+17
1.10981e+17
1.10957e+17
1.10931e+17
1.10902e+17
1.10869e+17
1.10831e+17
1.10787e+17
1.10756e+17
1.10675e+17
1.10959e+17
1.09776e+17
1.16076e+17
1.20444e+17
1.25396e+17
1.02178e+17
1.19728e+17
1.1777e+17
1.12381e+17
1.16471e+17
1.12026e+17
1.14626e+17
1.16443e+17
1.17075e+17
1.16971e+17
1.16568e+17
1.15931e+17
1.15467e+17
1.14718e+17
1.14653e+17
1.13203e+17
1.14898e+17
1.09079e+17
1.19465e+17
1.19173e+17
1.05504e+17
1.08048e+17
1.09099e+17
1.08786e+17
1.08615e+17
1.08633e+17
1.08666e+17
1.08687e+17
1.08708e+17
1.08728e+17
1.08744e+17
1.08756e+17
1.08763e+17
1.08766e+17
1.08765e+17
1.08762e+17
1.08755e+17
1.08747e+17
1.08738e+17
1.08729e+17
1.08718e+17
1.08709e+17
1.08701e+17
1.08695e+17
1.08693e+17
1.08696e+17
1.08708e+17
1.08731e+17
1.08771e+17
1.08832e+17
1.08936e+17
1.09015e+17
1.09479e+17
1.0842e+17
1.1485e+17
1.19035e+17
1.24309e+17
1.00017e+17
1.20379e+17
1.18104e+17
1.11496e+17
1.16689e+17
1.13507e+17
1.15322e+17
1.16812e+17
1.17227e+17
1.1691e+17
1.16254e+17
1.15444e+17
1.14778e+17
1.13994e+17
1.13709e+17
1.12423e+17
1.136e+17
1.08279e+17
1.16744e+17
1.1782e+17
1.03954e+17
1.06717e+17
1.07902e+17
1.07616e+17
1.0747e+17
1.07498e+17
1.07521e+17
1.07524e+17
1.07524e+17
1.07523e+17
1.07519e+17
1.07512e+17
1.07502e+17
1.07491e+17
1.07478e+17
1.07464e+17
1.07449e+17
1.07434e+17
1.07418e+17
1.07403e+17
1.07388e+17
1.07374e+17
1.07361e+17
1.0735e+17
1.07342e+17
1.07337e+17
1.07338e+17
1.07347e+17
1.0737e+17
1.07409e+17
1.0749e+17
1.07548e+17
1.08017e+17
1.06962e+17
1.13503e+17
1.17606e+17
1.23388e+17
9.83749e+16
1.22365e+17
1.18907e+17
1.11691e+17
1.14779e+17
1.15327e+17
1.17354e+17
1.18043e+17
1.17647e+17
1.16689e+17
1.15591e+17
1.14521e+17
1.13661e+17
1.12821e+17
1.12394e+17
1.11218e+17
1.1206e+17
1.07125e+17
1.14226e+17
1.16624e+17
1.02463e+17
1.05387e+17
1.06675e+17
1.06379e+17
1.06244e+17
1.06296e+17
1.06335e+17
1.06349e+17
1.06357e+17
1.06362e+17
1.06362e+17
1.06359e+17
1.06353e+17
1.06343e+17
1.06333e+17
1.06321e+17
1.06308e+17
1.06294e+17
1.0628e+17
1.06267e+17
1.06253e+17
1.06241e+17
1.0623e+17
1.06221e+17
1.06215e+17
1.06214e+17
1.06218e+17
1.06232e+17
1.06259e+17
1.06304e+17
1.06391e+17
1.06451e+17
1.06934e+17
1.05852e+17
1.12486e+17
1.1639e+17
1.22667e+17
9.69801e+16
1.19282e+17
1.17092e+17
1.13563e+17
1.16974e+17
1.19285e+17
1.19858e+17
1.18879e+17
1.17258e+17
1.15551e+17
1.14042e+17
1.12787e+17
1.1184e+17
1.11015e+17
1.10551e+17
1.09501e+17
1.10165e+17
1.05598e+17
1.11833e+17
1.15507e+17
1.01047e+17
1.04115e+17
1.05414e+17
1.04978e+17
1.0477e+17
1.04791e+17
1.04816e+17
1.04828e+17
1.04844e+17
1.0486e+17
1.04873e+17
1.04882e+17
1.04887e+17
1.04888e+17
1.04886e+17
1.0488e+17
1.04873e+17
1.04863e+17
1.04853e+17
1.04841e+17
1.0483e+17
1.04819e+17
1.04809e+17
1.04801e+17
1.04795e+17
1.04794e+17
1.048e+17
1.04814e+17
1.04842e+17
1.04887e+17
1.04976e+17
1.05032e+17
1.05524e+17
1.04404e+17
1.11134e+17
1.14752e+17
1.21849e+17
9.56251e+16
1.49716e+17
1.34141e+17
1.29555e+17
1.27638e+17
1.24254e+17
1.20705e+17
1.17477e+17
1.14812e+17
1.12742e+17
1.11207e+17
1.1009e+17
1.09326e+17
1.08711e+17
1.08375e+17
1.07493e+17
1.0806e+17
1.03945e+17
1.09896e+17
1.14542e+17
1.0009e+17
1.0369e+17
1.05393e+17
1.05153e+17
1.05044e+17
1.05093e+17
1.05099e+17
1.05072e+17
1.05041e+17
1.05011e+17
1.04981e+17
1.04952e+17
1.04925e+17
1.04901e+17
1.04878e+17
1.04857e+17
1.04837e+17
1.04819e+17
1.04802e+17
1.04786e+17
1.04771e+17
1.04757e+17
1.04744e+17
1.04734e+17
1.04725e+17
1.04719e+17
1.04718e+17
1.04723e+17
1.04739e+17
1.0477e+17
1.04845e+17
1.04889e+17
1.05405e+17
1.04253e+17
1.11286e+17
1.14621e+17
1.2209e+17
9.45349e+16
1.7752e+17
1.35084e+17
1.27984e+17
1.22745e+17
1.18139e+17
1.14477e+17
1.11661e+17
1.09563e+17
1.08026e+17
1.06907e+17
1.06081e+17
1.05494e+17
1.05031e+17
1.04853e+17
1.04384e+17
1.054e+17
1.026e+17
1.09122e+17
1.13323e+17
9.84514e+16
1.01489e+17
1.02699e+17
1.02268e+17
1.02157e+17
1.02274e+17
1.02382e+17
1.02465e+17
1.02538e+17
1.02598e+17
1.02644e+17
1.02677e+17
1.027e+17
1.02713e+17
1.0272e+17
1.0272e+17
1.02716e+17
1.02709e+17
1.02699e+17
1.02688e+17
1.02678e+17
1.02667e+17
1.02659e+17
1.02653e+17
1.02652e+17
1.02657e+17
1.02671e+17
1.02699e+17
1.02744e+17
1.0281e+17
1.02923e+17
1.02993e+17
1.03523e+17
1.02303e+17
1.09245e+17
1.12312e+17
1.21492e+17
9.47724e+16
7.99512e+16
7.89318e+16
8.0056e+16
8.15368e+16
8.30685e+16
8.49739e+16
8.75483e+16
9.17418e+16
9.5745e+16
1.27986e+17
1.03472e+17
1.02885e+17
1.01553e+17
1.01845e+17
1.02152e+17
1.03017e+17
1.04499e+17
1.07474e+17
1.08951e+17
1.37333e+17
9.51203e+16
9.69102e+16
9.5922e+16
9.66792e+16
9.69115e+16
9.75806e+16
9.86455e+16
1.01159e+17
1.04156e+17
1.16227e+17
9.50264e+16
9.61013e+16
9.46082e+16
9.47988e+16
9.45594e+16
9.47695e+16
9.51132e+16
9.66222e+16
1.01543e+17
1.00313e+17
8.89955e+16
9.01258e+16
8.91424e+16
8.94661e+16
8.93403e+16
8.96143e+16
8.99656e+16
9.07799e+16
9.73012e+16
9.24931e+16
9.03176e+16
9.13298e+16
9.03448e+16
9.06009e+16
9.04111e+16
9.06244e+16
9.09721e+16
9.11186e+16
9.90679e+16
9.21873e+16
9.0045e+16
9.10525e+16
9.01194e+16
9.03719e+16
9.0176e+16
9.03671e+16
9.07827e+16
9.04399e+16
9.92915e+16
9.12018e+16
9.00995e+16
9.11074e+16
9.01815e+16
9.0425e+16
9.02179e+16
9.03829e+16
9.08585e+16
9.01722e+16
9.96233e+16
9.08043e+16
9.00886e+16
9.11068e+16
9.01833e+16
9.04242e+16
9.0213e+16
9.03596e+16
9.0884e+16
8.99724e+16
9.98012e+16
9.05458e+16
9.0093e+16
9.11205e+16
9.01952e+16
9.04346e+16
9.02218e+16
9.03546e+16
9.09142e+16
8.98564e+16
9.9926e+16
9.04092e+16
9.00978e+16
9.11326e+16
9.02051e+16
9.04436e+16
9.02309e+16
9.03534e+16
9.09383e+16
8.97851e+16
1.0001e+17
9.0337e+16
9.0105e+16
9.11452e+16
9.02158e+16
9.04535e+16
9.0242e+16
9.03561e+16
9.09598e+16
8.97416e+16
1.00073e+17
9.03042e+16
9.01131e+16
9.11577e+16
9.02267e+16
9.04633e+16
9.02539e+16
9.03608e+16
9.09798e+16
8.97135e+16
1.00124e+17
9.02938e+16
9.01218e+16
9.11703e+16
9.02378e+16
9.04733e+16
9.02665e+16
9.03664e+16
9.09992e+16
8.96931e+16
1.00169e+17
9.02955e+16
9.01307e+16
9.11831e+16
9.02493e+16
9.04832e+16
9.02797e+16
9.03727e+16
9.10188e+16
8.96761e+16
1.00211e+17
9.03033e+16
9.01396e+16
9.11959e+16
9.02611e+16
9.04927e+16
9.02935e+16
9.03789e+16
9.10387e+16
8.96597e+16
1.00254e+17
9.03133e+16
9.01482e+16
9.12085e+16
9.02734e+16
9.05021e+16
9.03078e+16
9.03848e+16
9.10591e+16
8.9642e+16
1.00299e+17
9.03232e+16
9.01568e+16
9.12207e+16
9.02863e+16
9.05112e+16
9.03223e+16
9.03905e+16
9.10802e+16
8.96226e+16
1.00346e+17
9.03314e+16
9.01657e+16
9.12321e+16
9.02998e+16
9.05195e+16
9.03372e+16
9.0396e+16
9.11019e+16
8.96012e+16
1.00397e+17
9.03372e+16
9.01751e+16
9.12426e+16
9.03144e+16
9.05273e+16
9.03524e+16
9.04014e+16
9.11241e+16
8.9578e+16
1.00449e+17
9.03399e+16
9.01843e+16
9.12515e+16
9.03301e+16
9.05346e+16
9.03682e+16
9.04066e+16
9.11464e+16
8.95535e+16
1.00505e+17
9.0339e+16
9.01927e+16
9.12593e+16
9.03465e+16
9.05408e+16
9.03842e+16
9.04122e+16
9.11686e+16
8.95283e+16
1.00563e+17
9.03345e+16
9.02e+16
9.12663e+16
9.03639e+16
9.0546e+16
9.04003e+16
9.04181e+16
9.11903e+16
8.95041e+16
1.00622e+17
9.03263e+16
9.02059e+16
9.1272e+16
9.03819e+16
9.05503e+16
9.04166e+16
9.04245e+16
9.12108e+16
8.94826e+16
1.00682e+17
9.03143e+16
9.02095e+16
9.12762e+16
9.04007e+16
9.05535e+16
9.04329e+16
9.04316e+16
9.12311e+16
8.9465e+16
1.00741e+17
9.0299e+16
9.02103e+16
9.12786e+16
9.04204e+16
9.05555e+16
9.04491e+16
9.04395e+16
9.12512e+16
8.94496e+16
1.00802e+17
9.02806e+16
9.02076e+16
9.12786e+16
9.04409e+16
9.0556e+16
9.0465e+16
9.04485e+16
9.12705e+16
8.94348e+16
1.00869e+17
9.02581e+16
9.02007e+16
9.12752e+16
9.04623e+16
9.0555e+16
9.04804e+16
9.04591e+16
9.12889e+16
8.9421e+16
1.00945e+17
9.02293e+16
9.01886e+16
9.12671e+16
9.04843e+16
9.05521e+16
9.04949e+16
9.04718e+16
9.13061e+16
8.94094e+16
1.01034e+17
9.01948e+16
9.01701e+16
9.12526e+16
9.05067e+16
9.05473e+16
9.05083e+16
9.04868e+16
9.13222e+16
8.94015e+16
1.01138e+17
9.01551e+16
9.0145e+16
9.12302e+16
9.05295e+16
9.05412e+16
9.05209e+16
9.05051e+16
9.13378e+16
8.93997e+16
1.01262e+17
9.01121e+16
9.01138e+16
9.11987e+16
9.05529e+16
9.05353e+16
9.05332e+16
9.05286e+16
9.13539e+16
8.94071e+16
1.01413e+17
9.00686e+16
9.00727e+16
9.11498e+16
9.05702e+16
9.05245e+16
9.05401e+16
9.05523e+16
9.13658e+16
8.94217e+16
1.01592e+17
9.00203e+16
9.00058e+16
9.1063e+16
9.05636e+16
9.04969e+16
9.0531e+16
9.05683e+16
9.1367e+16
8.94419e+16
1.01802e+17
8.99644e+16
8.99685e+16
9.0997e+16
9.05935e+16
9.05137e+16
9.05636e+16
9.0633e+16
9.14176e+16
8.95408e+16
1.02143e+17
8.99859e+16
9.01905e+16
9.11473e+16
9.08371e+16
9.07346e+16
9.07742e+16
9.08632e+16
9.16243e+16
8.98275e+16
1.0274e+17
9.01805e+16
8.98917e+16
9.05818e+16
9.04093e+16
9.03729e+16
9.04548e+16
9.06024e+16
9.13377e+16
8.96302e+16
1.02729e+17
8.96513e+16
8.66292e+16
8.72321e+16
8.7528e+16
8.78064e+16
8.80858e+16
8.84488e+16
8.93193e+16
8.80045e+16
1.01272e+17
8.77332e+16
9.68351e+16
9.76091e+16
9.78551e+16
9.76659e+16
9.74288e+16
9.7484e+16
9.83405e+16
9.77907e+16
1.13684e+17
9.84709e+16
1.01808e+17
1.01403e+17
1.0178e+17
1.02513e+17
1.03648e+17
1.05457e+17
1.08458e+17
1.10212e+17
1.30913e+17
1.15831e+17
8.8173e+16
8.67252e+16
8.59028e+16
8.51959e+16
8.45258e+16
8.37846e+16
8.27096e+16
7.89613e+16
8.25734e+16
5.65896e+16
8.75067e+16
8.65867e+16
8.64048e+16
8.64739e+16
8.69819e+16
8.81134e+16
8.96163e+16
8.78786e+16
9.17888e+16
6.49311e+16
8.43536e+16
8.30041e+16
8.24046e+16
8.18728e+16
8.11941e+16
8.10324e+16
8.28054e+16
8.33149e+16
8.98435e+16
6.56304e+16
8.28686e+16
8.182e+16
8.1899e+16
8.23162e+16
8.24053e+16
8.21542e+16
8.2948e+16
8.29723e+16
9.00251e+16
6.67489e+16
8.11618e+16
7.98105e+16
7.94624e+16
7.95885e+16
8.06606e+16
8.14164e+16
8.24598e+16
8.25591e+16
8.95529e+16
6.70513e+16
8.0731e+16
7.94792e+16
8.01235e+16
7.9798e+16
8.07618e+16
8.15289e+16
8.24759e+16
8.31591e+16
8.82615e+16
6.79114e+16
8.0351e+16
7.94604e+16
7.97596e+16
8.01046e+16
8.09353e+16
8.16721e+16
8.25502e+16
8.39003e+16
8.61415e+16
6.91029e+16
8.06794e+16
8.04273e+16
8.05459e+16
8.07091e+16
8.13145e+16
8.19761e+16
8.28014e+16
8.44383e+16
8.37636e+16
7.05979e+16
8.08479e+16
8.07154e+16
8.09073e+16
8.11442e+16
8.16476e+16
8.22603e+16
8.30032e+16
8.45112e+16
8.13315e+16
7.23321e+16
8.11382e+16
8.12377e+16
8.14501e+16
8.16203e+16
8.20179e+16
8.25334e+16
8.30745e+16
8.41481e+16
7.90721e+16
7.43487e+16
8.1184e+16
8.14216e+16
8.16678e+16
8.18628e+16
8.21884e+16
8.25698e+16
8.28013e+16
8.33198e+16
7.70342e+16
7.66323e+16
8.11812e+16
8.17347e+16
8.20545e+16
8.21232e+16
8.22947e+16
8.24556e+16
8.22842e+16
8.22827e+16
7.54561e+16
7.94008e+16
8.0608e+16
8.1088e+16
8.13944e+16
8.15991e+16
8.17046e+16
8.16847e+16
8.11578e+16
8.08675e+16
7.42042e+16
8.25574e+16
8.04223e+16
8.10452e+16
8.13552e+16
8.13796e+16
8.1284e+16
8.10567e+16
8.02543e+16
8.00093e+16
7.41466e+16
8.72705e+16
7.96761e+16
7.93334e+16
7.90844e+16
7.9322e+16
7.9277e+16
7.91184e+16
7.84001e+16
7.87965e+16
7.45698e+16
9.24903e+16
8.15196e+16
8.12198e+16
8.07455e+16
8.09845e+16
8.11265e+16
8.1479e+16
8.15633e+16
8.36448e+16
8.22046e+16
1.08187e+17
9.01639e+16
8.74115e+16
8.66654e+16
8.61869e+16
8.60626e+16
8.68024e+16
8.75677e+16
9.20665e+16
9.31129e+16
1.25243e+17
7.43288e+16
6.86947e+16
7.28673e+16
7.40097e+16
7.52622e+16
7.62119e+16
7.6808e+16
7.70953e+16
7.72667e+16
7.50927e+16
6.70265e+16
9.58337e+16
8.77384e+16
8.82428e+16
8.71924e+16
8.66454e+16
8.63369e+16
8.63664e+16
8.70085e+16
8.86691e+16
8.9636e+16
8.77725e+16
8.96499e+16
8.55823e+16
8.6448e+16
8.62797e+16
8.63006e+16
8.62132e+16
8.6038e+16
8.59351e+16
8.59913e+16
8.4704e+16
8.20916e+16
9.1054e+16
8.80957e+16
8.81827e+16
8.77607e+16
8.75997e+16
8.7506e+16
8.7504e+16
8.77013e+16
8.80638e+16
8.73679e+16
8.62017e+16
9.165e+16
8.97017e+16
8.96024e+16
8.9279e+16
8.9151e+16
8.90471e+16
8.89787e+16
8.90565e+16
8.92437e+16
8.86705e+16
8.81425e+16
9.2145e+16
9.07358e+16
9.04452e+16
9.00849e+16
8.99084e+16
8.97929e+16
8.97413e+16
8.98225e+16
8.99379e+16
8.95229e+16
8.9431e+16
9.28576e+16
9.178e+16
9.14028e+16
9.10387e+16
9.08318e+16
9.06955e+16
9.06302e+16
9.06836e+16
9.076e+16
9.04754e+16
9.05684e+16
9.35829e+16
9.2725e+16
9.23113e+16
9.19596e+16
9.17392e+16
9.15905e+16
9.15162e+16
9.15511e+16
9.16071e+16
9.14277e+16
9.161e+16
9.42694e+16
9.35596e+16
9.31338e+16
9.28144e+16
9.26109e+16
9.24752e+16
9.24025e+16
9.24146e+16
9.24469e+16
9.23295e+16
9.25369e+16
9.48994e+16
9.4273e+16
9.38082e+16
9.34839e+16
9.3273e+16
9.31414e+16
9.30792e+16
9.30967e+16
9.31283e+16
9.30619e+16
9.3277e+16
9.55844e+16
9.5032e+16
9.45349e+16
9.41953e+16
9.39619e+16
9.38178e+16
9.37528e+16
9.37703e+16
9.38069e+16
9.37859e+16
9.40138e+16
9.63739e+16
9.59099e+16
9.54054e+16
9.50622e+16
9.4809e+16
9.46483e+16
9.45737e+16
9.45856e+16
9.46278e+16
9.4644e+16
9.48767e+16
9.72601e+16
9.69112e+16
9.64479e+16
9.61452e+16
9.59072e+16
9.57458e+16
9.56578e+16
9.56445e+16
9.56712e+16
9.57003e+16
9.59166e+16
9.81412e+16
9.79022e+16
9.74942e+16
9.72513e+16
9.70543e+16
9.69175e+16
9.68329e+16
9.67984e+16
9.68003e+16
9.68233e+16
9.7002e+16
9.88301e+16
9.86531e+16
9.82677e+16
9.80535e+16
9.78771e+16
9.77568e+16
9.76842e+16
9.76565e+16
9.76618e+16
9.76899e+16
9.78382e+16
9.95096e+16
9.93783e+16
9.90067e+16
9.88104e+16
9.86448e+16
9.85314e+16
9.84618e+16
9.8433e+16
9.84388e+16
9.84712e+16
9.86014e+16
1.00175e+17
1.00085e+17
9.97264e+16
9.95467e+16
9.93915e+16
9.92853e+16
9.92194e+16
9.91908e+16
9.91961e+16
9.92297e+16
9.93454e+16
1.00802e+17
1.00755e+17
1.00409e+17
1.00246e+17
1.00102e+17
1.00003e+17
9.99411e+16
9.9913e+16
9.99171e+16
9.99498e+16
1.00051e+17
1.0139e+17
1.01389e+17
1.01056e+17
1.00913e+17
1.00781e+17
1.00691e+17
1.00634e+17
1.00607e+17
1.00607e+17
1.00638e+17
1.00726e+17
1.01937e+17
1.01985e+17
1.01662e+17
1.01539e+17
1.01422e+17
1.01342e+17
1.01291e+17
1.01267e+17
1.01267e+17
1.01295e+17
1.01373e+17
1.02452e+17
1.02547e+17
1.02223e+17
1.02121e+17
1.0202e+17
1.01957e+17
1.01917e+17
1.01899e+17
1.019e+17
1.01926e+17
1.01993e+17
1.02972e+17
1.03114e+17
1.02761e+17
1.02654e+17
1.02546e+17
1.02481e+17
1.02444e+17
1.02432e+17
1.02443e+17
1.02473e+17
1.02537e+17
1.03581e+17
1.03807e+17
1.03439e+17
1.03339e+17
1.03223e+17
1.03149e+17
1.03102e+17
1.03081e+17
1.03082e+17
1.03106e+17
1.03161e+17
1.04115e+17
1.04448e+17
1.04091e+17
1.04027e+17
1.03926e+17
1.03861e+17
1.03812e+17
1.03782e+17
1.03767e+17
1.03775e+17
1.03816e+17
1.04418e+17
1.04826e+17
1.04463e+17
1.04428e+17
1.04344e+17
1.04296e+17
1.04261e+17
1.04241e+17
1.04234e+17
1.04243e+17
1.04277e+17
1.04673e+17
1.05152e+17
1.04765e+17
1.04745e+17
1.04671e+17
1.04635e+17
1.0461e+17
1.046e+17
1.046e+17
1.04613e+17
1.04647e+17
1.04924e+17
1.05508e+17
1.05076e+17
1.05058e+17
1.04977e+17
1.04941e+17
1.04919e+17
1.04913e+17
1.04919e+17
1.04937e+17
1.04972e+17
1.05201e+17
1.05956e+17
1.05472e+17
1.05462e+17
1.05372e+17
1.0533e+17
1.05302e+17
1.05292e+17
1.05296e+17
1.05313e+17
1.05346e+17
1.05454e+17
1.0646e+17
1.05926e+17
1.05945e+17
1.05859e+17
1.05819e+17
1.0579e+17
1.05777e+17
1.05776e+17
1.05786e+17
1.05812e+17
1.05606e+17
1.06931e+17
1.06334e+17
1.06392e+17
1.06317e+17
1.06287e+17
1.06265e+17
1.06258e+17
1.0626e+17
1.06266e+17
1.06286e+17
1.05683e+17
1.07392e+17
1.067e+17
1.06805e+17
1.06739e+17
1.06706e+17
1.06669e+17
1.06646e+17
1.06639e+17
1.06644e+17
1.06658e+17
1.05808e+17
1.07869e+17
1.06951e+17
1.07143e+17
1.07227e+17
1.07387e+17
1.07538e+17
1.07664e+17
1.07752e+17
1.07786e+17
1.07789e+17
1.07267e+17
1.09628e+17
1.07607e+17
1.06815e+17
1.05891e+17
1.05156e+17
1.0457e+17
1.04147e+17
1.03883e+17
1.03753e+17
1.03688e+17
1.07834e+17
1.14454e+17
1.15073e+17
1.16926e+17
1.1818e+17
1.19225e+17
1.2003e+17
1.2064e+17
1.21087e+17
1.21369e+17
1.21445e+17
1.01157e+17
1.00023e+17
9.42548e+16
9.19389e+16
9.00341e+16
8.86789e+16
8.76472e+16
8.68645e+16
8.62792e+16
8.5831e+16
8.53965e+16
9.6055e+16
9.98488e+16
1.03806e+17
1.06249e+17
1.07714e+17
1.08673e+17
1.09248e+17
1.0946e+17
1.094e+17
1.0913e+17
1.08644e+17
1.0798e+17
1.07068e+17
1.06123e+17
1.05309e+17
1.04492e+17
1.03712e+17
1.03129e+17
1.0199e+17
1.01898e+17
1.00851e+17
9.91275e+16
9.86383e+16
9.78355e+16
9.73256e+16
9.69155e+16
9.65287e+16
9.60422e+16
9.52817e+16
9.41079e+16
9.24333e+16
9.02357e+16
8.69281e+16
8.28386e+16
7.99994e+16
1.19147e+17
1.16108e+17
1.14479e+17
1.13033e+17
1.11753e+17
1.10658e+17
1.09713e+17
1.08844e+17
1.08064e+17
1.07348e+17
1.0661e+17
1.058e+17
1.04776e+17
1.03803e+17
1.03005e+17
1.02168e+17
1.01323e+17
1.00535e+17
9.94043e+16
9.89149e+16
9.7916e+16
9.71061e+16
9.69169e+16
9.64372e+16
9.59725e+16
9.5528e+16
9.52174e+16
9.50787e+16
9.50703e+16
9.5229e+16
9.56618e+16
9.65552e+16
9.75818e+16
9.85596e+16
1.0096e+17
1.12329e+17
1.13353e+17
1.1284e+17
1.12101e+17
1.11396e+17
1.10642e+17
1.09863e+17
1.09048e+17
1.0823e+17
1.07276e+17
1.05998e+17
1.04499e+17
1.03083e+17
1.02191e+17
1.0162e+17
1.00991e+17
1.00279e+17
9.94772e+16
9.84743e+16
9.77553e+16
9.71209e+16
9.66553e+16
9.66997e+16
9.70208e+16
9.74594e+16
9.77235e+16
9.78425e+16
9.79718e+16
9.81028e+16
9.81799e+16
9.82199e+16
9.86124e+16
9.86535e+16
9.70854e+16
9.52154e+16
1.08297e+17
1.0782e+17
1.07092e+17
1.06648e+17
1.06385e+17
1.06182e+17
1.06017e+17
1.05831e+17
1.05668e+17
1.05578e+17
1.05522e+17
1.05506e+17
1.05433e+17
1.05323e+17
1.0519e+17
1.04943e+17
1.04642e+17
1.04317e+17
1.03971e+17
1.03685e+17
1.03147e+17
1.02397e+17
1.01791e+17
1.0112e+17
1.00423e+17
9.97082e+16
9.90407e+16
9.84184e+16
9.77702e+16
9.70984e+16
9.63899e+16
9.5845e+16
9.51982e+16
9.43319e+16
9.41605e+16
1.01792e+17
1.01594e+17
1.00856e+17
1.00474e+17
1.00217e+17
9.99738e+16
9.97341e+16
9.94644e+16
9.91986e+16
9.89252e+16
9.86029e+16
9.82804e+16
9.7983e+16
9.77758e+16
9.75629e+16
9.72557e+16
9.68927e+16
9.64925e+16
9.60587e+16
9.56233e+16
9.51526e+16
9.46175e+16
9.42171e+16
9.39007e+16
9.35857e+16
9.32272e+16
9.28282e+16
9.24412e+16
9.20333e+16
9.16061e+16
9.11384e+16
9.08944e+16
9.07594e+16
9.00104e+16
8.89842e+16
1.02905e+17
1.02599e+17
1.02025e+17
1.01782e+17
1.0158e+17
1.0136e+17
1.01123e+17
1.00851e+17
1.00579e+17
1.00301e+17
9.99982e+16
9.97068e+16
9.94437e+16
9.92326e+16
9.89796e+16
9.86441e+16
9.82605e+16
9.78497e+16
9.74263e+16
9.6996e+16
9.6561e+16
9.60685e+16
9.56838e+16
9.53885e+16
9.50866e+16
9.47474e+16
9.43616e+16
9.39824e+16
9.35802e+16
9.31562e+16
9.26619e+16
9.23405e+16
9.22459e+16
9.16229e+16
9.05161e+16
1.02329e+17
1.02006e+17
1.01567e+17
1.01381e+17
1.01187e+17
1.00967e+17
1.00723e+17
1.00453e+17
1.00183e+17
9.99027e+16
9.9612e+16
9.93433e+16
9.91196e+16
9.89295e+16
9.8675e+16
9.83462e+16
9.79708e+16
9.75711e+16
9.7161e+16
9.67396e+16
9.63162e+16
9.58392e+16
9.54523e+16
9.51574e+16
9.48649e+16
9.45426e+16
9.41669e+16
9.37935e+16
9.33997e+16
9.29902e+16
9.24905e+16
9.21228e+16
9.21102e+16
9.17062e+16
9.05403e+16
1.02193e+17
1.01902e+17
1.01591e+17
1.01424e+17
1.01228e+17
1.01005e+17
1.00754e+17
1.00483e+17
1.00211e+17
9.99257e+16
9.9643e+16
9.93857e+16
9.91806e+16
9.89932e+16
9.87265e+16
9.83936e+16
9.80163e+16
9.7619e+16
9.72131e+16
9.67995e+16
9.63808e+16
9.59171e+16
9.55374e+16
9.52457e+16
9.49609e+16
9.46507e+16
9.42828e+16
9.39143e+16
9.35258e+16
9.31278e+16
9.26258e+16
9.22122e+16
9.22171e+16
9.198e+16
9.08295e+16
1.02022e+17
1.01786e+17
1.01568e+17
1.01393e+17
1.01194e+17
1.00968e+17
1.00712e+17
1.00442e+17
1.00168e+17
9.98818e+16
9.96073e+16
9.936e+16
9.91704e+16
9.89868e+16
9.87138e+16
9.83808e+16
9.80041e+16
9.761e+16
9.72079e+16
9.67991e+16
9.63829e+16
9.59237e+16
9.55493e+16
9.52589e+16
9.49763e+16
9.46722e+16
9.4308e+16
9.39419e+16
9.35555e+16
9.31652e+16
9.26642e+16
9.22204e+16
9.22231e+16
9.21044e+16
9.09933e+16
1.01909e+17
1.01733e+17
1.01578e+17
1.01387e+17
1.01188e+17
1.00958e+17
1.00699e+17
1.0043e+17
1.00155e+17
9.98671e+16
9.95988e+16
9.93581e+16
9.91786e+16
9.89965e+16
9.87182e+16
9.83844e+16
9.80077e+16
9.76155e+16
9.72157e+16
9.68093e+16
9.6396e+16
9.5938e+16
9.55667e+16
9.52791e+16
9.49978e+16
9.46968e+16
9.43348e+16
9.39703e+16
9.35851e+16
9.31996e+16
9.27001e+16
9.22382e+16
9.22324e+16
9.21877e+16
9.11133e+16
1.01827e+17
1.01705e+17
1.01591e+17
1.01383e+17
1.01185e+17
1.00953e+17
1.00691e+17
1.00422e+17
1.00147e+17
9.9858e+16
9.95946e+16
9.93584e+16
9.91859e+16
9.90047e+16
9.87225e+16
9.83883e+16
9.80117e+16
9.76206e+16
9.72223e+16
9.68174e+16
9.6406e+16
9.59487e+16
9.55782e+16
9.52923e+16
9.50129e+16
9.47136e+16
9.43527e+16
9.39889e+16
9.36045e+16
9.32218e+16
9.27234e+16
9.22512e+16
9.22384e+16
9.22382e+16
9.11884e+16
1.01771e+17
1.01694e+17
1.01606e+17
1.01384e+17
1.01188e+17
1.00953e+17
1.0069e+17
1.00422e+17
1.00146e+17
9.98559e+16
9.95961e+16
9.93629e+16
9.91953e+16
9.90144e+16
9.87293e+16
9.83948e+16
9.80182e+16
9.76276e+16
9.72303e+16
9.68265e+16
9.6416e+16
9.59594e+16
9.55899e+16
9.53037e+16
9.50252e+16
9.47275e+16
9.43675e+16
9.40042e+16
9.362e+16
9.3239e+16
9.27414e+16
9.22634e+16
9.22462e+16
9.22728e+16
9.12354e+16
1.01735e+17
1.01693e+17
1.01622e+17
1.01387e+17
1.01194e+17
1.00957e+17
1.00692e+17
1.00425e+17
1.00149e+17
9.98581e+16
9.96007e+16
9.93697e+16
9.92055e+16
9.90248e+16
9.87375e+16
9.84028e+16
9.80258e+16
9.7636e+16
9.72392e+16
9.68361e+16
9.64261e+16
9.59697e+16
9.56013e+16
9.53155e+16
9.50367e+16
9.47391e+16
9.438e+16
9.40176e+16
9.36334e+16
9.32534e+16
9.2756e+16
9.22748e+16
9.22555e+16
9.22988e+16
9.1265e+16
1.01713e+17
1.01697e+17
1.01637e+17
1.01393e+17
1.01202e+17
1.00964e+17
1.00698e+17
1.00431e+17
1.00155e+17
9.98634e+16
9.96079e+16
9.93784e+16
9.92165e+16
9.90359e+16
9.87469e+16
9.8412e+16
9.80348e+16
9.76455e+16
9.72489e+16
9.6846e+16
9.64366e+16
9.59803e+16
9.56124e+16
9.53273e+16
9.50486e+16
9.4751e+16
9.43914e+16
9.40293e+16
9.3646e+16
9.32666e+16
9.27691e+16
9.22858e+16
9.22659e+16
9.23206e+16
9.12854e+16
1.01701e+17
1.01704e+17
1.01652e+17
1.01402e+17
1.01212e+17
1.00973e+17
1.00707e+17
1.0044e+17
1.00163e+17
9.98711e+16
9.96168e+16
9.93882e+16
9.9228e+16
9.90476e+16
9.87574e+16
9.84222e+16
9.80449e+16
9.76555e+16
9.72592e+16
9.68566e+16
9.64474e+16
9.59913e+16
9.56239e+16
9.5339e+16
9.50604e+16
9.47629e+16
9.44031e+16
9.4041e+16
9.36579e+16
9.32791e+16
9.27816e+16
9.22965e+16
9.22771e+16
9.23404e+16
9.13018e+16
1.01697e+17
1.01714e+17
1.01667e+17
1.01412e+17
1.01222e+17
1.00983e+17
1.00716e+17
1.0045e+17
1.00172e+17
9.98803e+16
9.96268e+16
9.93988e+16
9.92397e+16
9.90594e+16
9.87684e+16
9.84331e+16
9.80555e+16
9.76663e+16
9.727e+16
9.68678e+16
9.64586e+16
9.60024e+16
9.56356e+16
9.5351e+16
9.50724e+16
9.47748e+16
9.4415e+16
9.40531e+16
9.36698e+16
9.32914e+16
9.27939e+16
9.23071e+16
9.22887e+16
9.23594e+16
9.13171e+16
1.01697e+17
1.01726e+17
1.0168e+17
1.01423e+17
1.01234e+17
1.00995e+17
1.00727e+17
1.0046e+17
1.00183e+17
9.98905e+16
9.96376e+16
9.94101e+16
9.92518e+16
9.90714e+16
9.87797e+16
9.84443e+16
9.80666e+16
9.76775e+16
9.72811e+16
9.68791e+16
9.64701e+16
9.60139e+16
9.56472e+16
9.53631e+16
9.50844e+16
9.4787e+16
9.44271e+16
9.40651e+16
9.3682e+16
9.33037e+16
9.28063e+16
9.23178e+16
9.23003e+16
9.23778e+16
9.13329e+16
1.01699e+17
1.01738e+17
1.01694e+17
1.01435e+17
1.01246e+17
1.01006e+17
1.00738e+17
1.00472e+17
1.00194e+17
9.99014e+16
9.96488e+16
9.94217e+16
9.92641e+16
9.90835e+16
9.87915e+16
9.84558e+16
9.80781e+16
9.7689e+16
9.72928e+16
9.68907e+16
9.64818e+16
9.60256e+16
9.56589e+16
9.53749e+16
9.50965e+16
9.47991e+16
9.44391e+16
9.40772e+16
9.36942e+16
9.33162e+16
9.28185e+16
9.23287e+16
9.2312e+16
9.23954e+16
9.13501e+16
1.01703e+17
1.01752e+17
1.01707e+17
1.01447e+17
1.01258e+17
1.01018e+17
1.0075e+17
1.00483e+17
1.00205e+17
9.99128e+16
9.96602e+16
9.94335e+16
9.92762e+16
9.90958e+16
9.88034e+16
9.84675e+16
9.80897e+16
9.77006e+16
9.73044e+16
9.69024e+16
9.64935e+16
9.60372e+16
9.56705e+16
9.53867e+16
9.51085e+16
9.48111e+16
9.44511e+16
9.40891e+16
9.37062e+16
9.33286e+16
9.28308e+16
9.23398e+16
9.23237e+16
9.24119e+16
9.13692e+16
1.01707e+17
1.01767e+17
1.01719e+17
1.0146e+17
1.0127e+17
1.0103e+17
1.00761e+17
1.00495e+17
1.00217e+17
9.99241e+16
9.96717e+16
9.94454e+16
9.92883e+16
9.91079e+16
9.88151e+16
9.8479e+16
9.81011e+16
9.77118e+16
9.73157e+16
9.69138e+16
9.65049e+16
9.60486e+16
9.5682e+16
9.53984e+16
9.51203e+16
9.48227e+16
9.4463e+16
9.41006e+16
9.37178e+16
9.33404e+16
9.28425e+16
9.23508e+16
9.23347e+16
9.2426e+16
9.13895e+16
1.01709e+17
1.01783e+17
1.01731e+17
1.01472e+17
1.01282e+17
1.01042e+17
1.00773e+17
1.00506e+17
1.00228e+17
9.99349e+16
9.96828e+16
9.94571e+16
9.93004e+16
9.91199e+16
9.88266e+16
9.849e+16
9.8112e+16
9.77226e+16
9.73266e+16
9.69248e+16
9.65158e+16
9.60596e+16
9.5693e+16
9.54097e+16
9.51316e+16
9.48339e+16
9.44742e+16
9.41115e+16
9.37289e+16
9.33517e+16
9.28536e+16
9.23614e+16
9.2345e+16
9.2438e+16
9.14106e+16
1.01707e+17
1.01801e+17
1.01742e+17
1.01484e+17
1.01293e+17
1.01054e+17
1.00783e+17
1.00516e+17
1.00238e+17
9.99454e+16
9.96934e+16
9.94684e+16
9.93121e+16
9.91314e+16
9.88375e+16
9.85005e+16
9.81222e+16
9.77327e+16
9.73366e+16
9.69351e+16
9.65259e+16
9.60698e+16
9.57034e+16
9.54203e+16
9.51422e+16
9.48444e+16
9.44845e+16
9.41214e+16
9.37392e+16
9.3362e+16
9.28636e+16
9.23714e+16
9.23545e+16
9.24486e+16
9.14324e+16
1.01701e+17
1.0182e+17
1.01752e+17
1.01496e+17
1.01304e+17
1.01064e+17
1.00794e+17
1.00526e+17
1.00247e+17
9.99549e+16
9.97036e+16
9.94792e+16
9.93233e+16
9.91424e+16
9.88479e+16
9.851e+16
9.81316e+16
9.77419e+16
9.73456e+16
9.69443e+16
9.65348e+16
9.60789e+16
9.57127e+16
9.54297e+16
9.51515e+16
9.48535e+16
9.44936e+16
9.41299e+16
9.3748e+16
9.33707e+16
9.28721e+16
9.23801e+16
9.23628e+16
9.24574e+16
9.14544e+16
1.01689e+17
1.01841e+17
1.01762e+17
1.01507e+17
1.01315e+17
1.01074e+17
1.00802e+17
1.00535e+17
1.00255e+17
9.99632e+16
9.97125e+16
9.94893e+16
9.9334e+16
9.91527e+16
9.88571e+16
9.85184e+16
9.81396e+16
9.77497e+16
9.73533e+16
9.6952e+16
9.65423e+16
9.60865e+16
9.57205e+16
9.54378e+16
9.51594e+16
9.48609e+16
9.45007e+16
9.41366e+16
9.37547e+16
9.33774e+16
9.28785e+16
9.23871e+16
9.23696e+16
9.24638e+16
9.14758e+16
1.01669e+17
1.01864e+17
1.0177e+17
1.01516e+17
1.01324e+17
1.01082e+17
1.0081e+17
1.00541e+17
1.00261e+17
9.997e+16
9.97201e+16
9.94987e+16
9.93442e+16
9.91622e+16
9.88651e+16
9.85252e+16
9.81457e+16
9.77555e+16
9.73591e+16
9.69577e+16
9.6548e+16
9.60921e+16
9.57265e+16
9.54441e+16
9.51654e+16
9.48661e+16
9.45054e+16
9.41406e+16
9.37589e+16
9.33814e+16
9.2882e+16
9.23919e+16
9.23743e+16
9.24674e+16
9.14956e+16
1.01639e+17
1.01891e+17
1.01776e+17
1.01524e+17
1.01332e+17
1.01089e+17
1.00815e+17
1.00546e+17
1.00265e+17
9.99746e+16
9.97262e+16
9.95069e+16
9.93536e+16
9.91707e+16
9.88717e+16
9.85298e+16
9.81495e+16
9.77589e+16
9.73623e+16
9.6961e+16
9.65511e+16
9.60949e+16
9.57297e+16
9.54479e+16
9.51686e+16
9.48683e+16
9.45069e+16
9.41411e+16
9.37597e+16
9.33819e+16
9.28817e+16
9.23934e+16
9.23761e+16
9.24676e+16
9.15131e+16
1.01597e+17
1.01922e+17
1.01781e+17
1.0153e+17
1.01338e+17
1.01094e+17
1.00818e+17
1.00548e+17
1.00266e+17
9.99768e+16