/*--------------------------------*- C++ -*----------------------------------*\
| =========                 |                                                 |
| \\      /  F ield         | OpenFOAM: The Open Source CFD Toolbox           |
|  \\    /   O peration     | Version:  2406                                  |
|   \\  /    A nd           | Website:  www.openfoam.com                      |
|    \\/     M anipulation  |                                                 |
\*---------------------------------------------------------------------------*/
FoamFile
{
    version     2.0;
    format      ascii;
    arch        "LSB;label=32;scalar=64";
    class       volScalarField;
    location    "0/neutroRegion";
    object      prec7;
}
// * * * * * * * * * * * * * * * * * * * * * * * * * * * * * * * * * * * * * //

dimensions      [0 -3 0 0 0 0 0];

internalField   nonuniform List<scalar> 
8595
(
8.53833e+11
1.07301e+12
1.04624e+12
1.12407e+12
1.18614e+12
1.27654e+12
1.39542e+12
1.49262e+12
1.5571e+12
1.57633e+12
1.54755e+12
1.47714e+12
1.35894e+12
1.27411e+12
1.13081e+12
1.31018e+12
1.27963e+12
2.58379e+12
1.09617e+12
9.76661e+11
9.9043e+11
9.85352e+11
9.59476e+11
9.32327e+11
9.06699e+11
8.81172e+11
8.55685e+11
8.30495e+11
8.05722e+11
7.81421e+11
7.57646e+11
7.34443e+11
7.11844e+11
6.89867e+11
6.68524e+11
6.47818e+11
6.2775e+11
6.08312e+11
5.89495e+11
5.71291e+11
5.53686e+11
5.36671e+11
5.20238e+11
5.04379e+11
4.89093e+11
4.74388e+11
4.60283e+11
4.46819e+11
4.34053e+11
4.22159e+11
4.11067e+11
4.02479e+11
3.90712e+11
4.07297e+11
4.4068e+11
1.10976e+12
8.01948e+11
6.51725e+11
9.66535e+11
1.17256e+12
1.48868e+12
1.79549e+12
2.12233e+12
2.40998e+12
2.7252e+12
3.00729e+12
3.1781e+12
3.23449e+12
3.1782e+12
3.00974e+12
2.88955e+12
2.70921e+12
2.88489e+12
2.91993e+12
4.82731e+12
2.0531e+12
1.82678e+12
1.83315e+12
1.80791e+12
1.75201e+12
1.69435e+12
1.63932e+12
1.58558e+12
1.53334e+12
1.48308e+12
1.43487e+12
1.38864e+12
1.34428e+12
1.30169e+12
1.26076e+12
1.22138e+12
1.18343e+12
1.14685e+12
1.11153e+12
1.0774e+12
1.04438e+12
1.01242e+12
9.81432e+11
9.51352e+11
9.22105e+11
8.93601e+11
8.65734e+11
8.3837e+11
8.11329e+11
7.84367e+11
7.57119e+11
7.29185e+11
6.99406e+11
6.68996e+11
6.26221e+11
6.15423e+11
5.74086e+11
1.18657e+12
7.34238e+11
6.37163e+11
9.88456e+11
1.21049e+12
1.49312e+12
1.72438e+12
2.00348e+12
2.42602e+12
2.9759e+12
3.51731e+12
3.84947e+12
4.03613e+12
4.06046e+12
3.96354e+12
3.87365e+12
3.73093e+12
3.92365e+12
3.99403e+12
5.74185e+12
2.4187e+12
2.14994e+12
2.15396e+12
2.12085e+12
2.05537e+12
1.98999e+12
1.92921e+12
1.87027e+12
1.81288e+12
1.7573e+12
1.70356e+12
1.65158e+12
1.6013e+12
1.55266e+12
1.5056e+12
1.46006e+12
1.41598e+12
1.3733e+12
1.33197e+12
1.29196e+12
1.25319e+12
1.21558e+12
1.17907e+12
1.14363e+12
1.10919e+12
1.07568e+12
1.04301e+12
1.01106e+12
9.79687e+11
9.48685e+11
9.17731e+11
8.86486e+11
8.53676e+11
8.20923e+11
7.73448e+11
7.6584e+11
7.18206e+11
1.44918e+12
8.33094e+11
5.88383e+11
9.2128e+11
1.08689e+12
1.28489e+12
1.4304e+12
1.72933e+12
2.52283e+12
3.40177e+12
4.26748e+12
4.77732e+12
5.07899e+12
5.21404e+12
5.2025e+12
5.15332e+12
5.0415e+12
5.24715e+12
5.32743e+12
7.08472e+12
2.98372e+12
2.67059e+12
2.6938e+12
2.65982e+12
2.58242e+12
2.50234e+12
2.42474e+12
2.34812e+12
2.27311e+12
2.20057e+12
2.13073e+12
2.06357e+12
1.99898e+12
1.93686e+12
1.87706e+12
1.81945e+12
1.76389e+12
1.71025e+12
1.65841e+12
1.60825e+12
1.55968e+12
1.5126e+12
1.46692e+12
1.42253e+12
1.37931e+12
1.33712e+12
1.29579e+12
1.25512e+12
1.21483e+12
1.17452e+12
1.13363e+12
1.09152e+12
1.0464e+12
1.00022e+12
9.34738e+11
9.17486e+11
8.52418e+11
1.67292e+12
9.14138e+11
5.41157e+11
8.41434e+11
9.3984e+11
1.03378e+12
9.82128e+11
1.50428e+12
2.84551e+12
4.01666e+12
4.97307e+12
5.67548e+12
6.12451e+12
6.36194e+12
6.42035e+12
6.40876e+12
6.32275e+12
6.53452e+12
6.58503e+12
8.24832e+12
3.47522e+12
3.09301e+12
3.11742e+12
3.07292e+12
2.97858e+12
2.88475e+12
2.79554e+12
2.70818e+12
2.62296e+12
2.54061e+12
2.46128e+12
2.38487e+12
2.31125e+12
2.2403e+12
2.17188e+12
2.10583e+12
2.04203e+12
1.98034e+12
1.92066e+12
1.86286e+12
1.80686e+12
1.75254e+12
1.69981e+12
1.64855e+12
1.59865e+12
1.54996e+12
1.50232e+12
1.45549e+12
1.40918e+12
1.36296e+12
1.31617e+12
1.26809e+12
1.21648e+12
1.16356e+12
1.08708e+12
1.06668e+12
9.87738e+11
1.90294e+12
9.98987e+11
4.88192e+11
7.62978e+11
8.07176e+11
8.3934e+11
8.15817e+11
2.04534e+12
3.56083e+12
4.96501e+12
6.10289e+12
6.93386e+12
7.4705e+12
7.76199e+12
7.85203e+12
7.84956e+12
7.76126e+12
7.95167e+12
7.92734e+12
9.45806e+12
3.98931e+12
3.52848e+12
3.56091e+12
3.51271e+12
3.40443e+12
3.29769e+12
3.19589e+12
3.09568e+12
2.99774e+12
2.90307e+12
2.8119e+12
2.72414e+12
2.63967e+12
2.55832e+12
2.47992e+12
2.40431e+12
2.3313e+12
2.26076e+12
2.19253e+12
2.12647e+12
2.06244e+12
2.00037e+12
1.94011e+12
1.88152e+12
1.82445e+12
1.76874e+12
1.71418e+12
1.66049e+12
1.6073e+12
1.55411e+12
1.50016e+12
1.44461e+12
1.38488e+12
1.3238e+12
1.23541e+12
1.21237e+12
1.12098e+12
2.13417e+12
1.08481e+12
4.44935e+11
6.83833e+11
6.88194e+11
6.71856e+11
1.62637e+12
3.32487e+12
5.08568e+12
6.61602e+12
7.81345e+12
8.6671e+12
9.20449e+12
9.48117e+12
9.54707e+12
9.50946e+12
9.37706e+12
9.50684e+12
9.35325e+12
1.07033e+13
4.5174e+12
3.96265e+12
4.00047e+12
3.9473e+12
3.82319e+12
3.70305e+12
3.5891e+12
3.47674e+12
3.36681e+12
3.26055e+12
3.15818e+12
3.05964e+12
2.9648e+12
2.87346e+12
2.78545e+12
2.70057e+12
2.61863e+12
2.53944e+12
2.46285e+12
2.3887e+12
2.31685e+12
2.24716e+12
2.17949e+12
2.11368e+12
2.04958e+12
1.987e+12
1.92569e+12
1.86535e+12
1.80556e+12
1.74577e+12
1.68507e+12
1.62256e+12
1.55524e+12
1.48653e+12
1.38629e+12
1.3614e+12
1.25623e+12
2.37126e+12
1.17215e+12
3.897e+11
5.83126e+11
5.81213e+11
1.59829e+12
3.64161e+12
5.72594e+12
7.55641e+12
9.03433e+12
1.01411e+13
1.08978e+13
1.13421e+13
1.15307e+13
1.15128e+13
1.13908e+13
1.11664e+13
1.119e+13
1.08506e+13
1.19811e+13
5.05761e+12
4.39569e+12
4.43697e+12
4.37431e+12
4.23155e+12
4.09463e+12
3.96675e+12
3.84151e+12
3.71959e+12
3.60212e+12
3.48917e+12
3.38053e+12
3.27599e+12
3.17533e+12
3.0783e+12
2.9847e+12
2.8943e+12
2.80691e+12
2.72235e+12
2.64047e+12
2.5611e+12
2.48409e+12
2.4093e+12
2.33656e+12
2.26569e+12
2.19649e+12
2.12869e+12
2.06196e+12
1.99583e+12
1.92969e+12
1.86256e+12
1.79346e+12
1.71898e+12
1.64329e+12
1.53183e+12
1.50675e+12
1.38725e+12
2.61075e+12
1.26077e+12
4.32356e+11
5.258e+11
2.7985e+12
5.34341e+12
7.53007e+12
9.38429e+12
1.09089e+13
1.21019e+13
1.29674e+13
1.35243e+13
1.38026e+13
1.38499e+13
1.37063e+13
1.34616e+13
1.31004e+13
1.29689e+13
1.24052e+13
1.33129e+13
5.60567e+12
4.84041e+12
4.9028e+12
4.84739e+12
4.6954e+12
4.54586e+12
4.40404e+12
4.26369e+12
4.12653e+12
3.99429e+12
3.86725e+12
3.74527e+12
3.62814e+12
3.51559e+12
3.40733e+12
3.30306e+12
3.2025e+12
3.10541e+12
3.01156e+12
2.92075e+12
2.83278e+12
2.74747e+12
2.66463e+12
2.58408e+12
2.50562e+12
2.429e+12
2.35394e+12
2.28006e+12
2.20688e+12
2.13373e+12
2.05959e+12
1.98347e+12
1.90167e+12
1.81949e+12
1.69701e+12
1.67564e+12
1.54042e+12
2.88618e+12
1.35744e+12
7.37546e+12
8.1254e+12
9.75089e+12
1.1149e+13
1.24313e+13
1.36148e+13
1.46324e+13
1.5426e+13
1.59638e+13
1.62438e+13
1.62854e+13
1.61291e+13
1.58126e+13
1.54212e+13
1.49382e+13
1.46964e+13
1.40098e+13
1.47665e+13
6.12337e+12
5.22881e+12
5.25879e+12
5.17428e+12
4.99972e+12
4.83835e+12
4.68922e+12
4.54319e+12
4.40091e+12
4.26352e+12
4.13105e+12
4.00334e+12
3.88018e+12
3.76139e+12
3.64673e+12
3.53599e+12
3.42895e+12
3.32541e+12
3.2252e+12
3.12812e+12
3.03402e+12
2.94273e+12
2.85408e+12
2.7679e+12
2.68401e+12
2.60217e+12
2.52211e+12
2.44349e+12
2.36581e+12
2.28841e+12
2.21024e+12
2.13027e+12
2.04434e+12
1.9585e+12
1.82796e+12
1.80962e+12
1.66422e+12
3.15163e+12
1.48111e+12
1.50747e+12
1.36706e+12
1.27862e+12
1.20482e+12
1.13507e+12
1.07101e+12
1.01188e+12
9.62314e+11
8.94319e+11
1.03773e+12
2.91886e+12
2.65934e+12
2.39974e+12
2.19907e+12
2.00835e+12
1.8359e+12
1.67656e+12
1.53789e+12
1.37239e+12
1.47356e+12
1.41257e+12
1.31794e+12
1.18892e+12
1.08748e+12
9.83353e+11
8.86904e+11
7.95259e+11
7.13535e+11
6.33957e+11
5.83524e+11
1.52867e+12
1.42036e+12
1.27749e+12
1.16296e+12
1.047e+12
9.40009e+11
8.3663e+11
7.40806e+11
6.64047e+11
5.2771e+11
1.51448e+12
1.41256e+12
1.27857e+12
1.16647e+12
1.05108e+12
9.43401e+11
8.3858e+11
7.3571e+11
6.66752e+11
5.05348e+11
1.60513e+12
1.49725e+12
1.35704e+12
1.23769e+12
1.11446e+12
9.9894e+11
8.8696e+11
7.71904e+11
7.05541e+11
5.20942e+11
1.66227e+12
1.55203e+12
1.40855e+12
1.28506e+12
1.15703e+12
1.03643e+12
9.20227e+11
7.96537e+11
7.32534e+11
5.32637e+11
1.72161e+12
1.60838e+12
1.46055e+12
1.33266e+12
1.19976e+12
1.07417e+12
9.53871e+11
8.2269e+11
7.59767e+11
5.47687e+11
1.77817e+12
1.66203e+12
1.50978e+12
1.37774e+12
1.24032e+12
1.11014e+12
9.86027e+11
8.48494e+11
7.8586e+11
5.63828e+11
1.8347e+12
1.71546e+12
1.55858e+12
1.42239e+12
1.28053e+12
1.1459e+12
1.018e+12
8.74769e+11
8.11846e+11
5.81111e+11
1.89173e+12
1.76921e+12
1.60757e+12
1.46719e+12
1.32089e+12
1.18188e+12
1.05015e+12
9.01605e+11
8.38022e+11
5.99292e+11
1.94985e+12
1.82388e+12
1.65732e+12
1.51266e+12
1.36187e+12
1.21845e+12
1.08283e+12
9.29142e+11
8.64664e+11
6.18285e+11
2.00939e+12
1.87982e+12
1.70819e+12
1.55913e+12
1.40376e+12
1.25585e+12
1.11625e+12
9.57455e+11
8.91945e+11
6.38032e+11
2.07058e+12
1.93727e+12
1.76041e+12
1.60681e+12
1.44675e+12
1.29425e+12
1.15057e+12
9.86602e+11
9.19989e+11
6.58501e+11
2.1336e+12
1.99641e+12
1.81414e+12
1.65587e+12
1.491e+12
1.33377e+12
1.1859e+12
1.01663e+12
9.48883e+11
6.79682e+11
2.19855e+12
2.05736e+12
1.86952e+12
1.70641e+12
1.53659e+12
1.37448e+12
1.2223e+12
1.04758e+12
9.78693e+11
7.01574e+11
2.26553e+12
2.12022e+12
1.92663e+12
1.75852e+12
1.58361e+12
1.41645e+12
1.25986e+12
1.07948e+12
1.00948e+12
7.24182e+11
2.33463e+12
2.18505e+12
1.98556e+12
1.81226e+12
1.63212e+12
1.45974e+12
1.29861e+12
1.11236e+12
1.04128e+12
7.47515e+11
2.40589e+12
2.25189e+12
2.04634e+12
1.86767e+12
1.68216e+12
1.50439e+12
1.33861e+12
1.14627e+12
1.07413e+12
7.71588e+11
2.47938e+12
2.32079e+12
2.10904e+12
1.9248e+12
1.73378e+12
1.55044e+12
1.37987e+12
1.18122e+12
1.10808e+12
7.96415e+11
2.55506e+12
2.39173e+12
2.1737e+12
1.98368e+12
1.787e+12
1.59792e+12
1.42244e+12
1.21725e+12
1.14315e+12
8.22013e+11
2.63296e+12
2.46472e+12
2.24026e+12
2.04425e+12
1.84186e+12
1.64687e+12
1.46634e+12
1.2544e+12
1.17938e+12
8.48403e+11
2.71306e+12
2.53977e+12
2.30875e+12
2.10652e+12
1.89827e+12
1.69723e+12
1.51158e+12
1.29271e+12
1.2168e+12
8.75606e+11
2.79531e+12
2.61682e+12
2.37914e+12
2.17048e+12
1.95626e+12
1.749e+12
1.55807e+12
1.33221e+12
1.25542e+12
9.03645e+11
2.87962e+12
2.6958e+12
2.45135e+12
2.23605e+12
2.01577e+12
1.80216e+12
1.60585e+12
1.3728e+12
1.29526e+12
9.32554e+11
2.96582e+12
2.77656e+12
2.52528e+12
2.30312e+12
2.07671e+12
1.85666e+12
1.65487e+12
1.41447e+12
1.33629e+12
9.62366e+11
3.05371e+12
2.85889e+12
2.60075e+12
2.37154e+12
2.13896e+12
1.9124e+12
1.70505e+12
1.4572e+12
1.37853e+12
9.93062e+11
3.14296e+12
2.94246e+12
2.67749e+12
2.44104e+12
2.2023e+12
1.96924e+12
1.75627e+12
1.50093e+12
1.42203e+12
1.02456e+12
3.23309e+12
3.02681e+12
2.75511e+12
2.51128e+12
2.26642e+12
2.02694e+12
1.80834e+12
1.54557e+12
1.46677e+12
1.05683e+12
3.32345e+12
3.11126e+12
2.83304e+12
2.58173e+12
2.33088e+12
2.08518e+12
1.86099e+12
1.59096e+12
1.5127e+12
1.08985e+12
3.41311e+12
3.19486e+12
2.91048e+12
2.65168e+12
2.39507e+12
2.14345e+12
1.91385e+12
1.63688e+12
1.55976e+12
1.12356e+12
3.50081e+12
3.2763e+12
2.98625e+12
2.72012e+12
2.45807e+12
2.20108e+12
1.96637e+12
1.68302e+12
1.60782e+12
1.1579e+12
3.58454e+12
3.35342e+12
3.05843e+12
2.78536e+12
2.51843e+12
2.25685e+12
2.01758e+12
1.72877e+12
1.65654e+12
1.19268e+12
3.66091e+12
3.42274e+12
3.1239e+12
2.84476e+12
2.5739e+12
2.30896e+12
2.0661e+12
1.77323e+12
1.70545e+12
1.22759e+12
3.72818e+12
3.48251e+12
3.18105e+12
2.89694e+12
2.62322e+12
2.35648e+12
2.11143e+12
1.8166e+12
1.7554e+12
1.26351e+12
3.79017e+12
3.53444e+12
3.23062e+12
2.942e+12
2.66593e+12
2.39876e+12
2.15319e+12
1.85918e+12
1.80737e+12
1.30138e+12
3.80445e+12
3.53282e+12
3.23232e+12
2.94659e+12
2.67437e+12
2.41261e+12
2.17128e+12
1.88342e+12
1.84338e+12
1.32681e+12
3.65273e+12
3.38372e+12
3.1108e+12
2.84743e+12
2.59425e+12
2.35248e+12
2.12938e+12
1.86414e+12
1.84385e+12
1.32718e+12
4.01031e+12
3.70702e+12
3.39734e+12
3.09112e+12
2.80372e+12
2.54269e+12
2.31409e+12
2.06271e+12
2.08322e+12
1.51749e+12
9.93649e+12
8.99946e+12
8.21161e+12
7.52177e+12
6.92074e+12
6.40933e+12
5.9946e+12
5.52114e+12
5.78469e+12
4.38781e+12
6.89438e+12
5.9404e+12
5.18839e+12
4.57783e+12
4.08284e+12
3.67659e+12
3.34131e+12
2.91447e+12
2.67008e+12
1.52498e+12
4.99619e+12
4.12636e+12
3.50935e+12
3.07261e+12
2.78035e+12
2.54849e+12
2.29165e+12
2.06554e+12
2.08762e+12
1.4053e+12
2.92436e+12
2.24261e+12
1.82434e+12
1.5815e+12
1.38002e+12
1.29599e+12
1.36996e+12
1.44812e+12
1.63491e+12
1.20365e+12
1.33783e+12
9.47028e+11
7.51088e+11
6.35674e+11
6.68116e+11
7.9801e+11
9.78048e+11
1.1363e+12
1.36765e+12
1.06018e+12
4.42531e+11
3.06964e+11
2.50078e+11
2.72412e+11
3.99012e+11
5.70376e+11
7.66882e+11
9.39935e+11
1.16742e+12
9.34131e+11
1.8492e+11
1.6391e+11
1.45886e+11
2.05712e+11
3.22184e+11
4.73559e+11
6.47067e+11
8.10342e+11
9.9807e+11
8.30699e+11
1.63961e+11
1.61535e+11
1.70345e+11
2.09713e+11
2.97155e+11
4.18712e+11
5.61443e+11
7.06587e+11
8.45991e+11
7.39143e+11
1.64557e+11
1.68967e+11
1.82973e+11
2.16462e+11
2.83066e+11
3.78193e+11
4.92311e+11
6.14918e+11
7.11542e+11
6.55311e+11
1.6272e+11
1.70124e+11
1.85722e+11
2.15237e+11
2.67149e+11
3.40899e+11
4.30393e+11
5.29419e+11
5.92921e+11
5.76474e+11
1.57771e+11
1.66127e+11
1.81178e+11
2.06328e+11
2.46923e+11
3.03495e+11
3.72197e+11
4.491e+11
4.89133e+11
5.01742e+11
1.49579e+11
1.57329e+11
1.70473e+11
1.91076e+11
2.2237e+11
2.64971e+11
3.16273e+11
3.73884e+11
3.98389e+11
4.3029e+11
1.39037e+11
1.45626e+11
1.5621e+11
1.72068e+11
1.95358e+11
2.26453e+11
2.63398e+11
3.05107e+11
3.19923e+11
3.6264e+11
1.25878e+11
1.3059e+11
1.38171e+11
1.49682e+11
1.66164e+11
1.87852e+11
2.13201e+11
2.42311e+11
2.514e+11
2.97792e+11
1.11032e+11
1.14162e+11
1.19088e+11
1.26735e+11
1.375e+11
1.51653e+11
1.67942e+11
1.87438e+11
1.93168e+11
2.38034e+11
9.29085e+10
9.34433e+10
9.5449e+10
1.00223e+11
1.06494e+11
1.14873e+11
1.24382e+11
1.36723e+11
1.40595e+11
1.78713e+11
7.31087e+10
7.13906e+10
7.13145e+10
7.36802e+10
7.71017e+10
8.17111e+10
8.68091e+10
9.42021e+10
9.70399e+10
1.27442e+11
4.77496e+10
3.99139e+10
3.65841e+10
3.59416e+10
3.67813e+10
3.83398e+10
4.00719e+10
4.32874e+10
4.46637e+10
5.89162e+10
2.31156e+13
2.09852e+13
2.2379e+13
2.31815e+13
2.42161e+13
2.53089e+13
2.63992e+13
2.74357e+13
2.84276e+13
2.85035e+13
2.61653e+13
3.32398e+13
2.96901e+13
2.97824e+13
2.97711e+13
3.01627e+13
3.08074e+13
3.17058e+13
3.29133e+13
3.4546e+13
3.59343e+13
3.611e+13
3.42137e+13
3.17949e+13
3.1899e+13
3.20527e+13
3.25373e+13
3.31774e+13
3.39419e+13
3.48716e+13
3.59416e+13
3.65156e+13
3.64929e+13
3.78507e+13
3.57163e+13
3.54984e+13
3.55218e+13
3.59318e+13
3.65777e+13
3.74281e+13
3.85132e+13
3.97828e+13
4.06794e+13
4.14063e+13
4.13257e+13
3.94775e+13
3.90955e+13
3.9077e+13
3.94552e+13
4.00792e+13
4.09092e+13
4.19855e+13
4.32535e+13
4.42914e+13
4.54819e+13
4.45484e+13
4.28962e+13
4.23785e+13
4.2288e+13
4.26112e+13
4.32165e+13
4.40611e+13
4.51673e+13
4.64591e+13
4.76424e+13
4.9186e+13
4.77038e+13
4.6214e+13
4.56292e+13
4.55029e+13
4.57939e+13
4.63872e+13
4.72385e+13
4.83523e+13
4.96733e+13
5.09824e+13
5.27323e+13
5.074e+13
4.94047e+13
4.87912e+13
4.86445e+13
4.89131e+13
4.94992e+13
5.03593e+13
5.14908e+13
5.28422e+13
5.42581e+13
5.61406e+13
5.36377e+13
5.24759e+13
5.18728e+13
5.17258e+13
5.19859e+13
5.25735e+13
5.34443e+13
5.45878e+13
5.59618e+13
5.74559e+13
5.94168e+13
5.63632e+13
5.54082e+13
5.48544e+13
5.47191e+13
5.49667e+13
5.55473e+13
5.64262e+13
5.75925e+13
5.8997e+13
6.05583e+13
6.25734e+13
5.89665e+13
5.82755e+13
5.78462e+13
5.77844e+13
5.80634e+13
5.8663e+13
5.95621e+13
6.07527e+13
6.21876e+13
6.3802e+13
6.58482e+13
6.1586e+13
6.12118e+13
6.09792e+13
6.10599e+13
6.14232e+13
6.20746e+13
6.30092e+13
6.42276e+13
6.56938e+13
6.73525e+13
6.94123e+13
6.42306e+13
6.42119e+13
6.42449e+13
6.4553e+13
6.50892e+13
6.58663e+13
6.68814e+13
6.81351e+13
6.96205e+13
7.13013e+13
7.33425e+13
6.68643e+13
6.71946e+13
6.74902e+13
6.80237e+13
6.87353e+13
6.96435e+13
7.07447e+13
7.20381e+13
7.35375e+13
7.523e+13
7.72415e+13
6.90888e+13
6.97313e+13
7.02594e+13
7.09877e+13
7.18501e+13
7.28743e+13
7.4061e+13
7.54117e+13
7.69411e+13
7.86475e+13
8.06241e+13
7.08949e+13
7.18346e+13
7.25897e+13
7.35084e+13
7.45191e+13
7.5657e+13
7.69266e+13
7.8332e+13
7.98891e+13
8.16038e+13
8.35452e+13
7.22773e+13
7.3508e+13
7.44887e+13
7.55982e+13
7.67598e+13
7.80147e+13
7.93705e+13
8.08341e+13
8.24201e+13
8.41416e+13
8.60519e+13
7.32119e+13
7.47286e+13
7.59334e+13
7.72337e+13
7.8547e+13
7.99201e+13
8.13634e+13
8.28858e+13
8.45005e+13
8.62275e+13
8.8107e+13
7.36835e+13
7.54796e+13
7.69039e+13
7.83935e+13
7.9858e+13
8.13493e+13
8.28797e+13
8.44609e+13
8.60989e+13
8.78289e+13
8.96782e+13
7.36747e+13
7.57364e+13
7.73668e+13
7.90382e+13
8.06488e+13
8.22539e+13
8.38676e+13
8.55043e+13
8.71719e+13
8.89019e+13
9.07204e+13
7.3181e+13
7.54845e+13
7.72937e+13
7.91301e+13
8.08766e+13
8.25908e+13
8.42848e+13
8.59732e+13
8.76655e+13
8.93906e+13
9.1175e+13
7.22266e+13
7.47428e+13
7.66808e+13
7.86338e+13
8.04724e+13
8.2262e+13
8.40137e+13
8.57421e+13
8.74559e+13
8.91744e+13
9.09234e+13
7.08699e+13
7.36106e+13
7.56651e+13
7.77098e+13
7.96045e+13
8.14299e+13
8.32004e+13
8.49345e+13
8.66426e+13
8.83375e+13
9.00421e+13
6.895e+13
7.19498e+13
7.41529e+13
7.63149e+13
7.82829e+13
8.01529e+13
8.19428e+13
8.36759e+13
8.53657e+13
8.70246e+13
8.86763e+13
6.66126e+13
6.98345e+13
7.21702e+13
7.44384e+13
7.64753e+13
7.83904e+13
8.02039e+13
8.1943e+13
8.36232e+13
8.52543e+13
8.68596e+13
6.41087e+13
6.75116e+13
6.99458e+13
7.22958e+13
7.43852e+13
7.63333e+13
7.81614e+13
7.98988e+13
8.15628e+13
8.31635e+13
8.47256e+13
6.1456e+13
6.50083e+13
6.74939e+13
6.98904e+13
7.20043e+13
7.39644e+13
7.57922e+13
7.75176e+13
7.91582e+13
8.07234e+13
8.2239e+13
5.8592e+13
6.22786e+13
6.47736e+13
6.71807e+13
6.92826e+13
7.12207e+13
7.3018e+13
7.47069e+13
7.63056e+13
7.7822e+13
7.92826e+13
5.53016e+13
5.91137e+13
6.15941e+13
6.39979e+13
6.60756e+13
6.79807e+13
6.97365e+13
7.13769e+13
7.29217e+13
7.43768e+13
7.57708e+13
5.14878e+13
5.53799e+13
5.77991e+13
6.01656e+13
6.21926e+13
6.40435e+13
6.57417e+13
6.7322e+13
6.88036e+13
7.01945e+13
7.15117e+13
4.71061e+13
5.09939e+13
5.32837e+13
5.55627e+13
5.74944e+13
5.92475e+13
6.08472e+13
6.23318e+13
6.37242e+13
6.50382e+13
6.62654e+13
4.21261e+13
4.58213e+13
4.78606e+13
5.00097e+13
5.18643e+13
5.35704e+13
5.51317e+13
5.65717e+13
5.79047e+13
5.91376e+13
6.02639e+13
3.69469e+13
4.00931e+13
4.13861e+13
4.28581e+13
4.4091e+13
4.52453e+13
4.63336e+13
4.7383e+13
4.84099e+13
4.9418e+13
5.03546e+13
3.11431e+13
3.45671e+13
3.60588e+13
3.78004e+13
3.92925e+13
4.06774e+13
4.19576e+13
4.3155e+13
4.42852e+13
4.53511e+13
4.63281e+13
2.28939e+13
2.35305e+13
2.29554e+13
2.30858e+13
2.32573e+13
2.35271e+13
2.38541e+13
2.42298e+13
2.46484e+13
2.50992e+13
2.555e+13
1.55668e+12
1.73566e+12
1.95028e+12
2.16183e+12
2.3757e+12
2.5975e+12
2.82749e+12
3.06325e+12
3.3041e+12
3.56462e+12
3.85608e+12
4.18611e+12
4.52947e+12
4.83078e+12
5.08372e+12
5.27191e+12
5.39215e+12
5.45206e+12
5.41534e+12
5.36338e+12
5.11531e+12
4.78976e+12
4.47399e+12
4.11573e+12
3.79071e+12
3.4983e+12
3.23545e+12
2.98511e+12
2.74227e+12
2.50681e+12
2.28003e+12
2.06379e+12
1.8482e+12
1.6675e+12
1.54985e+12
3.18154e+12
3.25973e+12
3.39336e+12
3.54453e+12
3.71298e+12
3.89647e+12
4.09091e+12
4.29001e+12
4.49066e+12
4.70158e+12
4.92412e+12
5.15402e+12
5.36248e+12
5.52222e+12
5.63743e+12
5.69723e+12
5.70687e+12
5.6748e+12
5.58407e+12
5.48517e+12
5.2856e+12
5.07718e+12
4.87087e+12
4.62997e+12
4.39408e+12
4.16833e+12
3.95961e+12
3.76097e+12
3.57087e+12
3.39331e+12
3.23453e+12
3.10204e+12
2.98632e+12
2.90929e+12
2.90476e+12
1.7171e+12
1.82421e+12
1.91591e+12
2.0049e+12
2.09148e+12
2.17056e+12
2.24078e+12
2.30115e+12
2.35216e+12
2.39403e+12
2.42327e+12
2.44084e+12
2.44992e+12
2.4569e+12
2.45949e+12
2.45043e+12
2.43035e+12
2.3997e+12
2.35633e+12
2.31164e+12
2.25656e+12
2.19991e+12
2.15172e+12
2.10884e+12
2.06831e+12
2.02312e+12
1.97393e+12
1.92194e+12
1.86641e+12
1.80616e+12
1.74112e+12
1.67733e+12
1.6031e+12
1.51737e+12
1.44552e+12
1.851e+12
1.94158e+12
2.03122e+12
2.11928e+12
2.20083e+12
2.27296e+12
2.33652e+12
2.39138e+12
2.4392e+12
2.48388e+12
2.52551e+12
2.5639e+12
2.594e+12
2.61247e+12
2.6207e+12
2.61735e+12
2.60441e+12
2.58289e+12
2.55291e+12
2.51616e+12
2.46204e+12
2.3971e+12
2.33367e+12
2.27085e+12
2.20984e+12
2.14935e+12
2.08998e+12
2.03e+12
1.9677e+12
1.90325e+12
1.83608e+12
1.76823e+12
1.69048e+12
1.61095e+12
1.55413e+12
1.87764e+12
1.97602e+12
2.06199e+12
2.14141e+12
2.20997e+12
2.26803e+12
2.31807e+12
2.3605e+12
2.39637e+12
2.42748e+12
2.4537e+12
2.4761e+12
2.49316e+12
2.50356e+12
2.50575e+12
2.49816e+12
2.48215e+12
2.45834e+12
2.42685e+12
2.38846e+12
2.34065e+12
2.28488e+12
2.2306e+12
2.18089e+12
2.13351e+12
2.08593e+12
2.03697e+12
1.98655e+12
1.93384e+12
1.87917e+12
1.82255e+12
1.76902e+12
1.71253e+12
1.64007e+12
1.56256e+12
2.01266e+12
2.11776e+12
2.20724e+12
2.28472e+12
2.34885e+12
2.403e+12
2.44979e+12
2.48923e+12
2.52195e+12
2.54976e+12
2.57323e+12
2.59331e+12
2.6084e+12
2.61636e+12
2.6155e+12
2.60539e+12
2.58724e+12
2.56171e+12
2.52917e+12
2.48975e+12
2.44289e+12
2.38747e+12
2.33277e+12
2.28342e+12
2.23644e+12
2.18958e+12
2.14085e+12
2.09039e+12
2.03743e+12
1.98223e+12
1.92438e+12
1.87015e+12
1.82049e+12
1.75644e+12
1.67283e+12
2.10423e+12
2.21411e+12
2.30344e+12
2.37689e+12
2.43704e+12
2.48853e+12
2.53325e+12
2.57074e+12
2.60127e+12
2.62664e+12
2.64806e+12
2.66648e+12
2.68052e+12
2.68724e+12
2.68474e+12
2.67338e+12
2.65416e+12
2.62775e+12
2.59455e+12
2.55449e+12
2.50773e+12
2.45251e+12
2.39721e+12
2.34776e+12
2.30102e+12
2.25471e+12
2.2061e+12
2.15557e+12
2.10246e+12
2.04707e+12
1.98819e+12
1.93218e+12
1.88731e+12
1.83434e+12
1.75178e+12
2.19632e+12
2.31045e+12
2.39983e+12
2.4705e+12
2.5289e+12
2.57961e+12
2.62364e+12
2.66026e+12
2.68955e+12
2.71349e+12
2.73382e+12
2.7513e+12
2.76461e+12
2.77023e+12
2.76625e+12
2.7536e+12
2.73317e+12
2.70567e+12
2.67145e+12
2.63049e+12
2.58283e+12
2.52739e+12
2.47121e+12
2.42109e+12
2.37389e+12
2.32735e+12
2.27821e+12
2.22697e+12
2.17306e+12
2.11688e+12
2.05657e+12
1.99777e+12
1.95376e+12
1.90827e+12
1.83103e+12
2.28247e+12
2.40001e+12
2.48943e+12
2.55832e+12
2.6163e+12
2.66709e+12
2.71111e+12
2.74746e+12
2.77612e+12
2.79928e+12
2.81913e+12
2.83617e+12
2.84914e+12
2.85406e+12
2.849e+12
2.83536e+12
2.81388e+12
2.78535e+12
2.75006e+12
2.70802e+12
2.65917e+12
2.60271e+12
2.54559e+12
2.49445e+12
2.44636e+12
2.39911e+12
2.34905e+12
2.29678e+12
2.24175e+12
2.18447e+12
2.12266e+12
2.06123e+12
2.01659e+12
1.97526e+12
1.90394e+12
2.36649e+12
2.48713e+12
2.57706e+12
2.64519e+12
2.70366e+12
2.75508e+12
2.79952e+12
2.836e+12
2.86446e+12
2.88727e+12
2.90698e+12
2.92386e+12
2.9367e+12
2.94111e+12
2.93516e+12
2.92063e+12
2.89815e+12
2.86856e+12
2.83212e+12
2.78884e+12
2.73865e+12
2.68069e+12
2.62236e+12
2.5701e+12
2.52086e+12
2.47258e+12
2.42135e+12
2.36781e+12
2.31142e+12
2.25278e+12
2.18935e+12
2.12551e+12
2.07964e+12
2.0401e+12
1.97319e+12
2.44922e+12
2.57294e+12
2.66389e+12
2.73205e+12
2.79155e+12
2.84393e+12
2.8891e+12
2.926e+12
2.95455e+12
2.97732e+12
2.99714e+12
3.01405e+12
3.02689e+12
3.03095e+12
3.02427e+12
3.00893e+12
2.98549e+12
2.95482e+12
2.91718e+12
2.87256e+12
2.8209e+12
2.76127e+12
2.70133e+12
2.64784e+12
2.59736e+12
2.54783e+12
2.49524e+12
2.44027e+12
2.38235e+12
2.32218e+12
2.25699e+12
2.19089e+12
2.14364e+12
2.10454e+12
2.04004e+12
2.53168e+12
2.65869e+12
2.75113e+12
2.81992e+12
2.8808e+12
2.93437e+12
2.98047e+12
3.01801e+12
3.04687e+12
3.06982e+12
3.08989e+12
3.10697e+12
3.11991e+12
3.12372e+12
3.11643e+12
3.10034e+12
3.07594e+12
3.04418e+12
3.00529e+12
2.95926e+12
2.90603e+12
2.84461e+12
2.78294e+12
2.72792e+12
2.67606e+12
2.62524e+12
2.57116e+12
2.51463e+12
2.45506e+12
2.3932e+12
2.32613e+12
2.25785e+12
2.20916e+12
2.1698e+12
2.10602e+12
2.61459e+12
2.7452e+12
2.83953e+12
2.90938e+12
2.97186e+12
3.02678e+12
3.07399e+12
3.11232e+12
3.14167e+12
3.16495e+12
3.18538e+12
3.20273e+12
3.21585e+12
3.21949e+12
3.21165e+12
3.19484e+12
3.1695e+12
3.13664e+12
3.09646e+12
3.04895e+12
2.99406e+12
2.93075e+12
2.86725e+12
2.81061e+12
2.75723e+12
2.70491e+12
2.64931e+12
2.59115e+12
2.52982e+12
2.46616e+12
2.39711e+12
2.32665e+12
2.2765e+12
2.2365e+12
2.17228e+12
2.69851e+12
2.83307e+12
2.9296e+12
3.00086e+12
3.0651e+12
3.12151e+12
3.16994e+12
3.2092e+12
3.23916e+12
3.26288e+12
3.28375e+12
3.30144e+12
3.3148e+12
3.31833e+12
3.30999e+12
3.29249e+12
3.26622e+12
3.23223e+12
3.19071e+12
3.14168e+12
3.08506e+12
3.01978e+12
2.95434e+12
2.89602e+12
2.84103e+12
2.78714e+12
2.72985e+12
2.66996e+12
2.60685e+12
2.54129e+12
2.47017e+12
2.39749e+12
2.34585e+12
2.30501e+12
2.23963e+12
2.78391e+12
2.92273e+12
3.02173e+12
3.09467e+12
3.16078e+12
3.21879e+12
3.26856e+12
3.30885e+12
3.33952e+12
3.36376e+12
3.38514e+12
3.40323e+12
3.41686e+12
3.42033e+12
3.41154e+12
3.39334e+12
3.36613e+12
3.33098e+12
3.28811e+12
3.2375e+12
3.17908e+12
3.11176e+12
3.04431e+12
2.98421e+12
2.92755e+12
2.87203e+12
2.81299e+12
2.75128e+12
2.68626e+12
2.61876e+12
2.54547e+12
2.47052e+12
2.41736e+12
2.37555e+12
2.30865e+12
2.87115e+12
3.01456e+12
3.11623e+12
3.19105e+12
3.25912e+12
3.31883e+12
3.37002e+12
3.41143e+12
3.44289e+12
3.46774e+12
3.48967e+12
3.5082e+12
3.52214e+12
3.52559e+12
3.51636e+12
3.49748e+12
3.46931e+12
3.43299e+12
3.38871e+12
3.33648e+12
3.27621e+12
3.20676e+12
3.13723e+12
3.07529e+12
3.01689e+12
2.95967e+12
2.89881e+12
2.83521e+12
2.76821e+12
2.69867e+12
2.62315e+12
2.54584e+12
2.49112e+12
2.44828e+12
2.37969e+12
2.96053e+12
3.10883e+12
3.21332e+12
3.29021e+12
3.36033e+12
3.42182e+12
3.47452e+12
3.51712e+12
3.54943e+12
3.57493e+12
3.59746e+12
3.61647e+12
3.63076e+12
3.63419e+12
3.62455e+12
3.60498e+12
3.57584e+12
3.53831e+12
3.49259e+12
3.43869e+12
3.37651e+12
3.30486e+12
3.23316e+12
3.16932e+12
3.10912e+12
3.05014e+12
2.9874e+12
2.92184e+12
2.8528e+12
2.78114e+12
2.7033e+12
2.62355e+12
2.56722e+12
2.5233e+12
2.45296e+12
3.05231e+12
3.20578e+12
3.31322e+12
3.39233e+12
3.46457e+12
3.52794e+12
3.58221e+12
3.62605e+12
3.65927e+12
3.68547e+12
3.70863e+12
3.72816e+12
3.74282e+12
3.74626e+12
3.73621e+12
3.71593e+12
3.68581e+12
3.64704e+12
3.59983e+12
3.5442e+12
3.48004e+12
3.40614e+12
3.33218e+12
3.26637e+12
3.20431e+12
3.14351e+12
3.07882e+12
3.01124e+12
2.94009e+12
2.86624e+12
2.78599e+12
2.70374e+12
2.64572e+12
2.60067e+12
2.52858e+12
3.14674e+12
3.30565e+12
3.41613e+12
3.49758e+12
3.57202e+12
3.63733e+12
3.69323e+12
3.73839e+12
3.77255e+12
3.7995e+12
3.82331e+12
3.84339e+12
3.85844e+12
3.86189e+12
3.85143e+12
3.83043e+12
3.79929e+12
3.75925e+12
3.71051e+12
3.65309e+12
3.58689e+12
3.51064e+12
3.43437e+12
3.36651e+12
3.30252e+12
3.23984e+12
3.17315e+12
3.10347e+12
3.03012e+12
2.95401e+12
2.8713e+12
2.78646e+12
2.72671e+12
2.68045e+12
2.60659e+12
3.24404e+12
3.40866e+12
3.52223e+12
3.60612e+12
3.68283e+12
3.75015e+12
3.80775e+12
3.85426e+12
3.88941e+12
3.91713e+12
3.94163e+12
3.96228e+12
3.97772e+12
3.9812e+12
3.97032e+12
3.94858e+12
3.91639e+12
3.87502e+12
3.8247e+12
3.76543e+12
3.69713e+12
3.61846e+12
3.53977e+12
3.46981e+12
3.40383e+12
3.33919e+12
3.27043e+12
3.19858e+12
3.12296e+12
3.04451e+12
2.95923e+12
2.87174e+12
2.8102e+12
2.76266e+12
2.68692e+12
3.34445e+12
3.51504e+12
3.63171e+12
3.71812e+12
3.79718e+12
3.86657e+12
3.92592e+12
3.97381e+12
4.00999e+12
4.03851e+12
4.06371e+12
4.08495e+12
4.10081e+12
4.10431e+12
4.09298e+12
4.07046e+12
4.03718e+12
3.99444e+12
3.94248e+12
3.88131e+12
3.8108e+12
3.72963e+12
3.64845e+12
3.57631e+12
3.50826e+12
3.4416e+12
3.37069e+12
3.2966e+12
3.21864e+12
3.13776e+12
3.04984e+12
2.95962e+12
2.89621e+12
2.8473e+12
2.76967e+12
3.44822e+12
3.62505e+12
3.74476e+12
3.83377e+12
3.91523e+12
3.98676e+12
4.04792e+12
4.09722e+12
4.13443e+12
4.16376e+12
4.18969e+12
4.21154e+12
4.22782e+12
4.23132e+12
4.21952e+12
4.19619e+12
4.16177e+12
4.1176e+12
4.06393e+12
4.00077e+12
3.92799e+12
3.84422e+12
3.76046e+12
3.68605e+12
3.61586e+12
3.54711e+12
3.47398e+12
3.39755e+12
3.31718e+12
3.23379e+12
3.14314e+12
3.05012e+12
2.98477e+12
2.93443e+12
2.85492e+12
3.55563e+12
3.73897e+12
3.86159e+12
3.95325e+12
4.03717e+12
4.1109e+12
4.17391e+12
4.22464e+12
4.26287e+12
4.29303e+12
4.3197e+12
4.34216e+12
4.35886e+12
4.36236e+12
4.35005e+12
4.32585e+12
4.29024e+12
4.24457e+12
4.18911e+12
4.12389e+12
4.04873e+12
3.96225e+12
3.87582e+12
3.79905e+12
3.72664e+12
3.65572e+12
3.58028e+12
3.50144e+12
3.41857e+12
3.33259e+12
3.23911e+12
3.1432e+12
3.07586e+12
3.02402e+12
2.94266e+12
3.66697e+12
3.85709e+12
3.98241e+12
4.07674e+12
4.1632e+12
4.23918e+12
4.30406e+12
4.35623e+12
4.39549e+12
4.42647e+12
4.45388e+12
4.47698e+12
4.49409e+12
4.49754e+12
4.48467e+12
4.45953e+12
4.42266e+12
4.37542e+12
4.31808e+12
4.2507e+12
4.17305e+12
4.08376e+12
3.99453e+12
3.91532e+12
3.84059e+12
3.76741e+12
3.68958e+12
3.60824e+12
3.52278e+12
3.43411e+12
3.33771e+12
3.23883e+12
3.16944e+12
3.11602e+12
3.03283e+12
3.7826e+12
3.97978e+12
4.10746e+12
4.20447e+12
4.29354e+12
4.3718e+12
4.43858e+12
4.49217e+12
4.53243e+12
4.56423e+12
4.59238e+12
4.61611e+12
4.63362e+12
4.63698e+12
4.62347e+12
4.59733e+12
4.55909e+12
4.51019e+12
4.45089e+12
4.38122e+12
4.30097e+12
4.20873e+12
4.11659e+12
4.03483e+12
3.95769e+12
3.88214e+12
3.80181e+12
3.71787e+12
3.62973e+12
3.53827e+12
3.43885e+12
3.33693e+12
3.26542e+12
3.21034e+12
3.12532e+12
3.90293e+12
4.10743e+12
4.23699e+12
4.33665e+12
4.4284e+12
4.50899e+12
4.57768e+12
4.63265e+12
4.67387e+12
4.70645e+12
4.73533e+12
4.7597e+12
4.77759e+12
4.78078e+12
4.76654e+12
4.73928e+12
4.6996e+12
4.64892e+12
4.58752e+12
4.51545e+12
4.43247e+12
4.33711e+12
4.24193e+12
4.15751e+12
4.07783e+12
3.99981e+12
3.91688e+12
3.83022e+12
3.73929e+12
3.64495e+12
3.54238e+12
3.43734e+12
3.36365e+12
3.30685e+12
3.22e+12
4.02845e+12
4.24046e+12
4.37124e+12
4.47354e+12
4.56803e+12
4.65097e+12
4.72157e+12
4.77787e+12
4.81996e+12
4.8533e+12
4.88288e+12