/*--------------------------------*- C++ -*----------------------------------*\
| =========                 |                                                 |
| \\      /  F ield         | OpenFOAM: The Open Source CFD Toolbox           |
|  \\    /   O peration     | Version:  2406                                  |
|   \\  /    A nd           | Website:  www.openfoam.com                      |
|    \\/     M anipulation  |                                                 |
\*---------------------------------------------------------------------------*/
FoamFile
{
    version     2.0;
    format      ascii;
    arch        "LSB;label=32;scalar=64";
    class       volScalarField;
    location    "0/neutroRegion";
    object      prec2;
}
// * * * * * * * * * * * * * * * * * * * * * * * * * * * * * * * * * * * * * //

dimensions      [0 -3 0 0 0 0 0];

internalField   nonuniform List<scalar> 
8595
(
9.34856e+16
8.02558e+16
6.42551e+16
6.06368e+16
5.73949e+16
5.60324e+16
5.57024e+16
5.54622e+16
5.52389e+16
5.50435e+16
5.47915e+16
5.46825e+16
5.316e+16
5.84771e+16
5.19727e+16
6.0252e+16
4.93837e+16
6.41724e+16
2.46597e+16
2.19875e+16
2.26922e+16
2.31446e+16
2.3203e+16
2.32398e+16
2.32977e+16
2.33425e+16
2.33718e+16
2.33916e+16
2.34043e+16
2.34112e+16
2.34131e+16
2.34114e+16
2.34067e+16
2.33999e+16
2.33914e+16
2.33819e+16
2.33718e+16
2.33614e+16
2.3351e+16
2.33411e+16
2.33319e+16
2.3324e+16
2.33182e+16
2.33152e+16
2.33164e+16
2.33238e+16
2.33403e+16
2.33708e+16
2.34219e+16
2.35084e+16
2.36337e+16
2.39122e+16
2.40106e+16
2.6003e+16
2.94687e+16
8.65952e+16
8.1493e+16
6.94432e+16
6.58693e+16
6.17986e+16
6.58415e+16
6.85819e+16
7.12577e+16
7.16222e+16
7.18524e+16
7.19344e+16
7.18708e+16
7.14657e+16
7.19326e+16
7.08427e+16
7.22151e+16
6.95769e+16
7.3248e+16
6.6208e+16
8.1445e+16
3.17574e+16
2.81097e+16
2.86508e+16
2.89391e+16
2.88529e+16
2.87675e+16
2.87069e+16
2.86429e+16
2.85764e+16
2.8515e+16
2.84605e+16
2.84126e+16
2.83707e+16
2.83342e+16
2.83023e+16
2.82742e+16
2.82491e+16
2.82264e+16
2.82056e+16
2.8186e+16
2.81671e+16
2.81484e+16
2.81293e+16
2.81093e+16
2.80874e+16
2.80627e+16
2.80338e+16
2.79985e+16
2.79539e+16
2.78957e+16
2.78165e+16
2.77104e+16
2.75455e+16
2.73936e+16
2.67879e+16
2.77915e+16
2.81759e+16
7.2339e+16
6.22327e+16
6.95633e+16
6.8091e+16
6.51389e+16
6.74468e+16
6.64619e+16
6.59165e+16
6.62425e+16
6.6567e+16
6.66989e+16
6.66107e+16
6.62641e+16
6.64553e+16
6.57748e+16
6.62309e+16
6.48351e+16
6.70941e+16
6.25259e+16
7.22075e+16
2.82135e+16
2.49142e+16
2.53455e+16
2.55523e+16
2.54699e+16
2.54274e+16
2.54456e+16
2.54742e+16
2.55006e+16
2.55245e+16
2.5545e+16
2.55609e+16
2.55722e+16
2.55794e+16
2.55829e+16
2.55833e+16
2.55813e+16
2.55773e+16
2.55718e+16
2.55652e+16
2.55581e+16
2.55508e+16
2.55437e+16
2.55375e+16
2.55328e+16
2.55305e+16
2.55318e+16
2.55383e+16
2.55523e+16
2.55774e+16
2.56172e+16
2.56809e+16
2.57577e+16
2.59387e+16
2.57903e+16
2.73335e+16
2.83432e+16
7.33813e+16
6.06681e+16
6.81421e+16
6.75696e+16
6.4695e+16
6.67487e+16
6.58084e+16
6.68214e+16
6.76641e+16
6.81553e+16
6.84272e+16
6.85261e+16
6.83063e+16
6.82139e+16
6.778e+16
6.79437e+16
6.69091e+16
6.83546e+16
6.44962e+16
7.22206e+16
2.8504e+16
2.53335e+16
2.59423e+16
2.62225e+16
2.61789e+16
2.61487e+16
2.61423e+16
2.61296e+16
2.61097e+16
2.60886e+16
2.60682e+16
2.60485e+16
2.60296e+16
2.60117e+16
2.59948e+16
2.59788e+16
2.59636e+16
2.5949e+16
2.59349e+16
2.59212e+16
2.59077e+16
2.58946e+16
2.58816e+16
2.58684e+16
2.58552e+16
2.58415e+16
2.58272e+16
2.58121e+16
2.57959e+16
2.57785e+16
2.57593e+16
2.57428e+16
2.57136e+16
2.57679e+16
2.54795e+16
2.69226e+16
2.79049e+16
7.23987e+16
5.87137e+16
6.82322e+16
6.74258e+16
6.43503e+16
6.66084e+16
6.39102e+16
6.55822e+16
6.72683e+16
6.80896e+16
6.83527e+16
6.83293e+16
6.8084e+16
6.78796e+16
6.74684e+16
6.74355e+16
6.65785e+16
6.75698e+16
6.41401e+16
7.01774e+16
2.79832e+16
2.47613e+16
2.53484e+16
2.55862e+16
2.55048e+16
2.54568e+16
2.54534e+16
2.54534e+16
2.54504e+16
2.54474e+16
2.54442e+16
2.54401e+16
2.54349e+16
2.54286e+16
2.54214e+16
2.54133e+16
2.54046e+16
2.53952e+16
2.53854e+16
2.53754e+16
2.53652e+16
2.5355e+16
2.53448e+16
2.5335e+16
2.53258e+16
2.53174e+16
2.53103e+16
2.5305e+16
2.53025e+16
2.53037e+16
2.53096e+16
2.53256e+16
2.53352e+16
2.54336e+16
2.51769e+16
2.66553e+16
2.76026e+16
7.18448e+16
5.75246e+16
6.85197e+16
6.754e+16
6.37368e+16
6.65753e+16
6.46074e+16
6.62232e+16
6.76961e+16
6.84186e+16
6.85628e+16
6.83814e+16
6.8017e+16
6.76753e+16
6.72254e+16
6.70473e+16
6.62668e+16
6.69283e+16
6.37431e+16
6.85775e+16
2.76489e+16
2.43768e+16
2.50124e+16
2.52806e+16
2.52056e+16
2.51639e+16
2.51632e+16
2.51613e+16
2.51546e+16
2.51471e+16
2.51394e+16
2.51309e+16
2.51217e+16
2.51119e+16
2.51016e+16
2.50908e+16
2.50797e+16
2.50685e+16
2.50571e+16
2.50457e+16
2.50344e+16
2.50231e+16
2.5012e+16
2.50012e+16
2.49909e+16
2.49813e+16
2.49726e+16
2.49653e+16
2.49599e+16
2.49578e+16
2.49598e+16
2.49719e+16
2.49788e+16
2.50814e+16
2.48301e+16
2.63399e+16
2.72775e+16
7.13592e+16
5.66218e+16
6.95638e+16
6.79059e+16
6.37443e+16
6.53799e+16
6.60899e+16
6.79205e+16
6.89112e+16
6.91028e+16
6.88008e+16
6.82902e+16
6.77118e+16
6.72068e+16
6.66852e+16
6.63918e+16
6.56457e+16
6.60729e+16
6.30642e+16
6.70203e+16
2.732e+16
2.39791e+16
2.46493e+16
2.49405e+16
2.48637e+16
2.48251e+16
2.48307e+16
2.48333e+16
2.48299e+16
2.48251e+16
2.48193e+16
2.48124e+16
2.48044e+16
2.47955e+16
2.47859e+16
2.47759e+16
2.47655e+16
2.47549e+16
2.4744e+16
2.47331e+16
2.47222e+16
2.47115e+16
2.4701e+16
2.46908e+16
2.46813e+16
2.46725e+16
2.46648e+16
2.46587e+16
2.46551e+16
2.46551e+16
2.46597e+16
2.46751e+16
2.46852e+16
2.47949e+16
2.45431e+16
2.60812e+16
2.69842e+16
7.09628e+16
5.58516e+16
6.77257e+16
6.67501e+16
6.46965e+16
6.70528e+16
6.91839e+16
7.02039e+16
7.0105e+16
6.9422e+16
6.85304e+16
6.76526e+16
6.68683e+16
6.624e+16
6.56746e+16
6.53208e+16
6.46151e+16
6.48988e+16
6.20642e+16
6.54436e+16
2.69727e+16
2.35689e+16
2.42691e+16
2.45623e+16
2.44536e+16
2.4399e+16
2.43985e+16
2.43989e+16
2.43963e+16
2.43941e+16
2.43918e+16
2.43885e+16
2.43839e+16
2.43781e+16
2.43713e+16
2.43635e+16
2.43549e+16
2.43457e+16
2.4336e+16
2.4326e+16
2.43159e+16
2.43057e+16
2.42957e+16
2.4286e+16
2.42768e+16
2.42685e+16
2.42615e+16
2.42562e+16
2.42537e+16
2.42551e+16
2.42615e+16
2.42797e+16
2.42924e+16
2.44089e+16
2.41563e+16
2.5724e+16
2.65747e+16
7.04851e+16
5.50955e+16
8.48615e+16
7.62278e+16
7.47395e+16
7.4693e+16
7.34349e+16
7.17614e+16
7.00265e+16
6.84526e+16
6.71298e+16
6.60782e+16
6.52641e+16
6.46691e+16
6.418e+16
6.38698e+16
6.32402e+16
6.344e+16
6.08529e+16
6.40195e+16
2.66177e+16
2.32317e+16
2.40522e+16
2.44388e+16
2.43771e+16
2.43474e+16
2.43548e+16
2.43524e+16
2.43419e+16
2.433e+16
2.43178e+16
2.43052e+16
2.42926e+16
2.428e+16
2.42677e+16
2.42555e+16
2.42435e+16
2.42316e+16
2.422e+16
2.42086e+16
2.41974e+16
2.41865e+16
2.4176e+16
2.41659e+16
2.41563e+16
2.41475e+16
2.41398e+16
2.41338e+16
2.413e+16
2.413e+16
2.41351e+16
2.4153e+16
2.41671e+16
2.4295e+16
2.40445e+16
2.56904e+16
2.64935e+16
7.05907e+16
5.44836e+16
1.0484e+17
8.07519e+16
7.70102e+16
7.40526e+16
7.12666e+16
6.89045e+16
6.69621e+16
6.54129e+16
6.42005e+16
6.32651e+16
6.25453e+16
6.20127e+16
6.15932e+16
6.13697e+16
6.09862e+16
6.14477e+16
5.96493e+16
6.31376e+16
2.6159e+16
2.27037e+16
2.33925e+16
2.36646e+16
2.35612e+16
2.35336e+16
2.35592e+16
2.35823e+16
2.35992e+16
2.36129e+16
2.3623e+16
2.36292e+16
2.36318e+16
2.36314e+16
2.36285e+16
2.36235e+16
2.36169e+16
2.36091e+16
2.36004e+16
2.35911e+16
2.35815e+16
2.35718e+16
2.35624e+16
2.35535e+16
2.35456e+16
2.3539e+16
2.35345e+16
2.3533e+16
2.35355e+16
2.35438e+16
2.3559e+16
2.35887e+16
2.36132e+16
2.375e+16
2.34941e+16
2.51264e+16
2.58873e+16
7.01799e+16
5.4628e+16
3.87322e+16
3.8101e+16
3.85199e+16
3.91197e+16
3.97485e+16
4.05592e+16
4.169e+16
4.35894e+16
4.53927e+16
6.05542e+16
5.10363e+16
5.04806e+16
4.95739e+16
4.94784e+16
4.93989e+16
4.95995e+16
5.01063e+16
5.13377e+16
5.18685e+16
6.51825e+16
1.90482e+16
1.92849e+16
1.8968e+16
1.89987e+16
1.89262e+16
1.89411e+16
1.90354e+16
1.94127e+16
1.98921e+16
2.21026e+16
1.91084e+16
1.92033e+16
1.87841e+16
1.8701e+16
1.85327e+16
1.84541e+16
1.84037e+16
1.85804e+16
1.94172e+16
1.90853e+16
1.79376e+16
1.80526e+16
1.77415e+16
1.76896e+16
1.7547e+16
1.74828e+16
1.74348e+16
1.74776e+16
1.86187e+16
1.76043e+16
1.82308e+16
1.83215e+16
1.80082e+16
1.79406e+16
1.7782e+16
1.77018e+16
1.76483e+16
1.75578e+16
1.89665e+16
1.75522e+16
1.81939e+16
1.82847e+16
1.79821e+16
1.79135e+16
1.77529e+16
1.7667e+16
1.76249e+16
1.74383e+16
1.90175e+16
1.73703e+16
1.8218e+16
1.83092e+16
1.80079e+16
1.79372e+16
1.77737e+16
1.76815e+16
1.76497e+16
1.73956e+16
1.90883e+16
1.73003e+16
1.82257e+16
1.83193e+16
1.80184e+16
1.79471e+16
1.77823e+16
1.7686e+16
1.76629e+16
1.73646e+16
1.91291e+16
1.72566e+16
1.82347e+16
1.83303e+16
1.80291e+16
1.79574e+16
1.7792e+16
1.76926e+16
1.76758e+16
1.73488e+16
1.91594e+16
1.72361e+16
1.82426e+16
1.83399e+16
1.80382e+16
1.79662e+16
1.78007e+16
1.7699e+16
1.76868e+16
1.73412e+16
1.91818e+16
1.72279e+16
1.82504e+16
1.83489e+16
1.80467e+16
1.79745e+16
1.78091e+16
1.77057e+16
1.7697e+16
1.73385e+16
1.91999e+16
1.72271e+16
1.82581e+16
1.83575e+16
1.80549e+16
1.79825e+16
1.78174e+16
1.77125e+16
1.77066e+16
1.73387e+16
1.92156e+16
1.72306e+16
1.82657e+16
1.8366e+16
1.8063e+16
1.79903e+16
1.78256e+16
1.77193e+16
1.7716e+16
1.73403e+16
1.92302e+16
1.72365e+16
1.82732e+16
1.83744e+16
1.8071e+16
1.7998e+16
1.78339e+16
1.77261e+16
1.77253e+16
1.73424e+16
1.92444e+16
1.72435e+16
1.82807e+16
1.83827e+16
1.80791e+16
1.80056e+16
1.78422e+16
1.77329e+16
1.77347e+16
1.73447e+16
1.92586e+16
1.72509e+16
1.82881e+16
1.8391e+16
1.80872e+16
1.80131e+16
1.78507e+16
1.77396e+16
1.77442e+16
1.73467e+16
1.92732e+16
1.72583e+16
1.82955e+16
1.83992e+16
1.80954e+16
1.80206e+16
1.78591e+16
1.77463e+16
1.77539e+16
1.73484e+16
1.92883e+16
1.72653e+16
1.8303e+16
1.84073e+16
1.81038e+16
1.80279e+16
1.78677e+16
1.77529e+16
1.77637e+16
1.73497e+16
1.9304e+16
1.72719e+16
1.83105e+16
1.84151e+16
1.81124e+16
1.80351e+16
1.78763e+16
1.77596e+16
1.77735e+16
1.73507e+16
1.93201e+16
1.72779e+16
1.83179e+16
1.84225e+16
1.81211e+16
1.80421e+16
1.7885e+16
1.77662e+16
1.77834e+16
1.73514e+16
1.93368e+16
1.72833e+16
1.83251e+16
1.84297e+16
1.81299e+16
1.80489e+16
1.78937e+16
1.77728e+16
1.77933e+16
1.7352e+16
1.9354e+16
1.72879e+16
1.83319e+16
1.84365e+16
1.81388e+16
1.80553e+16
1.79023e+16
1.77794e+16
1.7803e+16
1.73528e+16
1.93715e+16
1.72918e+16
1.83382e+16
1.84428e+16
1.81476e+16
1.80614e+16
1.79108e+16
1.77859e+16
1.78124e+16
1.7354e+16
1.93891e+16
1.7295e+16
1.83438e+16
1.84486e+16
1.81563e+16
1.8067e+16
1.7919e+16
1.77924e+16
1.78217e+16
1.73559e+16
1.94064e+16
1.72975e+16
1.83484e+16
1.84537e+16
1.81648e+16
1.80721e+16
1.7927e+16
1.77989e+16
1.78307e+16
1.7358e+16
1.94241e+16
1.72995e+16
1.83518e+16
1.84578e+16
1.81731e+16
1.80764e+16
1.79346e+16
1.78052e+16
1.78393e+16
1.73601e+16
1.94428e+16
1.73007e+16
1.83537e+16
1.84605e+16
1.81809e+16
1.80799e+16
1.79415e+16
1.78114e+16
1.78473e+16
1.73622e+16
1.94633e+16
1.73006e+16
1.83536e+16
1.84614e+16
1.8188e+16
1.80821e+16
1.79475e+16
1.78175e+16
1.78547e+16
1.73643e+16
1.94859e+16
1.72993e+16
1.83511e+16
1.84599e+16
1.8194e+16
1.8083e+16
1.79524e+16
1.78231e+16
1.78612e+16
1.73667e+16
1.95111e+16
1.72969e+16
1.83457e+16
1.84552e+16
1.81987e+16
1.80822e+16
1.79558e+16
1.78284e+16
1.78667e+16
1.73696e+16
1.95399e+16
1.72937e+16
1.83369e+16
1.84466e+16
1.82015e+16
1.80795e+16
1.79575e+16
1.78331e+16
1.78711e+16
1.73735e+16
1.95733e+16
1.72902e+16
1.83234e+16
1.84317e+16
1.82003e+16
1.80733e+16
1.79557e+16
1.78359e+16
1.7873e+16
1.73776e+16
1.96112e+16
1.72856e+16
1.83008e+16
1.84053e+16
1.81906e+16
1.80602e+16
1.79476e+16
1.78343e+16
1.78705e+16
1.73812e+16
1.96542e+16
1.72791e+16
1.82792e+16
1.83778e+16
1.8183e+16
1.80511e+16
1.79432e+16
1.78384e+16
1.78746e+16
1.73979e+16
1.97209e+16
1.72869e+16
1.8303e+16
1.83866e+16
1.8211e+16
1.80755e+16
1.79675e+16
1.78694e+16
1.79045e+16
1.74477e+16
1.9835e+16
1.73273e+16
1.82107e+16
1.82402e+16
1.80935e+16
1.79736e+16
1.78774e+16
1.77956e+16
1.78314e+16
1.73987e+16
1.98285e+16
1.72275e+16
1.75044e+16
1.75194e+16
1.74715e+16
1.74202e+16
1.73702e+16
1.73392e+16
1.74114e+16
1.70661e+16
1.95384e+16
1.68592e+16
1.94969e+16
1.95312e+16
1.94594e+16
1.93044e+16
1.9146e+16
1.90529e+16
1.91247e+16
1.89339e+16
2.19163e+16
1.89214e+16
5.09045e+16
5.03624e+16
5.02265e+16
5.0288e+16
5.05735e+16
5.12171e+16
5.24696e+16
5.31499e+16
6.29523e+16
5.55981e+16
4.31226e+16
4.20291e+16
4.1301e+16
4.06987e+16
4.01871e+16
3.97102e+16
3.91482e+16
3.7339e+16
3.89924e+16
2.66694e+16
4.16661e+16
4.07457e+16
4.03018e+16
4.01093e+16
4.02447e+16
4.0725e+16
4.13652e+16
4.06293e+16
4.26947e+16
3.03991e+16
3.87478e+16
3.76065e+16
3.70197e+16
3.66721e+16
3.6316e+16
3.63258e+16
3.74129e+16
3.8023e+16
4.14777e+16
3.06062e+16
3.65478e+16
3.56026e+16
3.53987e+16
3.54992e+16
3.57308e+16
3.60608e+16
3.69802e+16
3.75708e+16
4.13776e+16
3.1048e+16
3.45913e+16
3.36245e+16
3.32632e+16
3.34144e+16
3.43905e+16
3.53903e+16
3.6555e+16
3.72584e+16
4.10731e+16
3.11404e+16
3.38542e+16
3.29576e+16
3.25049e+16
3.32259e+16
3.43763e+16
3.5415e+16
3.65381e+16
3.75005e+16
4.04281e+16
3.14942e+16
3.3653e+16
3.29601e+16
3.30516e+16
3.36276e+16
3.4609e+16
3.55757e+16
3.66162e+16
3.78394e+16
3.94144e+16
3.19986e+16
3.40146e+16
3.37626e+16
3.38617e+16
3.42344e+16
3.49995e+16
3.58527e+16
3.68008e+16
3.80965e+16
3.82881e+16
3.26386e+16
3.4349e+16
3.42402e+16
3.44013e+16
3.47513e+16
3.53788e+16
3.61299e+16
3.69684e+16
3.81422e+16
3.7139e+16
3.33821e+16
3.47103e+16
3.47612e+16
3.49506e+16
3.5242e+16
3.57546e+16
3.63907e+16
3.70693e+16
3.79837e+16
3.60679e+16
3.42468e+16
3.49284e+16
3.50843e+16
3.53032e+16
3.55837e+16
3.60119e+16
3.65254e+16
3.70009e+16
3.76051e+16
3.50946e+16
3.52223e+16
3.50845e+16
3.54131e+16
3.56765e+16
3.58862e+16
3.62054e+16
3.6567e+16
3.68047e+16
3.71203e+16
3.43246e+16
3.64041e+16
3.49547e+16
3.52794e+16
3.55446e+16
3.57994e+16
3.60545e+16
3.62883e+16
3.63152e+16
3.64512e+16
3.36931e+16
3.7741e+16
3.49565e+16
3.53713e+16
3.56463e+16
3.58087e+16
3.59459e+16
3.60471e+16
3.59053e+16
3.60169e+16
3.3587e+16
3.97529e+16
3.46658e+16
3.46827e+16
3.47122e+16
3.49558e+16
3.50892e+16
3.51843e+16
3.50379e+16
3.53931e+16
3.36655e+16
4.19354e+16
3.54442e+16
3.55457e+16
3.55028e+16
3.57362e+16
3.59195e+16
3.6201e+16
3.63669e+16
3.74255e+16
3.69057e+16
4.86979e+16
3.86007e+16
3.76451e+16
3.75112e+16
3.74767e+16
3.75754e+16
3.80302e+16
3.84825e+16
4.05664e+16
4.11237e+16
5.54106e+16
3.62904e+16
3.34429e+16
3.54274e+16
3.59622e+16
3.65633e+16
3.70265e+16
3.73252e+16
3.74771e+16
3.75721e+16
3.65255e+16
3.26106e+16
4.71729e+16
4.30344e+16
4.31989e+16
4.26418e+16
4.23527e+16
4.21958e+16
4.22165e+16
4.25446e+16
4.33744e+16
4.3869e+16
4.29774e+16
4.44709e+16
4.2286e+16
4.26161e+16
4.24774e+16
4.24564e+16
4.23999e+16
4.23151e+16
4.22792e+16
4.23298e+16
4.17283e+16
4.04793e+16
4.55052e+16
4.38492e+16
4.3787e+16
4.35164e+16
4.34023e+16
4.33406e+16
4.33395e+16
4.34506e+16
4.36543e+16
4.33447e+16
4.28117e+16
4.6153e+16
4.4976e+16
4.48043e+16
4.4569e+16
4.4462e+16
4.43891e+16
4.43513e+16
4.44028e+16
4.45216e+16
4.42749e+16
4.40659e+16
4.67344e+16
4.58086e+16
4.55257e+16
4.52594e+16
4.51195e+16
4.50349e+16
4.5002e+16
4.50538e+16
4.5138e+16
4.49717e+16
4.49868e+16
4.74193e+16
4.66434e+16
4.63014e+16
4.60208e+16
4.58572e+16
4.57566e+16
4.57134e+16
4.57492e+16
4.58144e+16
4.57148e+16
4.5828e+16
4.81126e+16
4.74324e+16
4.70553e+16
4.67674e+16
4.65874e+16
4.64744e+16
4.64231e+16
4.64481e+16
4.65032e+16
4.64579e+16
4.66204e+16
4.87913e+16
4.81747e+16
4.77756e+16
4.74893e+16
4.73067e+16
4.71926e+16
4.71377e+16
4.71493e+16
4.71926e+16
4.71797e+16
4.73586e+16
4.9445e+16
4.88666e+16
4.84363e+16
4.81342e+16
4.79357e+16
4.78144e+16
4.77591e+16
4.77712e+16
4.7814e+16
4.78284e+16
4.80145e+16
5.01314e+16
4.95943e+16
4.91439e+16
4.88269e+16
4.86089e+16
4.84744e+16
4.84127e+16
4.84224e+16
4.84673e+16
4.85052e+16
4.86991e+16
5.08968e+16
5.04134e+16
4.99619e+16
4.96423e+16
4.94106e+16
4.9263e+16
4.91923e+16
4.91964e+16
4.92433e+16
4.93001e+16
4.94967e+16
5.17501e+16
5.13358e+16
5.09123e+16
5.06193e+16
5.03994e+16
5.02537e+16
5.01766e+16
5.01662e+16
5.02034e+16
5.02652e+16
5.04511e+16
5.26623e+16
5.23103e+16
5.19178e+16
5.16575e+16
5.14597e+16
5.13267e+16
5.12503e+16
5.12268e+16
5.12493e+16
5.13064e+16
5.14714e+16
5.34972e+16
5.31806e+16
5.27998e+16
5.25541e+16
5.23656e+16
5.22396e+16
5.21676e+16
5.21455e+16
5.21675e+16
5.22254e+16
5.23723e+16
5.43272e+16
5.40373e+16
5.36639e+16
5.34276e+16
5.32441e+16
5.31206e+16
5.30487e+16
5.30241e+16
5.3044e+16
5.31013e+16
5.32348e+16
5.51514e+16
5.48863e+16
5.45197e+16
5.42925e+16
5.41143e+16
5.3994e+16
5.3923e+16
5.38969e+16
5.39143e+16
5.39693e+16
5.40911e+16
5.59597e+16
5.57198e+16
5.53604e+16
5.51429e+16
5.49706e+16
5.48539e+16
5.47841e+16
5.4757e+16
5.47717e+16
5.48235e+16
5.49336e+16
5.67539e+16
5.65416e+16
5.61898e+16
5.59838e+16
5.58188e+16
5.5707e+16
5.56396e+16
5.56124e+16
5.56212e+16
5.56692e+16
5.57687e+16
5.75333e+16
5.73513e+16
5.7006e+16
5.6813e+16
5.66564e+16
5.65504e+16
5.64859e+16
5.64594e+16
5.64669e+16
5.65112e+16
5.66015e+16
5.83021e+16
5.81529e+16
5.78099e+16
5.76312e+16
5.74857e+16
5.73895e+16
5.73315e+16
5.73076e+16
5.73143e+16
5.73551e+16
5.7437e+16
5.90808e+16
5.89658e+16
5.86123e+16
5.84374e+16
5.82923e+16
5.81982e+16
5.81431e+16
5.81231e+16
5.81339e+16
5.81757e+16
5.82529e+16
5.99171e+16
5.98527e+16
5.94963e+16
5.93339e+16
5.91929e+16
5.91012e+16
5.90456e+16
5.90228e+16
5.90282e+16
5.90642e+16
5.91336e+16
6.07297e+16
6.07189e+16
6.0362e+16
6.02189e+16
6.00868e+16
6.00005e+16
5.99445e+16
5.99164e+16
5.99125e+16
5.99377e+16
5.99963e+16
6.13857e+16
6.14076e+16
6.10378e+16
6.09057e+16
6.07797e+16
6.0701e+16
6.06512e+16
6.06279e+16
6.06272e+16
6.06513e+16
6.07046e+16
6.19857e+16
6.2042e+16
6.16494e+16
6.15213e+16
6.13964e+16
6.13219e+16
6.12763e+16
6.12572e+16
6.12597e+16
6.12849e+16
6.13361e+16
6.25699e+16
6.26852e+16
6.22607e+16
6.21315e+16
6.20004e+16
6.19236e+16
6.18776e+16
6.18597e+16
6.18649e+16
6.18921e+16
6.19421e+16
6.31726e+16
6.33924e+16
6.29364e+16
6.28135e+16
6.26783e+16
6.25988e+16
6.25499e+16
6.25299e+16
6.25334e+16
6.25588e+16
6.26061e+16
6.37933e+16
6.417e+16
6.36844e+16
6.35811e+16
6.345e+16
6.33736e+16
6.33247e+16
6.33027e+16
6.33025e+16
6.33229e+16
6.33646e+16
6.43908e+16
6.49739e+16
6.44526e+16
6.43772e+16
6.42556e+16
6.41874e+16
6.4144e+16
6.41256e+16
6.41267e+16
6.41433e+16
6.41791e+16
6.49871e+16
6.58281e+16
6.52553e+16
6.52172e+16
6.51061e+16
6.50388e+16
6.49882e+16
6.49607e+16
6.49558e+16
6.49695e+16
6.5e+16
6.56642e+16
6.67627e+16
6.60634e+16
6.60917e+16
6.60808e+16
6.61385e+16
6.62071e+16
6.62741e+16
6.63283e+16
6.63582e+16
6.63802e+16
6.72232e+16
6.85842e+16
6.72316e+16
6.66717e+16
6.6047e+16
6.55545e+16
6.51673e+16
6.48925e+16
6.47259e+16
6.46512e+16
6.46272e+16
6.82135e+16
7.23691e+16
7.27447e+16
7.39111e+16
7.47038e+16
7.53687e+16
7.58855e+16
7.62814e+16
7.65757e+16
7.67677e+16
7.68315e+16
6.46011e+16
6.39044e+16
6.02418e+16
5.87816e+16
5.7582e+16
5.67324e+16
5.60886e+16
5.56033e+16
5.52437e+16
5.49714e+16
5.47076e+16
5.53703e+16
5.75586e+16
5.98339e+16
6.12241e+16
6.20357e+16
6.25368e+16
6.27948e+16
6.28192e+16
6.26599e+16
6.23396e+16
6.18363e+16
6.11445e+16
6.02163e+16
5.92299e+16
5.82919e+16
5.73452e+16
5.64262e+16
5.56308e+16
5.45583e+16
5.40469e+16
5.28454e+16
5.14636e+16
5.07485e+16
4.98963e+16
4.92606e+16
4.87315e+16
4.82591e+16
4.77614e+16
4.71492e+16
4.63557e+16
4.53403e+16
4.40935e+16
4.23317e+16
4.02425e+16
3.87997e+16
6.88016e+16
6.69947e+16
6.59837e+16
6.50574e+16
6.42044e+16
6.34352e+16
6.27287e+16
6.20434e+16
6.13885e+16
6.07357e+16
6.00216e+16
5.92027e+16
5.82083e+16
5.72459e+16
5.63931e+16
5.55402e+16
5.47073e+16
5.39279e+16
5.29838e+16
5.23738e+16
5.14243e+16
5.06603e+16
5.02332e+16
4.96714e+16
4.91548e+16
4.868e+16
4.82994e+16
4.80178e+16
4.78117e+16
4.77001e+16
4.77375e+16
4.80169e+16
4.83753e+16
4.87499e+16
4.98582e+16
2.5864e+16
2.60426e+16
2.58514e+16
2.55971e+16
2.53424e+16
2.50726e+16
2.47949e+16
2.45088e+16
2.42229e+16
2.39029e+16
2.35042e+16
2.30478e+16
2.26051e+16
2.22874e+16
2.20482e+16
2.18028e+16
2.15443e+16
2.12695e+16
2.09543e+16
2.07014e+16
2.04575e+16
2.02598e+16
2.01787e+16
2.0165e+16
2.01835e+16
2.01706e+16
2.01312e+16
2.00944e+16
2.00571e+16
2.00076e+16
1.99483e+16
1.99571e+16
1.98913e+16
1.9516e+16
1.90983e+16
2.48723e+16
2.46882e+16
2.44317e+16
2.42352e+16
2.40793e+16
2.3939e+16
2.38085e+16
2.36744e+16
2.35473e+16
2.34338e+16
2.33214e+16
2.32073e+16
2.30719e+16
2.29335e+16
2.27954e+16
2.26367e+16
2.24687e+16
2.22969e+16
2.21215e+16
2.19589e+16
2.17364e+16
2.14774e+16
2.126e+16
2.10425e+16
2.08302e+16
2.06207e+16
2.04254e+16
2.02409e+16
2.00522e+16
1.98594e+16
1.96592e+16
1.94904e+16
1.92941e+16
1.90569e+16
1.89714e+16
2.33355e+16
2.32045e+16
2.29399e+16
2.27593e+16
2.26118e+16
2.24708e+16
2.23324e+16
2.21887e+16
2.20485e+16
2.19055e+16
2.1747e+16
2.15799e+16
2.14105e+16
2.12656e+16
2.11238e+16
2.09646e+16
2.07954e+16
2.06192e+16
2.04367e+16
2.02547e+16
2.00624e+16
1.98597e+16
1.96949e+16
1.95606e+16
1.9436e+16
1.93077e+16
1.9174e+16
1.90437e+16
1.89098e+16
1.87727e+16
1.86283e+16
1.853e+16
1.84502e+16
1.82423e+16
1.79796e+16
2.35587e+16
2.33901e+16
2.31574e+16
2.30088e+16
2.28758e+16
2.27418e+16
2.26046e+16
2.24613e+16
2.23215e+16
2.21801e+16
2.20288e+16
2.18713e+16
2.17118e+16
2.15684e+16
2.14198e+16
2.12563e+16
2.10841e+16
2.0907e+16
2.07281e+16
2.05485e+16
2.03674e+16
2.01746e+16
2.00134e+16
1.98845e+16
1.97637e+16
1.96405e+16
1.95101e+16
1.93818e+16
1.92493e+16
1.91129e+16
1.89631e+16
1.88506e+16
1.87858e+16
1.86103e+16
1.83283e+16
2.34035e+16
2.32236e+16
2.3022e+16
2.289e+16
2.27616e+16
2.26292e+16
2.24916e+16
2.23502e+16
2.2213e+16
2.20739e+16
2.19282e+16
2.17784e+16
2.16304e+16
2.14942e+16
2.13479e+16
2.11881e+16
2.10199e+16
2.08473e+16
2.06733e+16
2.04976e+16
2.03221e+16
2.0135e+16
1.99746e+16
1.98473e+16
1.97297e+16
1.96114e+16
1.9484e+16
1.93578e+16
1.92276e+16
1.90948e+16
1.8944e+16
1.88224e+16
1.87783e+16
1.86549e+16
1.83644e+16
2.33563e+16
2.31793e+16
2.3009e+16
2.28839e+16
2.27566e+16
2.26238e+16
2.24848e+16
2.23439e+16
2.22076e+16
2.2069e+16
2.19267e+16
2.17809e+16
2.16385e+16
2.15043e+16
2.13567e+16
2.11973e+16
2.10298e+16
2.08589e+16
2.06869e+16
2.05141e+16
2.03408e+16
2.01586e+16
2.00003e+16
1.98744e+16
1.9759e+16
1.9644e+16
1.95187e+16
1.93938e+16
1.92651e+16
1.91348e+16
1.89835e+16
1.88521e+16
1.8813e+16
1.87285e+16
1.84472e+16
2.33069e+16
2.31408e+16
2.29938e+16
2.2869e+16
2.27418e+16
2.26082e+16
2.24681e+16
2.23281e+16
2.21926e+16
2.20548e+16
2.19153e+16
2.17727e+16
2.16345e+16
2.15022e+16
2.13541e+16
2.11956e+16
2.1029e+16
2.08596e+16
2.06892e+16
2.05181e+16
2.03462e+16
2.01661e+16
2.00097e+16
1.98845e+16
1.977e+16
1.96567e+16
1.95325e+16
1.94083e+16
1.92802e+16
1.91517e+16
1.90007e+16
1.88627e+16
1.88237e+16
1.87659e+16
1.84987e+16
2.32752e+16
2.31228e+16
2.29921e+16
2.28648e+16
2.27378e+16
2.26034e+16
2.24625e+16
2.2323e+16
2.2188e+16
2.20506e+16
2.19131e+16
2.17725e+16
2.16372e+16
2.15057e+16
2.13571e+16
2.11989e+16
2.10328e+16
2.08643e+16
2.06949e+16
2.05248e+16
2.03539e+16
2.01746e+16
2.00196e+16
1.98953e+16
1.97814e+16
1.96689e+16
1.95454e+16
1.94217e+16
1.9294e+16
1.91665e+16
1.90159e+16
1.88738e+16
1.88333e+16
1.87917e+16
1.85367e+16
2.32542e+16
2.31146e+16
2.29946e+16
2.28642e+16
2.27376e+16
2.26025e+16
2.2461e+16
2.23219e+16
2.21872e+16
2.205e+16
2.1914e+16
2.17747e+16
2.16413e+16
2.15105e+16
2.13613e+16
2.12034e+16
2.10376e+16
2.08696e+16
2.07008e+16
2.05314e+16
2.03612e+16
2.01822e+16
2.00277e+16
1.99042e+16
1.97909e+16
1.96789e+16
1.95557e+16
1.94322e+16
1.93048e+16
1.91779e+16
1.90275e+16
1.88832e+16
1.88413e+16
1.88093e+16
1.85623e+16
2.3242e+16
2.31131e+16
2.30002e+16
2.28669e+16
2.27408e+16
2.2605e+16
2.2463e+16
2.23243e+16
2.21897e+16
2.20526e+16
2.19176e+16
2.17793e+16
2.16471e+16
2.15166e+16
2.13671e+16
2.12092e+16
2.10436e+16
2.08759e+16
2.07075e+16
2.05385e+16
2.03687e+16
2.019e+16
2.00359e+16
1.99125e+16
1.97995e+16
1.9688e+16
1.9565e+16
1.94417e+16
1.93143e+16
1.91878e+16
1.90376e+16
1.88919e+16
1.88492e+16
1.88229e+16
1.85803e+16
2.32363e+16
2.31157e+16
2.30075e+16
2.28717e+16
2.27461e+16
2.26098e+16
2.24674e+16
2.23289e+16
2.21944e+16
2.20574e+16
2.1923e+16
2.17853e+16
2.1654e+16
2.15237e+16
2.13738e+16
2.1216e+16
2.10504e+16
2.08829e+16
2.07147e+16
2.05459e+16
2.03763e+16
2.01978e+16
2.0044e+16
1.99208e+16
1.98078e+16
1.96964e+16
1.95736e+16
1.94505e+16
1.93231e+16
1.91969e+16
1.90467e+16
1.89003e+16
1.88571e+16
1.88344e+16
1.85935e+16
2.32354e+16
2.3121e+16
2.30159e+16
2.28782e+16
2.27529e+16
2.26162e+16
2.24735e+16
2.23351e+16
2.22007e+16
2.20636e+16
2.19297e+16
2.17923e+16
2.16616e+16
2.15314e+16
2.13812e+16
2.12234e+16
2.10578e+16
2.08905e+16
2.07224e+16
2.05537e+16
2.03842e+16
2.02058e+16
2.00521e+16
1.99291e+16
1.98161e+16
1.97047e+16
1.95819e+16
1.94589e+16
1.93317e+16
1.92055e+16
1.90553e+16
1.89084e+16
1.88652e+16
1.88448e+16
1.86042e+16
2.32379e+16
2.3128e+16
2.30249e+16
2.28858e+16
2.27607e+16
2.26238e+16
2.24808e+16
2.23425e+16
2.2208e+16
2.20709e+16
2.19373e+16
2.18001e+16
2.16698e+16
2.15397e+16
2.13892e+16
2.12314e+16
2.10658e+16
2.08984e+16
2.07304e+16
2.05618e+16
2.03924e+16
2.0214e+16
2.00604e+16
1.99375e+16
1.98245e+16
1.97132e+16
1.95902e+16
1.94672e+16
1.93401e+16
1.9214e+16
1.90638e+16
1.89165e+16
1.88734e+16
1.88548e+16
1.86137e+16
2.32428e+16
2.31361e+16
2.30343e+16
2.28942e+16
2.27692e+16
2.26321e+16
2.24889e+16
2.23506e+16
2.22161e+16
2.20789e+16
2.19455e+16
2.18084e+16
2.16784e+16
2.15482e+16
2.13976e+16
2.12397e+16
2.1074e+16
2.09067e+16
2.07387e+16
2.05701e+16
2.04007e+16
2.02223e+16
2.00688e+16
1.9946e+16
1.9833e+16
1.97216e+16
1.95987e+16
1.94757e+16
1.93484e+16
1.92225e+16
1.90722e+16
1.89245e+16
1.88816e+16
1.88645e+16
1.8623e+16
2.32494e+16
2.31451e+16
2.30439e+16
2.29032e+16
2.27782e+16
2.26409e+16
2.24975e+16
2.23592e+16
2.22246e+16
2.20873e+16
2.19541e+16
2.18171e+16
2.16872e+16
2.1557e+16
2.14062e+16
2.12483e+16
2.10826e+16
2.09152e+16
2.07472e+16
2.05786e+16
2.04092e+16
2.02307e+16
2.00773e+16
1.99545e+16
1.98415e+16
1.97301e+16
1.96072e+16
1.94841e+16
1.93569e+16
1.92309e+16
1.90806e+16
1.89325e+16
1.88898e+16
1.88741e+16
1.86323e+16
2.32568e+16
2.31545e+16
2.30536e+16
2.29125e+16
2.27875e+16
2.26501e+16
2.25065e+16
2.23681e+16
2.22334e+16
2.20961e+16
2.19629e+16
2.1826e+16
2.16962e+16
2.1566e+16
2.14151e+16
2.1257e+16
2.10912e+16
2.09239e+16
2.07558e+16
2.05872e+16
2.04178e+16
2.02393e+16
2.00858e+16
1.9963e+16
1.98501e+16
1.97387e+16
1.96157e+16
1.94926e+16
1.93654e+16
1.92395e+16
1.9089e+16
1.89406e+16
1.8898e+16
1.88836e+16
1.86419e+16
2.32647e+16
2.31643e+16
2.30633e+16
2.29221e+16
2.27969e+16
2.26594e+16
2.25156e+16
2.23772e+16
2.22424e+16
2.21051e+16
2.19718e+16
2.18349e+16
2.17052e+16
2.1575e+16
2.14239e+16
2.12658e+16
2.11e+16
2.09326e+16
2.07645e+16
2.05958e+16
2.04264e+16
2.02478e+16
2.00943e+16
1.99716e+16
1.98586e+16
1.97472e+16
1.96241e+16
1.9501e+16
1.93738e+16
1.92479e+16
1.90974e+16
1.89487e+16
1.89062e+16
1.88928e+16
1.86518e+16
2.32726e+16
2.31745e+16
2.30729e+16
2.29317e+16
2.28063e+16
2.26687e+16
2.25247e+16
2.23862e+16
2.22514e+16
2.2114e+16
2.19807e+16
2.18439e+16
2.17141e+16
2.15839e+16
2.14328e+16
2.12745e+16
2.11086e+16
2.09412e+16
2.0773e+16
2.06044e+16
2.04349e+16
2.02563e+16
2.01028e+16
1.998e+16
1.98671e+16
1.97556e+16
1.96326e+16
1.95093e+16
1.93821e+16
1.92562e+16
1.91057e+16
1.89568e+16
1.89143e+16
1.89015e+16
1.86619e+16
2.328e+16
2.31848e+16
2.30823e+16
2.29412e+16
2.28156e+16
2.26779e+16
2.25337e+16
2.23951e+16
2.22602e+16
2.21227e+16
2.19895e+16
2.18527e+16
2.1723e+16
2.15927e+16
2.14414e+16
2.12831e+16
2.11171e+16
2.09495e+16
2.07814e+16
2.06127e+16
2.04432e+16
2.02645e+16
2.0111e+16
1.99883e+16
1.98754e+16
1.97639e+16
1.96408e+16
1.95174e+16
1.93902e+16
1.92644e+16
1.91137e+16
1.89647e+16
1.89222e+16
1.89098e+16
1.86719e+16
2.32865e+16
2.31953e+16
2.30915e+16
2.29505e+16
2.28247e+16
2.26868e+16
2.25424e+16
2.24037e+16
2.22687e+16
2.21312e+16
2.1998e+16
2.18613e+16
2.17317e+16
2.16013e+16
2.14498e+16
2.12913e+16
2.11253e+16
2.09577e+16
2.07894e+16
2.06208e+16
2.04512e+16
2.02725e+16
2.0119e+16
1.99963e+16
1.98834e+16
1.97718e+16
1.96487e+16
1.95252e+16
1.93981e+16
1.92722e+16
1.91215e+16
1.89723e+16
1.89297e+16
1.89176e+16
1.86821e+16
2.32916e+16
2.32058e+16
2.31002e+16
2.29595e+16
2.28334e+16
2.26954e+16
2.25506e+16
2.24118e+16
2.22767e+16
2.21393e+16
2.20061e+16
2.18696e+16
2.17399e+16
2.16095e+16
2.14579e+16
2.12992e+16
2.1133e+16
2.09653e+16
2.0797e+16
2.06284e+16
2.04587e+16
2.028e+16
2.01266e+16
2.00039e+16
1.98909e+16
1.97793e+16
1.96561e+16
1.95325e+16
1.94054e+16
1.92795e+16
1.91287e+16
1.89796e+16
1.89369e+16
1.89249e+16
1.86921e+16
2.32948e+16
2.32164e+16
2.31084e+16
2.2968e+16
2.28416e+16
2.27033e+16
2.25582e+16
2.24192e+16
2.2284e+16
2.21467e+16
2.20137e+16
2.18774e+16
2.17478e+16
2.16173e+16
2.14654e+16
2.13065e+16
2.11402e+16
2.09724e+16
2.08041e+16
2.06354e+16
2.04656e+16
2.0287e+16
2.01335e+16
2.00109e+16
1.98979e+16
1.97861e+16
1.96629e+16
1.95392e+16
1.94121e+16
1.92861e+16
1.91353e+16
1.89863e+16
1.89436e+16
1.89314e+16
1.87018e+16
2.32955e+16
2.32271e+16
2.31159e+16
2.29758e+16
2.28492e+16
2.27104e+16
2.2565e+16
2.24258e+16
2.22905e+16
2.21534e+16
2.20205e+16
2.18846e+16
2.17552e+16
2.16245e+16
2.14723e+16
2.1313e+16
2.11465e+16
2.09786e+16
2.08103e+16
2.06415e+16
2.04717e+16
2.0293e+16
2.01397e+16
2.00172e+16
1.9904e+16
1.97922e+16
1.96688e+16
1.9545e+16
1.94179e+16
1.92919e+16
1.91409e+16
1.89922e+16
1.89495e+16
1.89372e+16
1.87109e+16
2.32931e+16
2.32379e+16
2.31225e+16
2.29827e+16
2.28559e+16
2.27167e+16
2.25707e+16
2.24313e+16
2.22959e+16
2.2159e+16
2.20265e+16
2.18909e+16
2.17618e+16
2.1631e+16
2.14783e+16
2.13186e+16
2.11519e+16
2.09838e+16
2.08153e+16
2.06466e+16
2.04768e+16
2.0298e+16
2.01447e+16
2.00224e+16
1.99092e+16
1.97971e+16
1.96736e+16
1.95496e+16
1.94226e+16
1.92965e+16
1.91454e+16
1.8997e+16
1.89544e+16
1.89418e+16
1.87191e+16
2.32868e+16
2.3249e+16
2.31281e+16
2.29886e+16
2.28616e+16
2.27216e+16
2.25751e+16
2.24355e+16
2.23e+16
2.21634e+16