/*--------------------------------*- C++ -*----------------------------------*\
| =========                 |                                                 |
| \\      /  F ield         | OpenFOAM: The Open Source CFD Toolbox           |
|  \\    /   O peration     | Version:  2406                                  |
|   \\  /    A nd           | Website:  www.openfoam.com                      |
|    \\/     M anipulation  |                                                 |
\*---------------------------------------------------------------------------*/
FoamFile
{
    version     2.0;
    format      ascii;
    arch        "LSB;label=32;scalar=64";
    class       volScalarField;
    location    "0/neutroRegion";
    object      precStar3;
}
// * * * * * * * * * * * * * * * * * * * * * * * * * * * * * * * * * * * * * //

dimensions      [0 -3 0 0 0 0 0];

internalField   nonuniform List<scalar> 
8595
(
4.63588e+16
4.03536e+16
3.25216e+16
3.08203e+16
2.92752e+16
2.86702e+16
2.85891e+16
2.8544e+16
2.84903e+16
2.84232e+16
2.82984e+16
2.82147e+16
2.73864e+16
2.99334e+16
2.66187e+16
3.08705e+16
2.54604e+16
3.36115e+16
3.24176e+16
2.89106e+16
2.98241e+16
3.03965e+16
3.04461e+16
3.04658e+16
3.0513e+16
3.05429e+16
3.05523e+16
3.05491e+16
3.05366e+16
3.05163e+16
3.04895e+16
3.04579e+16
3.04225e+16
3.03842e+16
3.0344e+16
3.03023e+16
3.02599e+16
3.02171e+16
3.01744e+16
3.01324e+16
3.00915e+16
3.00522e+16
3.00156e+16
2.99827e+16
2.99552e+16
2.99355e+16
2.99275e+16
2.99373e+16
2.99731e+16
3.00539e+16
3.01835e+16
3.05074e+16
3.06001e+16
3.30994e+16
3.74562e+16
4.38073e+16
4.08564e+16
3.44251e+16
3.31508e+16
3.13411e+16
3.35663e+16
3.51193e+16
3.66367e+16
3.69797e+16
3.73111e+16
3.75627e+16
3.76773e+16
3.75695e+16
3.78356e+16
3.72497e+16
3.79183e+16
3.65201e+16
3.84843e+16
3.49369e+16
4.34279e+16
4.24708e+16
3.76058e+16
3.83143e+16
3.86727e+16
3.8524e+16
3.83733e+16
3.82552e+16
3.81323e+16
3.80063e+16
3.78872e+16
3.77777e+16
3.76773e+16
3.75851e+16
3.75005e+16
3.74222e+16
3.73492e+16
3.72804e+16
3.7215e+16
3.71522e+16
3.70911e+16
3.7031e+16
3.69713e+16
3.69112e+16
3.68498e+16
3.6786e+16
3.67184e+16
3.6645e+16
3.65629e+16
3.64682e+16
3.63549e+16
3.62129e+16
3.60339e+16
3.57752e+16
3.55283e+16
3.46858e+16
3.59093e+16
3.62791e+16
3.69361e+16
3.13815e+16
3.44261e+16
3.41946e+16
3.2899e+16
3.41783e+16
3.3771e+16
3.36072e+16
3.40314e+16
3.45716e+16
3.50081e+16
3.51927e+16
3.51894e+16
3.53605e+16
3.50323e+16
3.52794e+16
3.45503e+16
3.58071e+16
3.34965e+16
3.89794e+16
3.81734e+16
3.37189e+16
3.42874e+16
3.45424e+16
3.44013e+16
3.43109e+16
3.43009e+16
3.43041e+16
3.43042e+16
3.43013e+16
3.4294e+16
3.4281e+16
3.42623e+16
3.42384e+16
3.421e+16
3.41777e+16
3.41424e+16
3.41047e+16
3.40651e+16
3.40242e+16
3.39828e+16
3.39411e+16
3.38997e+16
3.38593e+16
3.38207e+16
3.3785e+16
3.37535e+16
3.37282e+16
3.37117e+16
3.3708e+16
3.37213e+16
3.37622e+16
3.38145e+16
3.39949e+16
3.37313e+16
3.56546e+16
3.68178e+16
3.77353e+16
3.07477e+16
3.36381e+16
3.38171e+16
3.24663e+16
3.34884e+16
3.29747e+16
3.35523e+16
3.45591e+16
3.53945e+16
3.6076e+16
3.6431e+16
3.65197e+16
3.65971e+16
3.64376e+16
3.65627e+16
3.604e+16
3.68808e+16
3.49132e+16
3.93063e+16
3.8853e+16
3.45349e+16
3.53465e+16
3.57015e+16
3.56112e+16
3.55367e+16
3.54934e+16
3.5441e+16
3.53788e+16
3.53152e+16
3.52528e+16
3.51917e+16
3.51321e+16
3.50743e+16
3.5018e+16
3.49632e+16
3.49097e+16
3.48572e+16
3.48057e+16
3.47546e+16
3.4704e+16
3.46539e+16
3.46039e+16
3.45537e+16
3.45032e+16
3.44519e+16
3.43994e+16
3.43451e+16
3.42885e+16
3.42288e+16
3.41645e+16
3.41002e+16
3.40138e+16
3.40289e+16
3.35785e+16
3.53808e+16
3.65101e+16
3.74489e+16
2.9883e+16
3.35782e+16
3.36234e+16
3.20917e+16
3.30859e+16
3.15107e+16
3.26113e+16
3.44248e+16
3.55565e+16
3.62232e+16
3.6583e+16
3.66999e+16
3.67443e+16
3.66127e+16
3.6645e+16
3.62178e+16
3.68113e+16
3.5026e+16
3.84394e+16
3.83507e+16
3.39268e+16
3.47083e+16
3.50054e+16
3.48632e+16
3.47653e+16
3.47271e+16
3.46929e+16
3.46547e+16
3.46166e+16
3.45784e+16
3.45392e+16
3.44988e+16
3.44572e+16
3.44147e+16
3.43712e+16
3.4327e+16
3.42821e+16
3.42368e+16
3.41912e+16
3.41454e+16
3.40997e+16
3.4054e+16
3.40088e+16
3.39641e+16
3.39204e+16
3.3878e+16
3.38376e+16
3.37999e+16
3.37659e+16
3.37362e+16
3.37167e+16
3.36839e+16
3.37611e+16
3.3355e+16
3.52192e+16
3.63171e+16
3.73443e+16
2.93841e+16
3.35966e+16
3.35659e+16
3.16267e+16
3.28364e+16
3.16396e+16
3.32939e+16
3.497e+16
3.61031e+16
3.67325e+16
3.70114e+16
3.70553e+16
3.70131e+16
3.68466e+16
3.67883e+16
3.63838e+16
3.67747e+16
3.50608e+16
3.77362e+16
3.80231e+16
3.34994e+16
3.43438e+16
3.46811e+16
3.45471e+16
3.4458e+16
3.44244e+16
3.43889e+16
3.43465e+16
3.43033e+16
3.42598e+16
3.42156e+16
3.41705e+16
3.41247e+16
3.40785e+16
3.40318e+16
3.39848e+16
3.39378e+16
3.38906e+16
3.38435e+16
3.37965e+16
3.37497e+16
3.37031e+16
3.36569e+16
3.36113e+16
3.35663e+16
3.35225e+16
3.34801e+16
3.34397e+16
3.34027e+16
3.33697e+16
3.33479e+16
3.33153e+16
3.34037e+16
3.3011e+16
3.4934e+16
3.60397e+16
3.72422e+16
2.90152e+16
3.39816e+16
3.36094e+16
3.14788e+16
3.20949e+16
3.30212e+16
3.49331e+16
3.63573e+16
3.71538e+16
3.74694e+16
3.74949e+16
3.73551e+16
3.71689e+16
3.69186e+16
3.67619e+16
3.63393e+16
3.65602e+16
3.48717e+16
3.69733e+16
3.76181e+16
3.2977e+16
3.38633e+16
3.42305e+16
3.40944e+16
3.40106e+16
3.39872e+16
3.39594e+16
3.39232e+16
3.3885e+16
3.38456e+16
3.38045e+16
3.3762e+16
3.37184e+16
3.36739e+16
3.36288e+16
3.35833e+16
3.35374e+16
3.34914e+16
3.34454e+16
3.33994e+16
3.33538e+16
3.33084e+16
3.32635e+16
3.32194e+16
3.31763e+16
3.31347e+16
3.30951e+16
3.30586e+16
3.30266e+16
3.29999e+16
3.29867e+16
3.29643e+16
3.30706e+16
3.26881e+16
3.46683e+16
3.57542e+16
3.71575e+16
2.87018e+16
3.29586e+16
3.28637e+16
3.17827e+16
3.35258e+16
3.5772e+16
3.73459e+16
3.80723e+16
3.82199e+16
3.80396e+16
3.77152e+16
3.73445e+16
3.70019e+16
3.66615e+16
3.64213e+16
3.59746e+16
3.60657e+16
3.44042e+16
3.60986e+16
3.70874e+16
3.23521e+16
3.32731e+16
3.3642e+16
3.34634e+16
3.336e+16
3.33307e+16
3.33026e+16
3.32701e+16
3.32379e+16
3.32052e+16
3.31708e+16
3.31345e+16
3.30964e+16
3.30566e+16
3.30155e+16
3.29733e+16
3.29302e+16
3.28864e+16
3.28423e+16
3.27979e+16
3.27536e+16
3.27096e+16
3.26661e+16
3.26235e+16
3.25821e+16
3.25426e+16
3.25059e+16
3.2473e+16
3.24459e+16
3.2426e+16
3.24223e+16
3.24117e+16
3.25386e+16
3.21712e+16
3.42138e+16
3.5264e+16
3.70017e+16
2.83854e+16
4.10877e+16
3.71822e+16
3.80282e+16
3.95308e+16
3.99644e+16
3.97819e+16
3.92494e+16
3.85758e+16
3.78915e+16
3.72717e+16
3.67419e+16
3.63192e+16
3.5954e+16
3.56904e+16
3.52468e+16
3.52482e+16
3.36758e+16
3.51828e+16
3.64279e+16
3.17318e+16
3.28103e+16
3.33062e+16
3.31943e+16
3.31284e+16
3.31135e+16
3.3085e+16
3.3045e+16
3.30023e+16
3.29586e+16
3.29137e+16
3.28682e+16
3.28222e+16
3.27761e+16
3.27299e+16
3.26838e+16
3.26377e+16
3.25918e+16
3.25462e+16
3.25009e+16
3.24561e+16
3.24119e+16
3.23684e+16
3.2326e+16
3.2285e+16
3.2246e+16
3.22099e+16
3.2178e+16
3.21526e+16
3.21359e+16
3.2139e+16
3.21404e+16
3.22968e+16
3.19536e+16
3.41257e+16
3.5155e+16
3.71243e+16
2.81351e+16
5.65037e+16
4.4904e+16
4.36199e+16
4.23716e+16
4.09739e+16
3.96409e+16
3.84273e+16
3.73693e+16
3.64765e+16
3.5744e+16
3.51539e+16
3.46976e+16
3.43321e+16
3.40954e+16
3.37768e+16
3.39073e+16
3.27634e+16
3.44152e+16
3.54987e+16
3.07536e+16
3.16502e+16
3.19909e+16
3.18283e+16
3.17715e+16
3.17872e+16
3.17989e+16
3.18011e+16
3.17976e+16
3.1788e+16
3.17718e+16
3.17497e+16
3.17226e+16
3.16915e+16
3.16569e+16
3.16196e+16
3.15805e+16
3.15399e+16
3.14984e+16
3.14565e+16
3.14146e+16
3.13732e+16
3.13328e+16
3.12942e+16
3.1258e+16
3.12254e+16
3.11981e+16
3.1178e+16
3.11681e+16
3.11712e+16
3.11983e+16
3.12255e+16
3.141e+16
3.10852e+16
3.32662e+16
3.42908e+16
3.69435e+16
2.82678e+16
1.50836e+16
1.47204e+16
1.4776e+16
1.49088e+16
1.50562e+16
1.52746e+16
1.56132e+16
1.62357e+16
1.68145e+16
2.23086e+16
2.06702e+16
2.02231e+16
1.96485e+16
1.94109e+16
1.9187e+16
1.90798e+16
1.90969e+16
1.93958e+16
1.94393e+16
2.4242e+16
1.9889e+16
1.98855e+16
1.93103e+16
1.90951e+16
1.87769e+16
1.85496e+16
1.84047e+16
1.85387e+16
1.87859e+16
2.06534e+16
2.01216e+16
1.99718e+16
1.92868e+16
1.89514e+16
1.85302e+16
1.82022e+16
1.79063e+16
1.78328e+16
1.83975e+16
1.78594e+16
1.89815e+16
1.88709e+16
1.83102e+16
1.80167e+16
1.76277e+16
1.73179e+16
1.70262e+16
1.6824e+16
1.76737e+16
1.64927e+16
1.9353e+16
1.9215e+16
1.86479e+16
1.83328e+16
1.79203e+16
1.75855e+16
1.72785e+16
1.69377e+16
1.80296e+16
1.64608e+16
1.93576e+16
1.92215e+16
1.86655e+16
1.83487e+16
1.7932e+16
1.75884e+16
1.72883e+16
1.6851e+16
1.81004e+16
1.63068e+16
1.94164e+16
1.92812e+16
1.87259e+16
1.84059e+16
1.79842e+16
1.76318e+16
1.73387e+16
1.68333e+16
1.81879e+16
1.62571e+16
1.94515e+16
1.93191e+16
1.87639e+16
1.84424e+16
1.80183e+16
1.76602e+16
1.73736e+16
1.68236e+16
1.82456e+16
1.62319e+16
1.94842e+16
1.93541e+16
1.87979e+16
1.84755e+16
1.80499e+16
1.76875e+16
1.74057e+16
1.68268e+16
1.82926e+16
1.62284e+16
1.95135e+16
1.93852e+16
1.8828e+16
1.85048e+16
1.80783e+16
1.77129e+16
1.74347e+16
1.68365e+16
1.83317e+16
1.62364e+16
1.95414e+16
1.94144e+16
1.88561e+16
1.85324e+16
1.81053e+16
1.77374e+16
1.74619e+16
1.68505e+16
1.83665e+16
1.62513e+16
1.95685e+16
1.94424e+16
1.88832e+16
1.85588e+16
1.81314e+16
1.77615e+16
1.74882e+16
1.68669e+16
1.83989e+16
1.62703e+16
1.95951e+16
1.94699e+16
1.89096e+16
1.85846e+16
1.81571e+16
1.77852e+16
1.7514e+16
1.68843e+16
1.84301e+16
1.62915e+16
1.96215e+16
1.94971e+16
1.89359e+16
1.86101e+16
1.81827e+16
1.78088e+16
1.75397e+16
1.69023e+16
1.8461e+16
1.63138e+16
1.96478e+16
1.95243e+16
1.89621e+16
1.86354e+16
1.82083e+16
1.78324e+16
1.75654e+16
1.69204e+16
1.8492e+16
1.63365e+16
1.9674e+16
1.95513e+16
1.89884e+16
1.86607e+16
1.82339e+16
1.78558e+16
1.75912e+16
1.69383e+16
1.85233e+16
1.63593e+16
1.97003e+16
1.95783e+16
1.90148e+16
1.86859e+16
1.82597e+16
1.78793e+16
1.76172e+16
1.69558e+16
1.85551e+16
1.63817e+16
1.97266e+16
1.96051e+16
1.90414e+16
1.8711e+16
1.82855e+16
1.79028e+16
1.76434e+16
1.69731e+16
1.85876e+16
1.64037e+16
1.9753e+16
1.96317e+16
1.90681e+16
1.87359e+16
1.83115e+16
1.79263e+16
1.76697e+16
1.699e+16
1.86206e+16
1.64252e+16
1.97791e+16
1.96578e+16
1.9095e+16
1.87607e+16
1.83374e+16
1.79497e+16
1.76961e+16
1.70067e+16
1.86541e+16
1.64461e+16
1.98047e+16
1.96833e+16
1.91218e+16
1.8785e+16
1.83634e+16
1.79731e+16
1.77224e+16
1.70234e+16
1.86882e+16
1.64663e+16
1.98297e+16
1.97083e+16
1.91484e+16
1.88087e+16
1.8389e+16
1.79963e+16
1.77486e+16
1.70401e+16
1.87226e+16
1.64858e+16
1.98538e+16
1.97323e+16
1.91746e+16
1.88317e+16
1.84142e+16
1.80193e+16
1.77742e+16
1.70573e+16
1.87571e+16
1.65047e+16
1.98765e+16
1.97553e+16
1.92002e+16
1.88539e+16
1.84388e+16
1.80418e+16
1.77994e+16
1.70748e+16
1.87915e+16
1.65229e+16
1.98974e+16
1.97767e+16
1.92249e+16
1.88747e+16
1.84625e+16
1.80638e+16
1.7824e+16
1.70923e+16
1.8826e+16
1.65406e+16
1.9916e+16
1.9796e+16
1.92484e+16
1.8894e+16
1.8485e+16
1.80851e+16
1.78477e+16
1.71094e+16
1.88613e+16
1.65575e+16
1.99316e+16
1.98126e+16
1.92701e+16
1.8911e+16
1.85058e+16
1.81053e+16
1.78701e+16
1.71259e+16
1.88981e+16
1.65731e+16
1.99432e+16
1.98253e+16
1.92893e+16
1.89253e+16
1.85242e+16
1.8124e+16
1.78908e+16
1.71419e+16
1.89365e+16
1.65874e+16
1.99497e+16
1.98331e+16
1.93051e+16
1.89359e+16
1.85394e+16
1.81407e+16
1.79093e+16
1.71571e+16
1.89769e+16
1.66005e+16
1.99497e+16
1.98341e+16
1.93163e+16
1.89418e+16
1.85505e+16
1.81547e+16
1.7925e+16
1.71716e+16
1.90199e+16
1.66124e+16
1.99419e+16
1.98267e+16
1.93214e+16
1.89417e+16
1.85562e+16
1.8165e+16
1.7937e+16
1.71852e+16
1.90662e+16
1.66236e+16
1.99229e+16
1.98065e+16
1.93165e+16
1.89326e+16
1.85533e+16
1.81691e+16
1.7943e+16
1.71965e+16
1.91154e+16
1.66331e+16
1.98863e+16
1.9766e+16
1.92947e+16
1.89087e+16
1.85371e+16
1.81628e+16
1.79399e+16
1.72039e+16
1.91673e+16
1.66399e+16
1.98397e+16
1.97133e+16
1.92643e+16
1.88786e+16
1.85151e+16
1.8154e+16
1.79365e+16
1.72193e+16
1.9239e+16
1.66594e+16
1.98273e+16
1.96837e+16
1.92559e+16
1.88686e+16
1.8509e+16
1.81605e+16
1.79493e+16
1.72608e+16
1.93525e+16
1.67088e+16
1.9667e+16
1.94651e+16
1.9071e+16
1.87051e+16
1.83651e+16
1.80429e+16
1.78444e+16
1.71939e+16
1.93412e+16
1.66203e+16
1.88146e+16
1.86043e+16
1.83254e+16
1.80438e+16
1.77667e+16
1.75145e+16
1.73735e+16
1.68331e+16
1.90435e+16
1.62691e+16
2.08155e+16
2.05939e+16
2.02611e+16
1.98491e+16
1.94472e+16
1.9128e+16
1.89913e+16
1.86152e+16
2.13296e+16
1.826e+16
2.14572e+16
2.09404e+16
2.06083e+16
2.03768e+16
2.02587e+16
2.03077e+16
2.06223e+16
2.07356e+16
2.43859e+16
2.14235e+16
1.73771e+16
1.66088e+16
1.60396e+16
1.55792e+16
1.52152e+16
1.49219e+16
1.46577e+16
1.39409e+16
1.44972e+16
9.85657e+15
1.58426e+16
1.50819e+16
1.46098e+16
1.43432e+16
1.42987e+16
1.44234e+16
1.45923e+16
1.43773e+16
1.53119e+16
1.10542e+16
1.35327e+16
1.26903e+16
1.22212e+16
1.20083e+16
1.18407e+16
1.19089e+16
1.25098e+16
1.30286e+16
1.46011e+16
1.10188e+16
1.14647e+16
1.07649e+16
1.05033e+16
1.04626e+16
1.06975e+16
1.11721e+16
1.19409e+16
1.26163e+16
1.43995e+16
1.11014e+16
9.82107e+15
9.24162e+15
8.97557e+15
9.10368e+15
9.81406e+15
1.06711e+16
1.16213e+16
1.23956e+16
1.42073e+16
1.10839e+16
9.15947e+15
8.64969e+15
8.01085e+15
8.83979e+15
9.7598e+15
1.06512e+16
1.15858e+16
1.24402e+16
1.39269e+16
1.11615e+16
9.08365e+15
8.67492e+15
8.68166e+15
9.17085e+15
9.95386e+15
1.07738e+16
1.16373e+16
1.25435e+16
1.35289e+16
1.12895e+16
9.35399e+15
9.19554e+15
9.27226e+15
9.61936e+15
1.02482e+16
1.09678e+16
1.17444e+16
1.26267e+16
1.30969e+16
1.14603e+16
9.64336e+15
9.59842e+15
9.72077e+15
1.00255e+16
1.05432e+16
1.11668e+16
1.18484e+16
1.26375e+16
1.26586e+16
1.16606e+16
9.91776e+15
9.96833e+15
1.01179e+16
1.03862e+16
1.08177e+16
1.13484e+16
1.19218e+16
1.25731e+16
1.22458e+16
1.18939e+16
1.01179e+16
1.02367e+16
1.04098e+16
1.06611e+16
1.10274e+16
1.147e+16
1.19259e+16
1.24259e+16
1.18629e+16
1.21537e+16
1.02651e+16
1.04642e+16
1.06629e+16
1.08831e+16
1.1185e+16
1.15376e+16
1.18709e+16
1.22321e+16
1.15426e+16
1.24686e+16
1.02949e+16
1.05149e+16
1.07216e+16
1.09458e+16
1.12019e+16
1.14773e+16
1.17018e+16
1.19642e+16
1.12591e+16
1.28142e+16
1.0333e+16
1.06003e+16
1.08168e+16
1.1004e+16
1.12016e+16
1.14038e+16
1.15384e+16
1.17569e+16
1.11344e+16
1.33537e+16
1.02431e+16
1.04061e+16
1.05464e+16
1.07493e+16
1.09256e+16
1.10972e+16
1.11971e+16
1.14586e+16
1.10389e+16
1.38933e+16
1.04246e+16
1.06603e+16
1.07961e+16
1.09845e+16
1.11491e+16
1.13462e+16
1.15081e+16
1.19527e+16
1.18894e+16
1.57906e+16
1.08156e+16
1.07354e+16
1.08581e+16
1.09984e+16
1.11611e+16
1.1411e+16
1.16479e+16
1.237e+16
1.26212e+16
1.70867e+16
1.48756e+16
1.36419e+16
1.44237e+16
1.46338e+16
1.48806e+16
1.5078e+16
1.52132e+16
1.52906e+16
1.53442e+16
1.49303e+16
1.33409e+16
1.96167e+16
1.77791e+16
1.7788e+16
1.75316e+16
1.74025e+16
1.73397e+16
1.73591e+16
1.75104e+16
1.78703e+16
1.80944e+16
1.77454e+16
1.87631e+16
1.77094e+16
1.77735e+16
1.76762e+16
1.76478e+16
1.7619e+16
1.75902e+16
1.7592e+16
1.76356e+16
1.7414e+16
1.69255e+16
1.94749e+16
1.8623e+16
1.8514e+16
1.83543e+16
1.82831e+16
1.82497e+16
1.82541e+16
1.83168e+16
1.84267e+16
1.83287e+16
1.81437e+16
2.0043e+16
1.93718e+16
1.92007e+16
1.90433e+16
1.89668e+16
1.89232e+16
1.8909e+16
1.89463e+16
1.90227e+16
1.89538e+16
1.89132e+16
2.05745e+16
1.9993e+16
1.97596e+16
1.95775e+16
1.9479e+16
1.94252e+16
1.94101e+16
1.94465e+16
1.95094e+16
1.94768e+16
1.95384e+16
2.11498e+16
2.06164e+16
2.03426e+16
2.0143e+16
2.00266e+16
1.99609e+16
1.99385e+16
1.99664e+16
2.00219e+16
2.00198e+16
2.0129e+16
2.17339e+16
2.12268e+16
2.09219e+16
2.07065e+16
2.05743e+16
2.04977e+16
2.04686e+16
2.04907e+16
2.05423e+16
2.05653e+16
2.07004e+16
2.23193e+16
2.1828e+16
2.1498e+16
2.12696e+16
2.11259e+16
2.10419e+16
2.10074e+16
2.10222e+16
2.10689e+16
2.11077e+16
2.12537e+16
2.29001e+16
2.24197e+16
2.20643e+16
2.18161e+16
2.16542e+16
2.15587e+16
2.15188e+16
2.15319e+16
2.15787e+16
2.16311e+16
2.1784e+16
2.35028e+16
2.30415e+16
2.26722e+16
2.24099e+16
2.22314e+16
2.21233e+16
2.20763e+16
2.20863e+16
2.21339e+16
2.21977e+16
2.23561e+16
2.41668e+16
2.37348e+16
2.33655e+16
2.30999e+16
2.2911e+16
2.27925e+16
2.27375e+16
2.27428e+16
2.2791e+16
2.28637e+16
2.30245e+16
2.49085e+16
2.4514e+16
2.41614e+16
2.39114e+16
2.37304e+16
2.36142e+16
2.35564e+16
2.35538e+16
2.35967e+16
2.3671e+16
2.38261e+16
2.57372e+16
2.53735e+16
2.50352e+16
2.48002e+16
2.4629e+16
2.45179e+16
2.44594e+16
2.4449e+16
2.44839e+16
2.45556e+16
2.4701e+16
2.65568e+16
2.62096e+16
2.58745e+16
2.56444e+16
2.54753e+16
2.53653e+16
2.53069e+16
2.52954e+16
2.53286e+16
2.53998e+16
2.5536e+16
2.73804e+16
2.70456e+16
2.6712e+16
2.64848e+16
2.63165e+16
2.62061e+16
2.61461e+16
2.61319e+16
2.61625e+16
2.62316e+16
2.63591e+16
2.82093e+16
2.78859e+16
2.75537e+16
2.73298e+16
2.71627e+16
2.70526e+16
2.69918e+16
2.69756e+16
2.70034e+16
2.70697e+16
2.71891e+16
2.90408e+16
2.87295e+16
2.83991e+16
2.81789e+16
2.80137e+16
2.79044e+16
2.78433e+16
2.78255e+16
2.78506e+16
2.79136e+16
2.8025e+16
2.98779e+16
2.95806e+16
2.92527e+16
2.90378e+16
2.88757e+16
2.87684e+16
2.87079e+16
2.86893e+16
2.87087e+16
2.87682e+16
2.88721e+16
3.07203e+16
3.04401e+16
3.01147e+16
2.99064e+16
2.97483e+16
2.96437e+16
2.95842e+16
2.95654e+16
2.9583e+16
2.96393e+16
2.97366e+16
3.15703e+16
3.1311e+16
3.09884e+16
3.07892e+16
3.06377e+16
3.05385e+16
3.04823e+16
3.04644e+16
3.04809e+16
3.05341e+16
3.06253e+16
3.24372e+16
3.22015e+16
3.18778e+16
3.1686e+16
3.15385e+16
3.14428e+16
3.13893e+16
3.13738e+16
3.13921e+16
3.14448e+16
3.15321e+16
3.33457e+16
3.31399e+16
3.28186e+16
3.26412e+16
3.25036e+16
3.2416e+16
3.23674e+16
3.23532e+16
3.2369e+16
3.24175e+16
3.24988e+16
3.42635e+16
3.4079e+16
3.37512e+16
3.35827e+16
3.34499e+16
3.33659e+16
3.33178e+16
3.33012e+16
3.33118e+16
3.33534e+16
3.34272e+16
3.50758e+16
3.48997e+16
3.45551e+16
3.43876e+16
3.42547e+16
3.41729e+16
3.41269e+16
3.41122e+16
3.41241e+16
3.41643e+16
3.42338e+16
3.58321e+16
3.56691e+16
3.53038e+16
3.5134e+16
3.49981e+16
3.49162e+16
3.4871e+16
3.48577e+16
3.48709e+16
3.4911e+16
3.49782e+16
3.65665e+16
3.64367e+16
3.60492e+16
3.58768e+16
3.57354e+16
3.56505e+16
3.56036e+16
3.559e+16
3.56042e+16
3.56449e+16
3.57105e+16
3.73137e+16
3.72498e+16
3.68445e+16
3.66781e+16
3.6536e+16
3.6451e+16
3.64035e+16
3.63892e+16
3.64025e+16
3.64417e+16
3.65048e+16
3.80967e+16
3.81354e+16
3.77153e+16
3.75644e+16
3.74274e+16
3.73462e+16
3.73001e+16
3.72853e+16
3.72965e+16
3.73324e+16
3.73913e+16
3.88928e+16
3.90725e+16
3.86374e+16
3.85099e+16
3.8383e+16
3.83099e+16
3.8269e+16
3.82575e+16
3.82697e+16
3.83022e+16
3.83566e+16
3.97131e+16
4.00781e+16
3.96242e+16
3.95305e+16
3.94174e+16
3.93501e+16
3.93081e+16
3.92928e+16
3.93019e+16
3.93315e+16
3.93815e+16
4.0602e+16
4.11701e+16
4.06594e+16
4.0624e+16
4.05844e+16
4.06025e+16
4.06398e+16
4.06864e+16
4.07336e+16
4.07732e+16
4.08169e+16
4.20382e+16
4.28405e+16
4.19609e+16
4.15888e+16
4.11859e+16
4.08737e+16
4.06344e+16
4.04717e+16
4.03824e+16
4.03557e+16
4.03682e+16
4.30455e+16
4.56901e+16
4.59524e+16
4.67157e+16
4.72441e+16
4.76925e+16
4.80479e+16
4.83275e+16
4.85433e+16
4.86947e+16
4.87659e+16
4.09641e+16
4.05709e+16
3.82868e+16
3.73943e+16
3.66637e+16
3.61529e+16
3.57713e+16
3.54892e+16
3.52863e+16
3.51383e+16
3.49951e+16
2.86774e+16
2.98588e+16
3.10895e+16
3.18572e+16
3.23153e+16
3.25984e+16
3.27376e+16
3.27344e+16
3.26119e+16
3.23739e+16
3.19946e+16
3.14497e+16
3.07026e+16
2.98812e+16
2.90529e+16
2.82048e+16
2.73688e+16
2.66016e+16
2.57185e+16
2.51014e+16
2.40208e+16
2.30066e+16
2.23139e+16
2.15821e+16
2.09996e+16
2.05093e+16
2.00801e+16
1.96611e+16
1.92132e+16
1.87109e+16
1.81399e+16
1.74977e+16
1.66743e+16
1.57677e+16
1.51479e+16
3.6226e+16
3.52776e+16
3.47338e+16
3.42172e+16
3.37195e+16
3.32451e+16
3.27823e+16
3.23093e+16
3.18316e+16
3.13251e+16
3.07455e+16
3.00581e+16
2.92322e+16
2.84195e+16
2.76684e+16
2.69324e+16
2.62252e+16
2.55623e+16
2.48383e+16
2.42667e+16
2.34845e+16
2.28607e+16
2.24012e+16
2.18959e+16
2.14421e+16
2.10327e+16
2.06858e+16
2.03913e+16
2.01371e+16
1.99317e+16
1.97985e+16
1.97759e+16
1.97968e+16
1.98582e+16
2.02439e+16
3.42322e+16
3.43945e+16
3.40317e+16
3.3557e+16
3.30593e+16
3.25272e+16
3.19751e+16
3.14066e+16
3.0837e+16
3.02141e+16
2.9477e+16
2.86494e+16
2.78299e+16
2.71868e+16
2.66581e+16
2.61366e+16
2.56104e+16
2.50726e+16
2.44942e+16
2.39934e+16
2.34867e+16
2.3056e+16
2.27788e+16
2.25983e+16
2.24705e+16
2.23176e+16
2.21431e+16
2.19723e+16
2.18001e+16
2.16122e+16
2.14097e+16
2.12732e+16
2.10504e+16
2.05313e+16
2.00057e+16
3.28812e+16
3.25203e+16
3.20279e+16
3.15974e+16
3.12129e+16
3.08466e+16
3.04921e+16
3.01331e+16
2.97856e+16
2.94493e+16
2.9101e+16
2.87296e+16
2.83146e+16
2.79086e+16
2.75146e+16
2.71055e+16
2.66917e+16
2.62776e+16
2.58623e+16
2.54633e+16
2.49826e+16
2.44784e+16
2.40456e+16
2.36414e+16
2.32653e+16
2.2906e+16
2.25715e+16
2.22526e+16
2.19313e+16
2.16075e+16
2.12762e+16
2.09748e+16
2.06306e+16
2.02498e+16
2.0054e+16
3.0812e+16
3.04922e+16
2.99697e+16
2.95559e+16
2.91891e+16
2.88343e+16
2.8484e+16
2.81292e+16
2.77841e+16
2.74333e+16
2.70539e+16
2.66467e+16
2.62217e+16
2.58379e+16
2.54677e+16
2.50842e+16
2.46938e+16
2.42986e+16
2.38989e+16
2.35023e+16
2.30891e+16
2.26715e+16
2.23179e+16
2.20262e+16
2.17649e+16
2.1511e+16
2.12571e+16
2.10094e+16
2.07592e+16
2.05074e+16
2.02497e+16
2.00433e+16
1.98495e+16
1.95115e+16
1.91174e+16
3.10756e+16
3.06768e+16
3.01808e+16
2.98051e+16
2.9458e+16
2.91129e+16
2.87642e+16
2.8411e+16
2.80694e+16
2.77257e+16
2.73611e+16
2.69714e+16
2.65637e+16
2.61861e+16
2.58119e+16
2.54267e+16
2.50357e+16
2.46421e+16
2.42491e+16
2.38578e+16
2.34647e+16
2.30602e+16
2.27111e+16
2.24273e+16
2.21721e+16
2.1926e+16
2.16769e+16
2.14319e+16
2.11835e+16
2.09323e+16
2.06687e+16
2.045e+16
2.02859e+16
1.99964e+16
1.95754e+16
3.08501e+16
3.04183e+16
2.996e+16
2.96098e+16
2.92725e+16
2.89314e+16
2.85836e+16
2.82354e+16
2.79015e+16
2.75663e+16
2.72146e+16
2.68404e+16
2.64523e+16
2.60891e+16
2.57226e+16
2.53465e+16
2.49645e+16
2.45803e+16
2.41971e+16
2.38144e+16
2.3434e+16
2.3041e+16
2.26949e+16
2.24155e+16
2.21666e+16
2.19285e+16
2.16845e+16
2.14433e+16
2.11987e+16
2.09522e+16
2.06879e+16
2.04596e+16
2.0326e+16
2.01079e+16
1.96848e+16
3.07767e+16
3.03378e+16
2.99215e+16
2.9584e+16
2.92497e+16
2.89081e+16
2.85584e+16
2.82121e+16
2.7882e+16
2.75508e+16
2.72064e+16
2.68399e+16
2.64615e+16
2.61036e+16
2.57382e+16
2.5365e+16
2.49862e+16
2.46061e+16
2.42274e+16
2.38501e+16
2.34747e+16
2.30912e+16
2.27486e+16
2.2472e+16
2.22267e+16
2.19935e+16
2.17526e+16
2.15135e+16
2.12709e+16
2.10275e+16
2.07624e+16
2.05222e+16
2.03971e+16
2.02309e+16
1.98301e+16
3.07092e+16
3.02797e+16
2.98967e+16
2.95622e+16
2.92286e+16
2.88857e+16
2.85343e+16
2.819e+16
2.78629e+16
2.75347e+16
2.71958e+16
2.6835e+16
2.64637e+16
2.61098e+16
2.57456e+16
2.53748e+16
2.49985e+16
2.46216e+16
2.42462e+16
2.38723e+16
2.34997e+16
2.31206e+16
2.27818e+16
2.25068e+16
2.22631e+16
2.20326e+16
2.17933e+16
2.15553e+16
2.13137e+16
2.10724e+16
2.08074e+16
2.05591e+16
2.0435e+16
2.03029e+16
1.99296e+16
3.06727e+16
3.02593e+16
2.99003e+16
2.95642e+16
2.92309e+16
2.88863e+16
2.85335e+16
2.81905e+16
2.78651e+16
2.75387e+16
2.72034e+16
2.68461e+16
2.64792e+16
2.61274e+16
2.57634e+16
2.5394e+16
2.5019e+16
2.46438e+16
2.42703e+16
2.38984e+16
2.35278e+16
2.31501e+16
2.28141e+16
2.25408e+16
2.2298e+16
2.20688e+16
2.18305e+16
2.15931e+16
2.1352e+16
2.1112e+16
2.08472e+16
2.05938e+16
2.04683e+16
2.0356e+16
2.00052e+16
3.06565e+16
3.02597e+16
2.99167e+16
2.95774e+16
2.92443e+16
2.88982e+16
2.85441e+16
2.8202e+16
2.78778e+16
2.75523e+16
2.72195e+16
2.68642e+16
2.65002e+16
2.61497e+16
2.57856e+16
2.54168e+16
2.50425e+16
2.46683e+16
2.42959e+16
2.3925e+16
2.35556e+16
2.31788e+16
2.28436e+16
2.25718e+16
2.23299e+16
2.21013e+16
2.18634e+16
2.16263e+16
2.13854e+16
2.1146e+16
2.08814e+16
2.06249e+16
2.0498e+16
2.03971e+16
2.00611e+16
3.06568e+16
3.02743e+16
2.9942e+16
2.95993e+16
2.92663e+16
2.89188e+16
2.85636e+16
2.8222e+16
2.78983e+16
2.75735e+16
2.72421e+16
2.68881e+16
2.65258e+16
2.61759e+16
2.58115e+16
2.5443e+16
2.5069e+16
2.46952e+16
2.43233e+16
2.3953e+16
2.35841e+16
2.32077e+16
2.2873e+16
2.26014e+16
2.236e+16
2.21322e+16
2.18944e+16
2.16574e+16
2.14165e+16
2.11774e+16
2.09128e+16
2.06545e+16
2.05266e+16
2.04322e+16
2.01045e+16
3.06695e+16
3.0298e+16
2.99727e+16
2.96269e+16
2.9294e+16
2.89453e+16
2.85892e+16
2.82477e+16
2.79243e+16
2.75996e+16
2.72691e+16
2.69159e+16
2.65546e+16
2.62049e+16
2.58401e+16
2.54715e+16
2.50974e+16
2.47239e+16
2.43521e+16
2.3982e+16
2.36132e+16
2.32369e+16
2.29025e+16
2.26311e+16
2.23897e+16
2.21618e+16
2.19243e+16
2.16874e+16
2.14464e+16
2.12073e+16
2.09426e+16
2.06832e+16
2.05547e+16
2.04643e+16
2.01403e+16
3.06912e+16
3.03278e+16
3.0007e+16
2.96586e+16
2.93257e+16
2.8976e+16
2.8619e+16
2.82775e+16
2.79542e+16
2.76293e+16
2.72993e+16
2.69463e+16
2.65856e+16
2.6236e+16
2.58706e+16
2.55018e+16
2.51275e+16
2.47539e+16
2.4382e+16
2.40119e+16
2.36431e+16
2.32666e+16
2.29323e+16
2.26609e+16
2.24194e+16
2.21915e+16
2.19537e+16
2.17168e+16
2.14758e+16
2.12367e+16
2.09716e+16
2.07114e+16
2.05827e+16
2.04949e+16
2.01722e+16
3.07195e+16
3.03616e+16
3.00437e+16
2.96933e+16
2.93602e+16
2.90096e+16
2.86518e+16
2.83101e+16
2.79866e+16
2.76616e+16
2.73317e+16
2.69787e+16
2.66182e+16
2.62685e+16
2.59025e+16
2.55334e+16
2.51588e+16
2.4785e+16
2.44129e+16
2.40425e+16
2.36735e+16
2.32968e+16
2.29624e+16
2.2691e+16
2.24493e+16
2.22212e+16
2.19832e+16
2.1746e+16
2.15049e+16
2.12657e+16
2.10004e+16
2.07395e+16
2.06108e+16
2.05249e+16
2.02023e+16
3.07525e+16
3.03981e+16
3.0082e+16
2.97299e+16
2.93966e+16
2.90451e+16
2.86866e+16
2.83446e+16
2.80208e+16
2.76955e+16
2.73656e+16
2.70125e+16
2.66519e+16
2.6302e+16
2.59355e+16
2.5566e+16
2.5191e+16
2.48168e+16
2.44444e+16
2.40738e+16
2.37045e+16
2.33275e+16
2.29929e+16
2.27213e+16
2.24794e+16
2.22511e+16
2.20128e+16
2.17755e+16
2.15341e+16
2.12948e+16
2.10292e+16
2.07675e+16
2.06389e+16
2.05547e+16
2.02319e+16
3.07885e+16
3.04365e+16
3.01213e+16
2.9768e+16
2.94343e+16
2.90821e+16
2.87228e+16
2.83805e+16
2.80563e+16
2.77306e+16
2.74006e+16
2.70472e+16
2.66865e+16
2.63361e+16
2.59691e+16
2.55992e+16
2.52238e+16
2.48493e+16
2.44765e+16
2.41055e+16
2.37359e+16
2.33584e+16
2.30235e+16
2.27518e+16
2.25097e+16
2.22812e+16
2.20426e+16
2.1805e+16
2.15634e+16
2.13239e+16
2.1058e+16
2.07955e+16
2.06671e+16
2.05843e+16
2.02615e+16
3.08264e+16
3.04762e+16
3.01611e+16
2.98071e+16
2.94727e+16
2.91199e+16
2.87599e+16
2.84171e+16
2.80925e+16
2.77665e+16
2.74361e+16
2.70824e+16
2.67215e+16
2.63707e+16
2.60032e+16
2.56328e+16
2.5257e+16
2.4882e+16
2.45089e+16
2.41375e+16
2.37675e+16
2.33896e+16
2.30544e+16
2.27825e+16
2.25401e+16
2.23114e+16
2.20725e+16
2.18346e+16
2.15928e+16
2.13531e+16
2.10868e+16
2.08236e+16
2.06952e+16
2.06138e+16
2.02914e+16
3.08654e+16
3.05166e+16
3.02013e+16
2.98466e+16
2.95116e+16
2.91582e+16
2.87974e+16
2.84542e+16
2.81292e+16
2.78027e+16
2.7472e+16
2.7118e+16
2.67566e+16
2.64055e+16
2.60375e+16
2.56667e+16
2.52904e+16
2.49149e+16
2.45414e+16
2.41696e+16
2.37992e+16
2.34209e+16
2.30853e+16
2.28131e+16
2.25706e+16
2.23415e+16
2.21024e+16
2.18642e+16
2.16221e+16
2.13822e+16
2.11156e+16
2.08518e+16
2.07234e+16
2.0643e+16
2.03216e+16
3.09044e+16
3.05575e+16
3.02413e+16
2.98862e+16
2.95505e+16
2.91965e+16
2.88349e+16
2.84912e+16
2.81657e+16
2.78389e+16
2.75079e+16
2.71535e+16
2.67917e+16
2.64403e+16
2.60717e+16
2.57004e+16
2.53236e+16
2.49477e+16
2.45737e+16
2.42016e+16
2.38307e+16
2.3452e+16
2.3116e+16
2.28436e+16
2.26008e+16
2.23715e+16
2.21322e+16
2.18936e+16
2.16512e+16
2.14111e+16
2.11441e+16
2.08799e+16
2.07514e+16
2.06716e+16
2.03516e+16
3.09426e+16
3.05986e+16
3.0281e+16
2.99256e+16
2.95892e+16
2.92344e+16
2.88721e+16
2.85278e+16
2.8202e+16
2.78748e+16
2.75434e+16
2.71887e+16
2.68266e+16
2.64747e+16
2.61056e+16
2.57337e+16
2.53564e+16
2.49801e+16
2.46057e+16
2.42331e+16
2.38619e+16
2.34827e+16
2.31464e+16
2.28738e+16
2.26308e+16
2.24012e+16
2.21615e+16
2.19226e+16
2.16801e+16
2.14397e+16
2.11724e+16
2.09077e+16
2.0779e+16
2.06996e+16
2.03816e+16
3.09793e+16
3.06396e+16
3.03201e+16
2.99646e+16
2.96272e+16
2.92718e+16
2.89086e+16
2.85637e+16
2.82375e+16
2.791e+16
2.75782e+16
2.72233e+16
2.68609e+16
2.65086e+16
2.61388e+16
2.57664e+16
2.53887e+16
2.50118e+16
2.4637e+16
2.42641e+16
2.38924e+16
2.35129e+16
2.31762e+16
2.29034e+16
2.26602e+16
2.24303e+16
2.21904e+16
2.19511e+16
2.17084e+16
2.14678e+16
2.12001e+16
2.0935e+16
2.08062e+16
2.0727e+16
2.04114e+16
3.10136e+16
3.06802e+16
3.03583e+16
3.00026e+16
2.96644e+16
2.93081e+16
2.8944e+16
2.85986e+16
2.82719e+16
2.79441e+16
2.76122e+16
2.7257e+16
2.68943e+16
2.65416e+16
2.61712e+16
2.57982e+16
2.54199e+16
2.50427e+16
2.46673e+16
2.42941e+16
2.3922e+16
2.35421e+16
2.32051e+16
2.29321e+16
2.26886e+16
2.24585e+16
2.22183e+16
2.19787e+16
2.17358e+16
2.14949e+16
2.12269e+16
2.09616e+16
2.08326e+16
2.07535e+16
2.04408e+16
3.10443e+16
3.07201e+16
3.03951e+16
3.00393e+16
2.97002e+16
2.93429e+16
2.89778e+16
2.86318e+16
2.83047e+16
2.79768e+16
2.76447e+16
2.72895e+16
2.69265e+16
2.65734e+16
2.62024e+16
2.58287e+16
2.54499e+16
2.50721e+16
2.46964e+16
2.43228e+16
2.39502e+16
2.357e+16
2.32328e+16
2.29596e+16
2.27159e+16
2.24855e+16
2.2245e+16
2.2005e+16
2.1762e+16
2.15209e+16
2.12525e+16
2.09871e+16
2.0858e+16
2.07788e+16
2.04695e+16
3.10705e+16
3.07591e+16
3.04301e+16
3.00743e+16
2.97343e+16
2.93757e+16
2.90095e+16
2.86629e+16
2.83355e+16
2.80076e+16
2.76755e+16
2.73204e+16
2.69573e+16
2.66036e+16
2.62318e+16
2.58574e+16
2.5478e+16
2.50997e+16
2.47236e+16
2.43496e+16
2.39767e+16
2.35961e+16
2.32587e+16
2.29855e+16
2.27415e+16
2.25108e+16
2.227e+16
2.20297e+16
2.17865e+16
2.15452e+16
2.12765e+16
2.10112e+16
2.0882e+16
2.08025e+16
2.04969e+16
3.1091e+16
3.07971e+16
3.0463e+16
3.01071e+16
2.97661e+16
2.94061e+16
2.90385e+16
2.86913e+16
2.83638e+16
2.8036e+16
2.7704e+16
2.73491e+16
2.6986e+16
2.66318e+16
2.62592e+16
2.58838e+16
2.55038e+16
2.5125e+16
2.47484e+16
2.43741e+16
2.40008e+16
2.36198e+16
2.32824e+16
2.30092e+16
2.27649e+16
2.25338e+16
2.22928e+16
2.20521e+16
2.18088e+16
2.15673e+16
2.12983e+16
2.10332e+16
2.09041e+16
2.08243e+16
2.05225e+16
3.11042e+16
3.08338e+16
3.04931e+16
3.01372e+16
2.97952e+16
2.94334e+16
2.90642e+16
2.87165e+16
2.83888e+16
2.80613e+16