/*--------------------------------*- C++ -*----------------------------------*\
| =========                 |                                                 |
| \\      /  F ield         | OpenFOAM: The Open Source CFD Toolbox           |
|  \\    /   O peration     | Version:  2406                                  |
|   \\  /    A nd           | Website:  www.openfoam.com                      |
|    \\/     M anipulation  |                                                 |
\*---------------------------------------------------------------------------*/
FoamFile
{
    version     2.0;
    format      ascii;
    arch        "LSB;label=32;scalar=64";
    class       volScalarField;
    location    "0/neutroRegion";
    object      prec5;
}
// * * * * * * * * * * * * * * * * * * * * * * * * * * * * * * * * * * * * * //

dimensions      [0 -3 0 0 0 0 0];

internalField   nonuniform List<scalar> 
8595
(
1.05905e+15
9.96618e+14
8.34234e+14
8.10224e+14
7.85512e+14
7.83484e+14
7.9536e+14
8.06342e+14
8.14239e+14
8.17382e+14
8.14308e+14
8.0722e+14
7.76665e+14
8.20266e+14
7.31423e+14
8.50247e+14
7.27603e+14
1.05689e+15
4.17398e+14
3.72702e+14
3.83486e+14
3.89188e+14
3.87788e+14
3.85912e+14
3.84386e+14
3.82639e+14
3.80635e+14
3.78477e+14
3.76208e+14
3.73849e+14
3.71421e+14
3.68944e+14
3.66435e+14
3.63906e+14
3.61367e+14
3.58829e+14
3.56297e+14
3.53778e+14
3.51278e+14
3.48801e+14
3.46354e+14
3.43942e+14
3.41576e+14
3.39266e+14
3.37029e+14
3.34892e+14
3.32893e+14
3.31093e+14
3.29577e+14
3.28537e+14
3.28e+14
3.29502e+14
3.28433e+14
3.52753e+14
3.95785e+14
1.12422e+15
9.95865e+14
7.86035e+14
8.25649e+14
8.17279e+14
9.0325e+14
9.70524e+14
1.03683e+15
1.07196e+15
1.11429e+15
1.1539e+15
1.18035e+15
1.19289e+15
1.20343e+15
1.18159e+15
1.19282e+15
1.14639e+15
1.21511e+15
1.13255e+15
1.50546e+15
6.01385e+14
5.33922e+14
5.42851e+14
5.45744e+14
5.40904e+14
5.35797e+14
5.31117e+14
5.2638e+14
5.2163e+14
5.17014e+14
5.12574e+14
5.08303e+14
5.04187e+14
5.00213e+14
4.96364e+14
4.92621e+14
4.88969e+14
4.85393e+14
4.8188e+14
4.78417e+14
4.74993e+14
4.71598e+14
4.68218e+14
4.64839e+14
4.61445e+14
4.58015e+14
4.54516e+14
4.50907e+14
4.47123e+14
4.43075e+14
4.38612e+14
4.3359e+14
4.27432e+14
4.21116e+14
4.07333e+14
4.16718e+14
4.12899e+14
1.00103e+15
7.92284e+14
7.79203e+14
8.43359e+14
8.42404e+14
8.96143e+14
9.0352e+14
9.19884e+14
9.70925e+14
1.0425e+15
1.11236e+15
1.15512e+15
1.18396e+15
1.2007e+15
1.19458e+15
1.20285e+15
1.18036e+15
1.2341e+15
1.18239e+15
1.45189e+15
5.79698e+14
5.13685e+14
5.21333e+14
5.23161e+14
5.18429e+14
5.14167e+14
5.10981e+14
5.07957e+14
5.04899e+14
5.01835e+14
4.98758e+14
4.95653e+14
4.92518e+14
4.8936e+14
4.86184e+14
4.82997e+14
4.79806e+14
4.76615e+14
4.7343e+14
4.70257e+14
4.67101e+14
4.63957e+14
4.60832e+14
4.57729e+14
4.54652e+14
4.51607e+14
4.48597e+14
4.45629e+14
4.4271e+14
4.39847e+14
4.37034e+14
4.34315e+14
4.31346e+14
4.29401e+14
4.21033e+14
4.3821e+14
4.41771e+14
1.06727e+15
8.0072e+14
7.50866e+14
8.19455e+14
8.05091e+14
8.35801e+14
8.23495e+14
8.52556e+14
9.62206e+14
1.07315e+15
1.17827e+15
1.23952e+15
1.27724e+15
1.30174e+15
1.30884e+15
1.31982e+15
1.30777e+15
1.35251e+15
1.30921e+15
1.54154e+15
6.19993e+14
5.5295e+14
5.64892e+14
5.68374e+14
5.64155e+14
5.59869e+14
5.55963e+14
5.51891e+14
5.47685e+14
5.43502e+14
5.39392e+14
5.35361e+14
5.31411e+14
5.2754e+14
5.23744e+14
5.20015e+14
5.16345e+14
5.12729e+14
5.09158e+14
5.05622e+14
5.02117e+14
4.9864e+14
4.95182e+14
4.91732e+14
4.8828e+14
4.84812e+14
4.81307e+14
4.7774e+14
4.74071e+14
4.7025e+14
4.66189e+14
4.61847e+14
4.56767e+14
4.52343e+14
4.40733e+14
4.56498e+14
4.58683e+14
1.09873e+15
7.98975e+14
7.36363e+14
7.98672e+14
7.69325e+14
7.82496e+14
7.20316e+14
7.86652e+14
9.72325e+14
1.11308e+15
1.21865e+15
1.29328e+15
1.34124e+15
1.37152e+15
1.38438e+15
1.39622e+15
1.38944e+15
1.42763e+15
1.38554e+15
1.57717e+15
6.3868e+14
5.66673e+14
5.7854e+14
5.8119e+14
5.75959e+14
5.71197e+14
5.67274e+14
5.63376e+14
5.59426e+14
5.55519e+14
5.51667e+14
5.47859e+14
5.4409e+14
5.40359e+14
5.36665e+14
5.33004e+14
5.29373e+14
5.25769e+14
5.22192e+14
5.18639e+14
5.15108e+14
5.11597e+14
5.08102e+14
5.04622e+14
5.01152e+14
4.97685e+14
4.94211e+14
4.9072e+14
4.87187e+14
4.83581e+14
4.79834e+14
4.7592e+14
4.71337e+14
4.67523e+14
4.55939e+14
4.72964e+14
4.74531e+14
1.13161e+15
8.04152e+14
7.213e+14
7.81665e+14
7.36391e+14
7.44875e+14
6.92831e+14
8.54769e+14
1.0387e+15
1.19177e+15
1.30454e+15
1.38144e+15
1.4296e+15
1.45841e+15
1.47076e+15
1.47994e+15
1.47323e+15
1.5031e+15
1.45608e+15
1.61164e+15
6.57169e+14
5.80139e+14
5.93314e+14
5.96655e+14
5.9134e+14
5.8657e+14
5.82605e+14
5.78571e+14
5.7444e+14
5.7034e+14
5.66294e+14
5.62299e+14
5.58352e+14
5.54454e+14
5.50602e+14
5.46791e+14
5.43021e+14
5.39287e+14
5.35585e+14
5.31913e+14
5.28266e+14
5.24645e+14
5.21041e+14
5.17452e+14
5.13871e+14
5.1029e+14
5.06697e+14
5.03077e+14
4.99402e+14
4.95643e+14
4.9173e+14
4.87653e+14
4.82908e+14
4.79103e+14
4.6726e+14
4.85615e+14
4.87298e+14
1.16156e+15
8.11036e+14
7.13907e+14
7.64303e+14
7.11553e+14
7.05017e+14
8.11851e+14
1.01046e+15
1.19558e+15
1.33793e+15
1.43637e+15
1.49941e+15
1.53593e+15
1.5551e+15
1.56056e+15
1.56297e+15
1.55181e+15
1.57118e+15
1.51496e+15
1.63699e+15
6.71681e+14
5.89177e+14
6.03207e+14
6.0705e+14
6.01494e+14
5.96686e+14
5.92807e+14
5.8882e+14
5.84708e+14
5.8061e+14
5.76552e+14
5.72529e+14
5.68547e+14
5.64606e+14
5.60704e+14
5.56844e+14
5.53019e+14
5.49229e+14
5.45471e+14
5.41741e+14
5.38039e+14
5.34361e+14
5.30702e+14
5.27059e+14
5.23429e+14
5.19803e+14
5.16171e+14
5.12522e+14
5.08834e+14
5.0508e+14
5.01193e+14
4.97177e+14
4.92505e+14
4.88926e+14
4.76958e+14
4.96774e+14
4.98345e+14
1.18976e+15
8.18249e+14
6.77338e+14
7.24961e+14
6.95039e+14
8.21868e+14
1.05587e+15
1.26687e+15
1.42362e+15
1.52858e+15
1.59276e+15
1.62806e+15
1.64362e+15
1.64717e+15
1.64153e+15
1.63457e+15
1.61624e+15
1.62394e+15
1.55685e+15
1.64965e+15
6.80887e+14
5.93345e+14
6.0803e+14
6.11862e+14
6.05463e+14
6.00209e+14
5.96185e+14
5.9216e+14
5.88081e+14
5.84056e+14
5.80083e+14
5.76144e+14
5.72234e+14
5.68351e+14
5.64494e+14
5.60663e+14
5.56856e+14
5.53073e+14
5.49313e+14
5.45576e+14
5.41861e+14
5.38166e+14
5.34492e+14
5.30835e+14
5.27193e+14
5.23561e+14
5.19934e+14
5.16302e+14
5.12652e+14
5.08962e+14
5.0518e+14
5.01331e+14
4.96877e+14
4.93719e+14
4.81919e+14
5.03497e+14
5.04981e+14
1.21367e+15
8.24516e+14
8.20018e+14
7.77398e+14
1.02302e+15
1.28924e+15
1.47694e+15
1.60135e+15
1.67646e+15
1.71619e+15
1.7321e+15
1.73315e+15
1.72526e+15
1.71297e+15
1.69692e+15
1.68166e+15
1.65629e+15
1.65268e+15
1.57756e+15
1.6502e+15
6.83769e+14
5.94051e+14
6.11658e+14
6.17822e+14
6.12489e+14
6.07822e+14
6.0402e+14
5.9996e+14
5.95722e+14
5.91487e+14
5.87292e+14
5.83138e+14
5.79032e+14
5.74975e+14
5.70968e+14
5.67007e+14
5.63088e+14
5.59209e+14
5.55366e+14
5.51558e+14
5.47781e+14
5.44033e+14
5.40311e+14
5.36612e+14
5.32935e+14
5.29275e+14
5.25629e+14
5.2199e+14
5.18352e+14
5.14706e+14
5.11019e+14
5.07361e+14
5.03223e+14
5.00755e+14
4.89455e+14
5.13979e+14
5.15746e+14
1.24553e+15
8.32337e+14
1.90292e+15
1.71205e+15
1.79805e+15
1.84393e+15
1.85942e+15
1.85776e+15
1.84355e+15
1.82118e+15
1.79434e+15
1.76599e+15
1.73799e+15
1.71199e+15
1.6874e+15
1.66721e+15
1.64209e+15
1.63873e+15
1.5745e+15
1.64429e+15
6.76454e+14
5.83745e+14
5.97971e+14
6.01387e+14
5.9514e+14
5.9075e+14
5.87657e+14
5.84479e+14
5.81143e+14
5.77741e+14
5.74269e+14
5.70726e+14
5.67124e+14
5.63477e+14
5.59801e+14
5.56103e+14
5.52396e+14
5.48688e+14
5.44986e+14
5.41296e+14
5.37622e+14
5.33971e+14
5.30345e+14
5.2675e+14
5.23192e+14
5.19675e+14
5.16208e+14
5.128e+14
5.09462e+14
5.06206e+14
5.03021e+14
4.99996e+14
4.96605e+14
4.95077e+14
4.84584e+14
5.10664e+14
5.13644e+14
1.26546e+15
8.51495e+14
3.77016e+14
3.60166e+14
3.54394e+14
3.50948e+14
3.47979e+14
3.46621e+14
3.47683e+14
3.54353e+14
3.58778e+14
4.63975e+14
5.74488e+14
5.48526e+14
5.19939e+14
5.01235e+14
4.83262e+14
4.68531e+14
4.56904e+14
4.518e+14
4.40439e+14
5.3218e+14
2.3794e+14
2.31934e+14
2.19302e+14
2.10944e+14
2.01486e+14
1.93073e+14
1.8551e+14
1.80631e+14
1.7683e+14
1.86687e+14
2.4566e+14
2.37906e+14
2.2382e+14
2.13953e+14
2.03169e+14
1.93494e+14
1.84188e+14
1.76968e+14
1.7573e+14
1.62797e+14
2.34825e+14
2.2793e+14
2.15541e+14
2.06341e+14
1.96025e+14
1.86612e+14
1.77395e+14
1.68913e+14
1.70362e+14
1.5137e+14
2.41732e+14
2.34424e+14
2.21795e+14
2.12161e+14
2.0135e+14
1.91406e+14
1.81751e+14
1.71601e+14
1.75079e+14
1.52002e+14
2.43716e+14
2.36431e+14
2.23875e+14
2.1415e+14
2.03185e+14
1.93019e+14
1.83297e+14
1.72042e+14
1.76933e+14
1.5148e+14
2.46144e+14
2.3884e+14
2.26215e+14
2.16372e+14
2.05247e+14
1.94872e+14
1.85098e+14
1.73033e+14
1.78883e+14
1.51902e+14
2.48138e+14
2.40836e+14
2.28138e+14
2.1821e+14
2.0697e+14
1.96439e+14
1.86636e+14
1.74017e+14
1.80506e+14
1.52545e+14
2.50023e+14
2.42713e+14
2.29929e+14
2.19923e+14
2.08585e+14
1.97925e+14
1.8809e+14
1.7508e+14
1.82006e+14
1.53388e+14
2.51825e+14
2.44497e+14
2.31624e+14
2.21545e+14
2.1012e+14
1.9935e+14
1.89479e+14
1.76185e+14
1.83419e+14
1.54342e+14
2.53589e+14
2.46235e+14
2.33272e+14
2.23122e+14
2.11617e+14
2.00748e+14
1.90835e+14
1.77319e+14
1.84789e+14
1.55367e+14
2.55335e+14
2.4795e+14
2.34898e+14
2.24677e+14
2.13096e+14
2.02132e+14
1.92176e+14
1.78474e+14
1.86139e+14
1.56437e+14
2.57078e+14
2.4966e+14
2.36518e+14
2.26224e+14
2.1457e+14
2.03513e+14
1.93514e+14
1.79641e+14
1.87484e+14
1.57534e+14
2.58826e+14
2.51373e+14
2.38139e+14
2.27773e+14
2.16046e+14
2.04897e+14
1.94856e+14
1.80819e+14
1.88832e+14
1.58649e+14
2.60582e+14
2.53094e+14
2.39769e+14
2.29327e+14
2.1753e+14
2.06287e+14
1.96206e+14
1.82003e+14
1.9019e+14
1.59776e+14
2.62348e+14
2.54824e+14
2.41409e+14
2.30889e+14
2.19024e+14
2.07685e+14
1.97565e+14
1.83193e+14
1.9156e+14
1.6091e+14
2.64126e+14
2.56565e+14
2.43061e+14
2.32461e+14
2.20529e+14
2.09093e+14
1.98935e+14
1.84387e+14
1.92946e+14
1.62048e+14
2.65915e+14
2.58314e+14
2.44726e+14
2.34041e+14
2.22044e+14
2.10509e+14
2.00316e+14
1.85586e+14
1.94347e+14
1.6319e+14
2.67715e+14
2.6007e+14
2.46402e+14
2.3563e+14
2.2357e+14
2.11934e+14
2.01708e+14
1.8679e+14
1.95763e+14
1.64333e+14
2.69519e+14
2.61828e+14
2.4809e+14
2.37224e+14
2.25105e+14
2.13367e+14
2.03109e+14
1.88e+14
1.97196e+14
1.65478e+14
2.71324e+14
2.63584e+14
2.49781e+14
2.38818e+14
2.26648e+14
2.14808e+14
2.04519e+14
1.89215e+14
1.98643e+14
1.66623e+14
2.73124e+14
2.65337e+14
2.51475e+14
2.40408e+14
2.2819e+14
2.16251e+14
2.05934e+14
1.90439e+14
2.00104e+14
1.67768e+14
2.74913e+14
2.6708e+14
2.53165e+14
2.41991e+14
2.29729e+14
2.17692e+14
2.07346e+14
1.91674e+14
2.01575e+14
1.68913e+14
2.76681e+14
2.68804e+14
2.54845e+14
2.43561e+14
2.31261e+14
2.19129e+14
2.08755e+14
1.92913e+14
2.03054e+14
1.70059e+14
2.78416e+14
2.70499e+14
2.56506e+14
2.45107e+14
2.32776e+14
2.20557e+14
2.10157e+14
1.9415e+14
2.04541e+14
1.71207e+14
2.80103e+14
2.72151e+14
2.58137e+14
2.46619e+14
2.34265e+14
2.21967e+14
2.11543e+14
1.9538e+14
2.06039e+14
1.72352e+14
2.81722e+14
2.7374e+14
2.59721e+14
2.48082e+14
2.35715e+14
2.23349e+14
2.12905e+14
1.96598e+14
2.07553e+14
1.73487e+14
2.8325e+14
2.75241e+14
2.61238e+14
2.49475e+14
2.37106e+14
2.2469e+14
2.14228e+14
1.97799e+14
2.09083e+14
1.74609e+14
2.84651e+14
2.76618e+14
2.62658e+14
2.50771e+14
2.38414e+14
2.25971e+14
2.15498e+14
1.98974e+14
2.10628e+14
1.75717e+14
2.85886e+14
2.77826e+14
2.63944e+14
2.51938e+14
2.39608e+14
2.27166e+14
2.16693e+14
2.00112e+14
2.12188e+14
1.76809e+14
2.86901e+14
2.78809e+14
2.65044e+14
2.5293e+14
2.40646e+14
2.28241e+14
2.17785e+14
2.01199e+14
2.13762e+14
1.77884e+14
2.8761e+14
2.79463e+14
2.65864e+14
2.53663e+14
2.4145e+14
2.29132e+14
2.18718e+14
2.02199e+14
2.15333e+14
1.78928e+14
2.87856e+14
2.79621e+14
2.66249e+14
2.54008e+14
2.41905e+14
2.29742e+14
2.19417e+14
2.03065e+14
2.16878e+14
1.79921e+14
2.87668e+14
2.7931e+14
2.66226e+14
2.53994e+14
2.42037e+14
2.30104e+14
2.19938e+14
2.03901e+14
2.18568e+14
1.81021e+14
2.87567e+14
2.78904e+14
2.66091e+14
2.53853e+14
2.42009e+14
2.30341e+14
2.20397e+14
2.04859e+14
2.2061e+14
1.82399e+14
2.84714e+14
2.7519e+14
2.62899e+14
2.51058e+14
2.3964e+14
2.28529e+14
2.19018e+14
2.04242e+14
2.21024e+14
1.82185e+14
2.70986e+14
2.61537e+14
2.51142e+14
2.40788e+14
2.30602e+14
2.20858e+14
2.12596e+14
1.99718e+14
2.17857e+14
1.78943e+14
2.97057e+14
2.86559e+14
2.74617e+14
2.61867e+14
2.49627e+14
2.38838e+14
2.30633e+14
2.19861e+14
2.43777e+14
2.01384e+14
7.49087e+14
7.10706e+14
6.79924e+14
6.53832e+14
6.32773e+14
6.18179e+14
6.12643e+14
6.01832e+14
6.8895e+14
5.88024e+14
5.59132e+14
5.12117e+14
4.75173e+14
4.45366e+14
4.22086e+14
4.04144e+14
3.90479e+14
3.65327e+14
3.70739e+14
2.43531e+14
4.52239e+14
4.03678e+14
3.7035e+14
3.49204e+14
3.39553e+14
3.36232e+14
3.32455e+14
3.25704e+14
3.53107e+14
2.58647e+14
3.13325e+14
2.66094e+14
2.38648e+14
2.26555e+14
2.1791e+14
2.20582e+14
2.43236e+14
2.67799e+14
3.16929e+14
2.48201e+14
1.86216e+14
1.518e+14
1.36498e+14
1.30878e+14
1.42837e+14
1.69537e+14
2.06408e+14
2.4194e+14
2.99215e+14
2.42577e+14
9.73035e+13
7.866e+13
6.99407e+13
7.6595e+13
1.06044e+14
1.44839e+14
1.88281e+14
2.27893e+14
2.86239e+14
2.36177e+14
6.6408e+13
5.65718e+13
3.93356e+13
6.6365e+13
1.01635e+14
1.4062e+14
1.82732e+14
2.22858e+14
2.73327e+14
2.32008e+14
6.61887e+13
6.02279e+13
6.17491e+13
7.82837e+13
1.08064e+14
1.43111e+14
1.81296e+14
2.20137e+14
2.58861e+14
2.28706e+14
7.3815e+13
7.39695e+13
7.90151e+13
9.28085e+13
1.17417e+14
1.47834e+14
1.8152e+14
2.17271e+14
2.44172e+14
2.25882e+14
8.14759e+13
8.538e+13
9.24636e+13
1.05361e+14
1.26167e+14
1.52296e+14
1.81474e+14
2.12876e+14
2.29584e+14
2.23075e+14
8.75282e+13
9.42723e+13
1.02787e+14
1.15082e+14
1.33053e+14
1.55391e+14
1.8018e+14
2.06686e+14
2.155e+14
2.20159e+14
9.11818e+13
9.99373e+13
1.09512e+14
1.2141e+14
1.3719e+14
1.56198e+14
1.76814e+14
1.98506e+14
2.01829e+14
2.16789e+14
9.27333e+13
1.03108e+14
1.13463e+14
1.24799e+14
1.38668e+14
1.54692e+14
1.71444e+14
1.88873e+14
1.88915e+14
2.13169e+14
9.17878e+13
1.02668e+14
1.13192e+14
1.2418e+14
1.3645e+14
1.49893e+14
1.63274e+14
1.77317e+14
1.76069e+14
2.08472e+14
8.97971e+13
1.01136e+14
1.11602e+14
1.21707e+14
1.32305e+14
1.43426e+14
1.53977e+14
1.6564e+14
1.64686e+14
2.04492e+14
8.52377e+13
9.5023e+13
1.03948e+14
1.13517e+14
1.22776e+14
1.32109e+14
1.4062e+14
1.51038e+14
1.51882e+14
1.96879e+14
8.21991e+13
9.30043e+13
1.01456e+14
1.09574e+14
1.17109e+14
1.24931e+14
1.32264e+14
1.42674e+14
1.46601e+14
1.98902e+14
6.36449e+13
6.95334e+13
7.6387e+13
8.35476e+13
9.06009e+13
9.77612e+13
1.04353e+14
1.14918e+14
1.20832e+14
1.67052e+14
6.28439e+14
5.76672e+14
6.11949e+14
6.24165e+14
6.38512e+14
6.51088e+14
6.61113e+14
6.68592e+14
6.74917e+14
6.60366e+14
5.93016e+14
8.3717e+14
7.55902e+14
7.56663e+14
7.47899e+14
7.45392e+14
7.46217e+14
7.50876e+14
7.61312e+14
7.807e+14
7.93937e+14
7.81628e+14
8.13501e+14
7.63003e+14
7.64532e+14
7.61222e+14
7.62024e+14
7.63579e+14
7.65677e+14
7.69486e+14
7.75188e+14
7.69238e+14
7.5124e+14
8.59498e+14
8.15739e+14
8.08732e+14
8.01914e+14
8.00342e+14
8.0136e+14
8.04717e+14
8.11199e+14
8.20076e+14
8.19982e+14
8.16089e+14
9.02113e+14
8.64309e+14
8.53282e+14
8.45591e+14
8.43148e+14
8.43318e+14
8.45658e+14
8.5106e+14
8.58717e+14
8.60313e+14
8.63681e+14
9.43711e+14
9.08261e+14
8.93269e+14
8.83586e+14
8.79573e+14
8.78912e+14
8.81016e+14
8.86365e+14
8.93599e+14
8.97128e+14
9.05784e+14
9.88047e+14
9.53224e+14
9.35186e+14
9.2383e+14
9.18437e+14
9.16889e+14
9.18489e+14
9.23398e+14
9.30445e+14
9.35622e+14
9.47027e+14
1.03387e+15
9.98762e+14
9.77978e+14
9.64905e+14
9.58137e+14
9.55696e+14
9.56799e+14
9.61418e+14
9.68416e+14
9.74997e+14
9.88096e+14
1.08096e+15
1.04533e+15
1.02205e+15
1.00725e+15
9.99149e+14
9.95875e+14
9.9648e+14
1.00072e+15
1.00761e+15
1.01518e+15
1.02926e+15
1.12896e+15
1.09304e+15
1.06746e+15
1.05064e+15
1.04079e+15
1.03634e+15
1.03634e+15
1.04043e+15
1.04745e+15
1.05593e+15
1.0708e+15
1.17914e+15
1.14383e+15
1.11696e+15
1.09874e+15
1.0874e+15
1.08183e+15
1.08119e+15
1.08505e+15
1.09223e+15
1.10149e+15
1.11701e+15
1.23478e+15
1.20094e+15
1.17387e+15
1.15513e+15
1.14288e+15
1.13641e+15
1.13511e+15
1.13867e+15
1.146e+15
1.15594e+15
1.17197e+15
1.2977e+15
1.2659e+15
1.23974e+15
1.22187e+15
1.21009e+15
1.20381e+15
1.20244e+15
1.20564e+15
1.21283e+15
1.22306e+15
1.23909e+15
1.37027e+15
1.33998e+15
1.31437e+15
1.29715e+15
1.28579e+15
1.27973e+15
1.27832e+15
1.28115e+15
1.28808e+15
1.29844e+15
1.31436e+15
1.4453e+15
1.41577e+15
1.39009e+15
1.37292e+15
1.3615e+15
1.35539e+15
1.35394e+15
1.35674e+15
1.36371e+15
1.37427e+15
1.39003e+15
1.5217e+15
1.49285e+15
1.46713e+15
1.45004e+15
1.43858e+15
1.43242e+15
1.43091e+15
1.43362e+15
1.44056e+15
1.45119e+15
1.46667e+15
1.59946e+15
1.5714e+15
1.54577e+15
1.52888e+15
1.51752e+15
1.51143e+15
1.50995e+15
1.51266e+15
1.51959e+15
1.53021e+15
1.54542e+15
1.67836e+15
1.65133e+15
1.62595e+15
1.60943e+15
1.59831e+15
1.5924e+15
1.59104e+15
1.59382e+15
1.60075e+15
1.61135e+15
1.62626e+15
1.75838e+15
1.73276e+15
1.70787e+15
1.69198e+15
1.6813e+15
1.67576e+15
1.67466e+15
1.6776e+15
1.68425e+15
1.69484e+15
1.70948e+15
1.83913e+15
1.81543e+15
1.79128e+15
1.77627e+15
1.76622e+15
1.76116e+15
1.76043e+15
1.76361e+15
1.77038e+15
1.78096e+15
1.79537e+15
1.92025e+15
1.89913e+15
1.87608e+15
1.8624e+15
1.85335e+15
1.84909e+15
1.84894e+15
1.8525e+15
1.85947e+15
1.87007e+15
1.88425e+15
2.00158e+15
1.98361e+15
1.96186e+15
1.9498e+15
1.94193e+15
1.93862e+15
1.9392e+15
1.94333e+15
1.95071e+15
1.9615e+15
1.9756e+15
2.08387e+15
2.06955e+15
2.04946e+15
2.03976e+15
2.03379e+15
2.03209e+15
2.03384e+15
2.0387e+15
2.04633e+15
2.05708e+15
2.07093e+15
2.1649e+15
2.15357e+15
2.13419e+15
2.12603e+15
2.12119e+15
2.12042e+15
2.12279e+15
2.12797e+15
2.13561e+15
2.14614e+15
2.15962e+15
2.23481e+15
2.22597e+15
2.20672e+15
2.19955e+15
2.1954e+15
2.19533e+15
2.1983e+15
2.20397e+15
2.212e+15
2.22261e+15
2.2359e+15
2.29626e+15
2.2908e+15
2.27181e+15
2.26561e+15
2.26209e+15
2.26264e+15
2.26614e+15
2.27227e+15
2.28067e+15
2.29145e+15
2.30466e+15
2.35159e+15
2.35147e+15
2.33315e+15
2.32827e+15
2.32545e+15
2.32657e+15
2.33054e+15
2.33708e+15
2.34585e+15
2.35685e+15
2.37003e+15
2.40268e+15
2.41075e+15
2.39395e+15
2.39138e+15
2.38993e+15
2.3921e+15
2.39681e+15
2.40386e+15
2.41294e+15
2.42404e+15
2.43712e+15
2.44952e+15
2.46904e+15
2.45466e+15
2.45547e+15
2.45608e+15
2.45979e+15
2.46551e+15
2.47319e+15
2.48257e+15
2.49367e+15
2.50655e+15
2.48759e+15
2.52194e+15
2.51081e+15
2.51607e+15
2.51948e+15
2.52527e+15
2.53248e+15
2.54117e+15
2.55113e+15
2.56226e+15
2.5749e+15
2.51294e+15
2.56548e+15
2.55831e+15
2.56935e+15
2.57629e+15
2.58439e+15
2.59291e+15
2.60232e+15
2.6127e+15
2.62397e+15
2.63638e+15
2.5212e+15
2.59205e+15
2.58711e+15
2.60614e+15
2.6211e+15
2.63715e+15
2.65257e+15
2.66725e+15
2.68096e+15
2.69338e+15
2.70549e+15
2.53169e+15
2.61685e+15
2.59268e+15
2.59383e+15
2.58924e+15
2.5873e+15
2.58755e+15
2.59066e+15
2.59676e+15
2.60546e+15
2.61528e+15
2.47889e+15
2.66109e+15
2.69981e+15
2.76384e+15
2.8119e+15
2.8537e+15
2.88885e+15
2.91861e+15
2.94387e+15
2.9647e+15
2.98006e+15
2.16821e+15
2.16182e+15
2.05234e+15
2.01505e+15
1.98531e+15
1.96663e+15
1.95439e+15
1.94717e+15
1.94399e+15
1.94361e+15
1.94333e+15
8.70637e+14
9.20312e+14
9.74564e+14
1.01615e+15
1.049e+15
1.07668e+15
1.09967e+15
1.11751e+15
1.1305e+15
1.13924e+15
1.14275e+15
1.13925e+15
1.12504e+15
1.10231e+15
1.07375e+15
1.03947e+15
1.00151e+15
9.62895e+14
9.17975e+14
8.80494e+14
8.18851e+14
7.65438e+14
7.23221e+14
6.803e+14
6.44719e+14
6.14339e+14
5.87788e+14
5.62622e+14
5.3763e+14
5.12237e+14
4.86205e+14
4.59583e+14
4.29679e+14
4.00664e+14
3.8121e+14
1.24901e+15
1.22961e+15
1.22441e+15
1.21976e+15
1.21521e+15
1.21059e+15
1.20518e+15
1.19791e+15
1.18876e+15
1.17697e+15
1.16056e+15
1.13742e+15
1.10544e+15
1.07061e+15
1.03548e+15
9.99065e+14
9.62545e+14
9.26987e+14
8.88966e+14
8.55519e+14
8.11744e+14
7.76643e+14
7.47467e+14
7.17246e+14
6.90155e+14
6.65765e+14
6.44442e+14
6.25231e+14
6.07658e+14
5.92037e+14
5.79122e+14
5.70044e+14
5.62878e+14
5.58962e+14
5.65763e+14
5.16142e+14
5.23665e+14
5.22802e+14
5.19403e+14
5.14692e+14
5.08413e+14
5.00811e+14
4.92034e+14
4.82461e+14
4.71341e+14
4.57714e+14
4.41931e+14
4.25659e+14
4.12045e+14
4.0021e+14
3.8856e+14
3.7691e+14
3.65149e+14
3.52861e+14
3.41729e+14
3.30149e+14
3.20047e+14
3.12453e+14
3.06575e+14
3.01721e+14
2.96714e+14
2.91553e+14
2.86437e+14
2.81251e+14
2.75788e+14
2.70025e+14
2.64918e+14
2.58564e+14
2.49304e+14
2.40873e+14
5.07778e+14
5.06404e+14
5.02148e+14
4.97764e+14
4.93031e+14
4.87622e+14
4.81595e+14
4.74871e+14
4.67874e+14
4.60616e+14
4.52683e+14
4.43805e+14
4.33716e+14
4.23742e+14
4.1398e+14
4.04033e+14
3.94041e+14
3.84048e+14
3.7404e+14
3.64244e+14
3.53008e+14
3.4176e+14
3.31965e+14
3.23126e+14
3.1511e+14
3.07587e+14
3.00569e+14
2.93817e+14
2.87061e+14
2.80294e+14
2.73425e+14
2.66831e+14
2.59371e+14
2.516e+14
2.46672e+14
4.82942e+14
4.81349e+14
4.75549e+14
4.70301e+14
4.64796e+14
4.58696e+14
4.52075e+14
4.44972e+14
4.37763e+14
4.30197e+14
4.21842e+14
4.12601e+14
4.02662e+14
3.93379e+14
3.84351e+14
3.75168e+14
3.65903e+14
3.56573e+14
3.47189e+14
3.37864e+14
3.28177e+14
3.18549e+14
3.10209e+14
3.03271e+14
2.97139e+14
2.91333e+14
2.85644e+14
2.80071e+14
2.7448e+14
2.68891e+14
2.63258e+14
2.583e+14
2.53321e+14
2.46341e+14
2.38699e+14
4.92298e+14
4.89012e+14
4.82962e+14
4.77619e+14
4.7181e+14
4.65369e+14
4.58396e+14
4.51046e+14
4.43716e+14
4.36151e+14
4.27958e+14
4.18939e+14
4.09229e+14
4.00024e+14
3.90929e+14
3.81715e+14
3.72437e+14
3.63127e+14
3.53839e+14
3.44592e+14
3.35289e+14
3.25837e+14
3.17532e+14
3.10713e+14
3.04683e+14
2.99008e+14
2.93386e+14
2.87845e+14
2.82267e+14
2.76666e+14
2.70937e+14
2.65876e+14
2.61582e+14
2.55523e+14
2.47365e+14
4.93018e+14
4.88799e+14
4.82807e+14
4.77372e+14
4.71327e+14
4.64662e+14
4.5749e+14
4.50077e+14
4.42788e+14
4.35313e+14
4.27302e+14
4.18512e+14
4.09107e+14
4.00138e+14
3.91183e+14
3.82129e+14
3.73008e+14
3.63864e+14
3.54748e+14
3.45657e+14
3.36616e+14
3.2738e+14
3.19127e+14
3.12396e+14
3.0648e+14
3.00947e+14
2.95411e+14
2.8993e+14
2.84411e+14
2.78873e+14
2.73118e+14
2.67921e+14
2.64192e+14
2.5939e+14
2.51342e+14
4.9557e+14
4.90921e+14
4.85205e+14
4.79638e+14
4.73391e+14
4.66532e+14
4.59184e+14
4.517e+14
4.44408e+14
4.36955e+14
4.29022e+14
4.20322e+14
4.11037e+14
4.02133e+14
3.93183e+14
3.8416e+14
3.75075e+14
3.65983e+14
3.56928e+14
3.47911e+14
3.38943e+14
3.2988e+14
3.21658e+14
3.14961e+14
3.09093e+14
3.0363e+14
2.9813e+14
2.92666e+14
2.87159e+14
2.81647e+14
2.75852e+14
2.70452e+14
2.66887e+14
2.6297e+14
2.55473e+14
4.97872e+14
4.93122e+14
4.87653e+14
4.81907e+14
4.75506e+14
4.68495e+14
4.61015e+14
4.53486e+14
4.46191e+14
4.38746e+14
4.30864e+14
4.22213e+14
4.13003e+14
4.04134e+14
3.95176e+14
3.86165e+14
3.77094e+14
3.68025e+14
3.58997e+14
3.50012e+14
3.41067e+14
3.32061e+14
3.23887e+14
3.17194e+14
3.11335e+14
3.059e+14
3.00406e+14
2.94941e+14
2.89429e+14
2.83924e+14
2.78103e+14
2.72548e+14
2.69002e+14
2.65633e+14
2.58757e+14
5.0046e+14
4.95777e+14
4.90487e+14
4.84554e+14
4.7804e+14
4.70904e+14
4.63315e+14
4.55742e+14
4.48429e+14
4.40972e+14
4.33105e+14
4.24465e+14
4.1528e+14
4.06408e+14
3.97418e+14
3.88391e+14
3.79304e+14
3.70228e+14
3.61195e+14
3.52207e+14
3.4326e+14
3.34246e+14
3.26095e+14
3.19407e+14
3.13538e+14
3.08103e+14
3.026e+14
2.97121e+14
2.91591e+14
2.86077e+14
2.80231e+14
2.74565e+14
2.70989e+14
2.6792e+14
2.61532e+14
5.03244e+14
4.98682e+14
4.93503e+14
4.87401e+14
4.80799e+14
4.73557e+14
4.65876e+14
4.5826e+14
4.50919e+14
4.43437e+14
4.35565e+14
4.26912e+14
4.17724e+14
4.08829e+14
3.99795e+14
3.90736e+14
3.81617e+14
3.72514e+14
3.63458e+14
3.54446e+14
3.45477e+14
3.36435e+14
3.28262e+14
3.21575e+14
3.15694e+14
3.10244e+14
3.04721e+14
2.99219e+14
2.93665e+14
2.88133e+14
2.82257e+14
2.76512e+14
2.729e+14
2.69988e+14
2.63913e+14
5.06215e+14
5.01776e+14
4.96659e+14
4.9041e+14
4.83737e+14
4.76405e+14
4.68642e+14
4.60981e+14
4.53604e+14
4.46089e+14
4.38196e+14
4.29513e+14
4.20302e+14
4.1137e+14
4.02284e+14
3.93181e+14
3.8402e+14
3.74877e+14
3.65783e+14
3.56735e+14
3.4773e+14
3.38649e+14
3.30444e+14
3.23729e+14
3.17829e+14
3.12364e+14
3.06815e+14
3.01285e+14
2.95702e+14
2.90144e+14
2.84237e+14
2.7843e+14
2.74786e+14
2.71954e+14
2.66047e+14
5.09339e+14
5.05e+14
4.99912e+14
4.93538e+14
4.86806e+14
4.79393e+14
4.71555e+14
4.63846e+14
4.5643e+14
4.48873e+14
4.40948e+14
4.32226e+14
4.22979e+14
4.14001e+14
4.04857e+14
3.95705e+14
3.86492e+14
3.77303e+14
3.68162e+14
3.59068e+14
3.50017e+14
3.4089e+14
3.32646e+14
3.25898e+14
3.19967e+14
3.14473e+14
3.089e+14
3.03342e+14
2.97726e+14
2.92138e+14
2.86196e+14
2.80338e+14
2.76666e+14
2.73876e+14
2.68039e+14
5.12587e+14
5.08319e+14
5.03237e+14
4.9676e+14
4.89972e+14
4.82487e+14
4.74579e+14
4.66819e+14
4.5936e+14
4.51756e+14
4.43793e+14
4.35024e+14
4.25732e+14
4.16702e+14
4.07498e+14
3.98291e+14
3.89022e+14
3.7978e+14
3.70586e+14
3.61441e+14
3.5234e+14
3.43159e+14
3.3487e+14
3.28087e+14
3.22122e+14
3.16596e+14
3.10987e+14
3.05398e+14
2.99752e+14
2.94132e+14
2.88152e+14
2.82247e+14
2.78552e+14
2.75782e+14
2.69961e+14
5.15932e+14
5.11708e+14
5.0662e+14
5.00055e+14
4.93214e+14
4.85661e+14
4.77687e+14
4.69876e+14
4.62368e+14
4.54717e+14
4.46709e+14
4.37888e+14
4.28544e+14
4.1946e+14
4.10193e+14
4.00927e+14
3.91601e+14
3.82301e+14
3.73051e+14
3.6385e+14
3.54693e+14
3.45457e+14
3.37118e+14
3.30296e+14
3.24295e+14
3.18735e+14
3.13091e+14
3.07466e+14
3.01786e+14
2.96133e+14
2.90114e+14
2.84165e+14
2.80447e+14
2.77689e+14
2.71856e+14
5.19354e+14
5.15154e+14
5.10048e+14
5.03407e+14
4.96514e+14
4.88897e+14
4.80859e+14
4.72995e+14
4.65438e+14
4.57737e+14
4.4968e+14
4.40804e+14
4.31403e+14
4.22262e+14
4.12932e+14
4.03606e+14
3.94218e+14
3.84859e+14
3.7555e+14
3.66292e+14
3.57076e+14
3.47781e+14
3.39391e+14
3.32528e+14
3.26488e+14
3.20893e+14
3.15212e+14
3.09551e+14
3.03834e+14
2.98147e+14
2.92089e+14
2.86093e+14
2.82356e+14
2.79604e+14
2.73751e+14
5.22834e+14
5.18647e+14
5.13513e+14
5.06806e+14
4.99861e+14
4.92184e+14
4.84082e+14
4.76163e+14
4.68556e+14
4.60803e+14
4.52695e+14
4.43762e+14
4.34302e+14
4.251e+14
4.15707e+14
4.06319e+14
3.96868e+14
3.87448e+14
3.78078e+14
3.6876e+14
3.59485e+14
3.50129e+14
3.41685e+14
3.34779e+14
3.28701e+14
3.2307e+14
3.17351e+14
3.11653e+14
3.059e+14
3.00176e+14
2.94077e+14
2.88035e+14
2.84277e+14
2.81529e+14
2.75658e+14
5.26359e+14
5.22177e+14
5.17008e+14
5.10244e+14
5.03245e+14
4.95509e+14
4.87344e+14
4.79371e+14
4.71711e+14
4.63905e+14
4.55744e+14
4.46752e+14
4.37232e+14
4.27969e+14
4.18511e+14
4.09059e+14
3.99546e+14
3.90063e+14
3.80632e+14
3.71251e+14
3.61916e+14
3.52498e+14
3.43999e+14
3.37049e+14
3.30931e+14
3.25263e+14
3.19506e+14
3.1377e+14
3.0798e+14
3.02219e+14
2.96079e+14
2.89991e+14
2.86211e+14
2.83466e+14
2.7758e+14
5.29919e+14
5.25741e+14
5.20531e+14
5.13713e+14
5.06658e+14
4.98865e+14
4.90637e+14
4.82607e+14
4.74894e+14
4.67036e+14
4.5882e+14
4.49769e+14
4.40185e+14
4.30861e+14
4.21338e+14
4.11822e+14
4.02245e+14
3.92699e+14
3.83204e+14
3.73762e+14
3.64365e+14
3.54883e+14
3.46328e+14
3.39333e+14
3.33176e+14
3.27471e+14
3.21675e+14
3.159e+14
3.10072e+14
3.04275e+14
2.98094e+14
2.9196e+14
2.88158e+14
2.8541e+14
2.79517e+14
5.335e+14
5.29335e+14
5.24074e+14
5.17205e+14
5.10095e+14
5.02241e+14
4.9395e+14
4.85862e+14
4.78097e+14
4.70186e+14
4.61915e+14
4.52803e+14
4.43155e+14
4.33769e+14
4.24182e+14
4.14601e+14
4.04958e+14
3.95348e+14
3.8579e+14
3.76286e+14
3.66826e+14
3.57282e+14
3.48669e+14
3.4163e+14
3.35432e+14
3.29689e+14
3.23855e+14
3.18041e+14
3.12174e+14
3.06339e+14
3.00117e+14
2.93938e+14
2.90112e+14
2.87359e+14
2.81458e+14
5.37092e+14
5.32955e+14
5.27632e+14
5.20714e+14
5.13546e+14
5.05632e+14
4.97275e+14
4.8913e+14
4.81312e+14
4.73346e+14
4.65021e+14
4.55849e+14
4.46138e+14
4.36689e+14
4.27035e+14
4.17388e+14
4.07681e+14
3.98005e+14
3.88384e+14
3.78816e+14
3.69294e+14
3.59686e+14
3.51017e+14
3.43933e+14
3.37694e+14
3.31913e+14
3.2604e+14
3.20186e+14
3.14282e+14
3.08409e+14
3.02144e+14
2.95923e+14
2.92072e+14
2.89307e+14
2.83406e+14
5.40684e+14
5.36598e+14
5.31201e+14
5.24234e+14
5.17005e+14
5.09029e+14
5.00604e+14
4.924e+14
4.84528e+14
4.7651e+14
4.68129e+14
4.58899e+14
4.49124e+14
4.39611e+14
4.2989e+14
4.20177e+14
4.10404e+14
4.00663e+14
3.90978e+14
3.81348e+14
3.71762e+14
3.62091e+14
3.53366e+14
3.46237e+14
3.39957e+14
3.34138e+14
3.28226e+14
3.22332e+14
3.1639e+14
3.10479e+14
3.04172e+14
2.97909e+14
2.94033e+14
2.91254e+14
2.85359e+14
5.44264e+14
5.4026e+14
5.34775e+14
5.27757e+14
5.20465e+14
5.12422e+14
5.03928e+14
4.95662e+14
4.87736e+14
4.79667e+14
4.71233e+14
4.61944e+14
4.52104e+14
4.42529e+14
4.32741e+14
4.22959e+14
4.1312e+14
4.03314e+14
3.93563e+14
3.83871e+14
3.74221e+14
3.64487e+14
3.55706e+14
3.48532e+14
3.42212e+14
3.36355e+14
3.30404e+14
3.2447e+14
3.18491e+14
3.12541e+14
3.06193e+14
2.99889e+14
2.95988e+14
2.93195e+14
2.87313e+14
5.47815e+14
5.43936e+14
5.38346e+14
5.31275e+14
5.23915e+14
5.158e+14
5.07233e+14
4.98906e+14
4.90926e+14
4.82807e+14
4.7432e+14
4.64974e+14
4.55072e+14
4.45432e+14
4.35575e+14
4.25725e+14
4.15818e+14
4.05946e+14
3.96131e+14
3.86375e+14
3.76662e+14
3.66866e+14
3.58029e+14
3.50811e+14
3.44451e+14
3.38555e+14
3.32565e+14
3.26592e+14
3.20576e+14
3.14588e+14
3.08198e+14
3.01856e+14
2.97931e+14
2.9512e+14
2.89257e+14
5.51322e+14
5.47626e+14
5.41905e+14
5.34776e+14
5.27346e+14
5.19152e+14
5.10506e+14
5.02116e+14
4.94083e+14
4.85916e+14
4.77378e+14
4.67978e+14
4.58014e+14
4.4831e+14
4.38382e+14
4.28461e+14
4.18486e+14
4.08547e+14
3.98668e+14
3.88849e+14
3.79072e+14
3.69214e+14
3.60323e+14
3.53063e+14
3.46662e+14
3.40727e+14
3.34699e+14
3.28687e+14
3.22633e+14
3.16608e+14
3.10177e+14
3.03799e+14
2.99851e+14
2.9702e+14
2.91182e+14
5.54765e+14
5.51326e+14
5.45443e+14
5.38251e+14
5.30745e+14
5.22465e+14
5.13733e+14
5.05278e+14
4.97194e+14
4.8898e+14
4.80394e+14
4.70942e+14
4.60919e+14
4.5115e+14
4.41148e+14
4.31154e+14
4.21109e+14
4.11103e+14
4.01158e+14
3.91276e+14
3.81437e+14
3.71516e+14
3.62572e+14
3.55271e+14
3.4883e+14
3.42856e+14
3.36789e+14
3.30738e+14
3.24649e+14
3.18588e+14
3.12116e+14
3.05704e+14
3.01735e+14
2.98884e+14
2.93075e+14
5.58123e+14
5.55034e+14
5.48949e+14
5.41686e+14
5.34098e+14
5.2572e+14
5.16895e+14
5.08375e+14
5.00241e+14
4.91983e+14
4.83351e+14
4.7385e+14
4.63769e+14