/*--------------------------------*- C++ -*----------------------------------*\
| =========                 |                                                 |
| \\      /  F ield         | OpenFOAM: The Open Source CFD Toolbox           |
|  \\    /   O peration     | Version:  2406                                  |
|   \\  /    A nd           | Website:  www.openfoam.com                      |
|    \\/     M anipulation  |                                                 |
\*---------------------------------------------------------------------------*/
FoamFile
{
    version     2.0;
    format      ascii;
    arch        "LSB;label=32;scalar=64";
    class       volScalarField;
    location    "0/neutroRegion";
    object      prec3;
}
// * * * * * * * * * * * * * * * * * * * * * * * * * * * * * * * * * * * * * //

dimensions      [0 -3 0 0 0 0 0];

internalField   nonuniform List<scalar> 
8595
(
4.63588e+16
4.03536e+16
3.25216e+16
3.08203e+16
2.92752e+16
2.86702e+16
2.85891e+16
2.8544e+16
2.84903e+16
2.84232e+16
2.82984e+16
2.82147e+16
2.73864e+16
2.99334e+16
2.66187e+16
3.08705e+16
2.54604e+16
3.36115e+16
1.2967e+16
1.15643e+16
1.19296e+16
1.21586e+16
1.21784e+16
1.21863e+16
1.22052e+16
1.22172e+16
1.22209e+16
1.22196e+16
1.22147e+16
1.22065e+16
1.21958e+16
1.21832e+16
1.2169e+16
1.21537e+16
1.21376e+16
1.21209e+16
1.2104e+16
1.20868e+16
1.20698e+16
1.2053e+16
1.20366e+16
1.20209e+16
1.20063e+16
1.19931e+16
1.19821e+16
1.19742e+16
1.1971e+16
1.19749e+16
1.19893e+16
1.20216e+16
1.20734e+16
1.2203e+16
1.22401e+16
1.32397e+16
1.49825e+16
4.38073e+16
4.08564e+16
3.44251e+16
3.31508e+16
3.13411e+16
3.35663e+16
3.51193e+16
3.66367e+16
3.69797e+16
3.73111e+16
3.75627e+16
3.76773e+16
3.75695e+16
3.78356e+16
3.72497e+16
3.79183e+16
3.65201e+16
3.84843e+16
3.49369e+16
4.34279e+16
1.69883e+16
1.50423e+16
1.53257e+16
1.54691e+16
1.54096e+16
1.53493e+16
1.53021e+16
1.52529e+16
1.52025e+16
1.51549e+16
1.51111e+16
1.50709e+16
1.50341e+16
1.50002e+16
1.49689e+16
1.49397e+16
1.49122e+16
1.4886e+16
1.48609e+16
1.48364e+16
1.48124e+16
1.47885e+16
1.47645e+16
1.47399e+16
1.47144e+16
1.46873e+16
1.4658e+16
1.46252e+16
1.45873e+16
1.45419e+16
1.44852e+16
1.44136e+16
1.43101e+16
1.42113e+16
1.38743e+16
1.43637e+16
1.45116e+16
3.69361e+16
3.13815e+16
3.44261e+16
3.41946e+16
3.2899e+16
3.41783e+16
3.3771e+16
3.36072e+16
3.40314e+16
3.45716e+16
3.50081e+16
3.51927e+16
3.51894e+16
3.53605e+16
3.50323e+16
3.52794e+16
3.45503e+16
3.58071e+16
3.34965e+16
3.89794e+16
1.52694e+16
1.34876e+16
1.3715e+16
1.3817e+16
1.37605e+16
1.37244e+16
1.37203e+16
1.37216e+16
1.37217e+16
1.37205e+16
1.37176e+16
1.37124e+16
1.37049e+16
1.36954e+16
1.3684e+16
1.36711e+16
1.3657e+16
1.36419e+16
1.3626e+16
1.36097e+16
1.35931e+16
1.35764e+16
1.35599e+16
1.35437e+16
1.35283e+16
1.3514e+16
1.35014e+16
1.34913e+16
1.34847e+16
1.34832e+16
1.34885e+16
1.35049e+16
1.35258e+16
1.35979e+16
1.34925e+16
1.42619e+16
1.47271e+16
3.77353e+16
3.07477e+16
3.36381e+16
3.38171e+16
3.24663e+16
3.34884e+16
3.29747e+16
3.35523e+16
3.45591e+16
3.53945e+16
3.6076e+16
3.6431e+16
3.65197e+16
3.65971e+16
3.64376e+16
3.65627e+16
3.604e+16
3.68808e+16
3.49132e+16
3.93063e+16
1.55412e+16
1.3814e+16
1.41386e+16
1.42806e+16
1.42445e+16
1.42147e+16
1.41973e+16
1.41764e+16
1.41515e+16
1.41261e+16
1.41011e+16
1.40767e+16
1.40529e+16
1.40297e+16
1.40072e+16
1.39853e+16
1.39639e+16
1.39429e+16
1.39223e+16
1.39018e+16
1.38816e+16
1.38616e+16
1.38416e+16
1.38215e+16
1.38013e+16
1.37808e+16
1.37597e+16
1.37381e+16
1.37154e+16
1.36915e+16
1.36658e+16
1.36401e+16
1.36055e+16
1.36116e+16
1.34314e+16
1.41523e+16
1.4604e+16
3.74489e+16
2.9883e+16
3.35782e+16
3.36234e+16
3.20917e+16
3.30859e+16
3.15107e+16
3.26113e+16
3.44248e+16
3.55565e+16
3.62232e+16
3.6583e+16
3.66999e+16
3.67443e+16
3.66127e+16
3.6645e+16
3.62178e+16
3.68113e+16
3.5026e+16
3.84394e+16
1.53403e+16
1.35707e+16
1.38833e+16
1.40022e+16
1.39453e+16
1.39061e+16
1.38908e+16
1.38772e+16
1.38619e+16
1.38466e+16
1.38314e+16
1.38157e+16
1.37995e+16
1.37829e+16
1.37659e+16
1.37485e+16
1.37308e+16
1.37128e+16
1.36947e+16
1.36765e+16
1.36582e+16
1.36399e+16
1.36216e+16
1.36035e+16
1.35857e+16
1.35682e+16
1.35512e+16
1.3535e+16
1.35199e+16
1.35064e+16
1.34945e+16
1.34867e+16
1.34736e+16
1.35044e+16
1.3342e+16
1.40877e+16
1.45268e+16
3.73443e+16
2.93841e+16
3.35966e+16
3.35659e+16
3.16267e+16
3.28364e+16
3.16396e+16
3.32939e+16
3.497e+16
3.61031e+16
3.67325e+16
3.70114e+16
3.70553e+16
3.70131e+16
3.68466e+16
3.67883e+16
3.63838e+16
3.67747e+16
3.50608e+16
3.77362e+16
1.52092e+16
1.33997e+16
1.37375e+16
1.38725e+16
1.38188e+16
1.37832e+16
1.37698e+16
1.37555e+16
1.37386e+16
1.37213e+16
1.37039e+16
1.36862e+16
1.36682e+16
1.36499e+16
1.36314e+16
1.36127e+16
1.35939e+16
1.35751e+16
1.35562e+16
1.35374e+16
1.35186e+16
1.34999e+16
1.34812e+16
1.34628e+16
1.34445e+16
1.34265e+16
1.3409e+16
1.3392e+16
1.33759e+16
1.33611e+16
1.33479e+16
1.33392e+16
1.33261e+16
1.33615e+16
1.32044e+16
1.39736e+16
1.44159e+16
3.72422e+16
2.90152e+16
3.39816e+16
3.36094e+16
3.14788e+16
3.20949e+16
3.30212e+16
3.49331e+16
3.63573e+16
3.71538e+16
3.74694e+16
3.74949e+16
3.73551e+16
3.71689e+16
3.69186e+16
3.67619e+16
3.63393e+16
3.65602e+16
3.48717e+16
3.69733e+16
1.50472e+16
1.31908e+16
1.35453e+16
1.36922e+16
1.36377e+16
1.36042e+16
1.35949e+16
1.35838e+16
1.35693e+16
1.3554e+16
1.35382e+16
1.35218e+16
1.35048e+16
1.34874e+16
1.34696e+16
1.34515e+16
1.34333e+16
1.3415e+16
1.33966e+16
1.33782e+16
1.33598e+16
1.33415e+16
1.33234e+16
1.33054e+16
1.32878e+16
1.32705e+16
1.32539e+16
1.3238e+16
1.32234e+16
1.32106e+16
1.32e+16
1.31947e+16
1.31857e+16
1.32282e+16
1.30752e+16
1.38673e+16
1.43017e+16
3.71575e+16
2.87018e+16
3.29586e+16
3.28637e+16
3.17827e+16
3.35258e+16
3.5772e+16
3.73459e+16
3.80723e+16
3.82199e+16
3.80396e+16
3.77152e+16
3.73445e+16
3.70019e+16
3.66615e+16
3.64213e+16
3.59746e+16
3.60657e+16
3.44042e+16
3.60986e+16
1.4835e+16
1.29408e+16
1.33092e+16
1.34568e+16
1.33854e+16
1.3344e+16
1.33323e+16
1.3321e+16
1.33081e+16
1.32952e+16
1.32821e+16
1.32683e+16
1.32538e+16
1.32386e+16
1.32227e+16
1.32062e+16
1.31893e+16
1.31721e+16
1.31546e+16
1.31369e+16
1.31192e+16
1.31015e+16
1.30838e+16
1.30665e+16
1.30494e+16
1.30328e+16
1.30171e+16
1.30024e+16
1.29892e+16
1.29784e+16
1.29704e+16
1.29689e+16
1.29647e+16
1.30154e+16
1.28685e+16
1.36855e+16
1.41056e+16
3.70017e+16
2.83854e+16
4.10877e+16
3.71822e+16
3.80282e+16
3.95308e+16
3.99644e+16
3.97819e+16
3.92494e+16
3.85758e+16
3.78915e+16
3.72717e+16
3.67419e+16
3.63192e+16
3.5954e+16
3.56904e+16
3.52468e+16
3.52482e+16
3.36758e+16
3.51828e+16
1.45712e+16
1.26927e+16
1.31241e+16
1.33225e+16
1.32777e+16
1.32513e+16
1.32454e+16
1.3234e+16
1.3218e+16
1.32009e+16
1.31834e+16
1.31655e+16
1.31473e+16
1.31289e+16
1.31104e+16
1.3092e+16
1.30735e+16
1.30551e+16
1.30367e+16
1.30185e+16
1.30004e+16
1.29824e+16
1.29647e+16
1.29474e+16
1.29304e+16
1.2914e+16
1.28984e+16
1.2884e+16
1.28712e+16
1.2861e+16
1.28544e+16
1.28556e+16
1.28562e+16
1.29187e+16
1.27814e+16
1.36503e+16
1.4062e+16
3.71243e+16
2.81351e+16
5.65037e+16
4.4904e+16
4.36199e+16
4.23716e+16
4.09739e+16
3.96409e+16
3.84273e+16
3.73693e+16
3.64765e+16
3.5744e+16
3.51539e+16
3.46976e+16
3.43321e+16
3.40954e+16
3.37768e+16
3.39073e+16
3.27634e+16
3.44152e+16
1.41995e+16
1.23014e+16
1.26601e+16
1.27964e+16
1.27313e+16
1.27086e+16
1.27149e+16
1.27196e+16
1.27204e+16
1.27191e+16
1.27152e+16
1.27087e+16
1.26999e+16
1.26891e+16
1.26766e+16
1.26627e+16
1.26479e+16
1.26322e+16
1.2616e+16
1.25994e+16
1.25826e+16
1.25658e+16
1.25493e+16
1.25331e+16
1.25177e+16
1.25032e+16
1.24902e+16
1.24792e+16
1.24712e+16
1.24673e+16
1.24685e+16
1.24793e+16
1.24902e+16
1.2564e+16
1.24341e+16
1.33065e+16
1.37163e+16
3.69435e+16
2.82678e+16
1.50836e+16
1.47204e+16
1.4776e+16
1.49088e+16
1.50562e+16
1.52746e+16
1.56132e+16
1.62357e+16
1.68145e+16
2.23086e+16
2.06702e+16
2.02231e+16
1.96485e+16
1.94109e+16
1.9187e+16
1.90798e+16
1.90969e+16
1.93958e+16
1.94393e+16
2.4242e+16
7.95561e+15
7.9542e+15
7.72413e+15
7.63802e+15
7.51075e+15
7.41985e+15
7.36188e+15
7.41548e+15
7.51438e+15
8.26135e+15
8.04863e+15
7.98874e+15
7.71474e+15
7.58057e+15
7.41207e+15
7.28087e+15
7.16254e+15
7.13313e+15
7.35902e+15
7.14378e+15
7.59262e+15
7.54835e+15
7.32407e+15
7.20668e+15
7.05109e+15
6.92715e+15
6.81048e+15
6.72959e+15
7.06949e+15
6.59709e+15
7.74119e+15
7.68601e+15
7.45917e+15
7.33313e+15
7.16813e+15
7.03421e+15
6.91142e+15
6.77506e+15
7.21186e+15
6.58434e+15
7.74304e+15
7.68859e+15
7.4662e+15
7.33948e+15
7.1728e+15
7.03534e+15
6.91534e+15
6.74041e+15
7.24016e+15
6.52272e+15
7.76656e+15
7.71246e+15
7.49038e+15
7.36234e+15
7.19368e+15
7.05273e+15
6.93548e+15
6.73333e+15
7.27516e+15
6.50284e+15
7.7806e+15
7.72764e+15
7.50555e+15
7.37697e+15
7.20733e+15
7.06408e+15
6.94942e+15
6.72946e+15
7.29825e+15
6.49278e+15
7.79366e+15
7.74165e+15
7.51917e+15
7.39021e+15
7.21994e+15
7.07501e+15
6.9623e+15
6.7307e+15
7.31706e+15
6.49137e+15
7.8054e+15
7.75409e+15
7.53119e+15
7.40194e+15
7.23132e+15
7.08516e+15
6.97388e+15
6.73461e+15
7.33269e+15
6.49454e+15
7.81657e+15
7.76576e+15
7.54245e+15
7.41295e+15
7.24211e+15
7.09497e+15
6.98478e+15
6.74021e+15
7.34659e+15
6.50053e+15
7.82738e+15
7.77698e+15
7.55326e+15
7.4235e+15
7.25256e+15
7.10458e+15
6.99528e+15
6.74674e+15
7.35955e+15
6.50813e+15
7.83803e+15
7.78796e+15
7.56386e+15
7.43382e+15
7.26284e+15
7.11407e+15
7.00561e+15
6.75374e+15
7.37206e+15
6.5166e+15
7.8486e+15
7.79885e+15
7.57436e+15
7.44403e+15
7.27307e+15
7.12353e+15
7.01588e+15
6.76093e+15
7.38441e+15
6.52552e+15
7.85912e+15
7.8097e+15
7.58485e+15
7.45416e+15
7.28331e+15
7.13294e+15
7.02617e+15
6.76816e+15
7.39678e+15
6.53462e+15
7.86962e+15
7.82053e+15
7.59536e+15
7.46426e+15
7.29357e+15
7.14233e+15
7.0365e+15
6.7753e+15
7.40932e+15
6.54371e+15
7.88013e+15
7.83133e+15
7.60593e+15
7.47436e+15
7.30387e+15
7.15173e+15
7.0469e+15
6.78233e+15
7.42206e+15
6.55269e+15
7.89065e+15
7.84206e+15
7.61656e+15
7.48439e+15
7.31421e+15
7.16112e+15
7.05737e+15
6.78923e+15
7.43503e+15
6.5615e+15
7.9012e+15
7.85269e+15
7.62726e+15
7.49438e+15
7.32458e+15
7.1705e+15
7.06789e+15
6.79601e+15
7.44823e+15
6.57009e+15
7.91163e+15
7.86311e+15
7.63802e+15
7.50429e+15
7.33498e+15
7.17987e+15
7.07843e+15
6.8027e+15
7.46165e+15
6.57843e+15
7.92189e+15
7.87333e+15
7.64872e+15
7.514e+15
7.34535e+15
7.18924e+15
7.08896e+15
6.80934e+15
7.47528e+15
6.58651e+15
7.93189e+15
7.8833e+15
7.65936e+15
7.52349e+15
7.35558e+15
7.19854e+15
7.09942e+15
6.81605e+15
7.48904e+15
6.59433e+15
7.94151e+15
7.89294e+15
7.66984e+15
7.5327e+15
7.36567e+15
7.2077e+15
7.10967e+15
6.82293e+15
7.50286e+15
6.60186e+15
7.9506e+15
7.90211e+15
7.68007e+15
7.54155e+15
7.37551e+15
7.21673e+15
7.11974e+15
6.82994e+15
7.51659e+15
6.60917e+15
7.95897e+15
7.91067e+15
7.68996e+15
7.54989e+15
7.385e+15
7.22553e+15
7.12958e+15
6.83693e+15
7.53039e+15
6.61625e+15
7.9664e+15
7.91841e+15
7.69935e+15
7.55758e+15
7.394e+15
7.23403e+15
7.13906e+15
6.84376e+15
7.54453e+15
6.62301e+15
7.97263e+15
7.92503e+15
7.70803e+15
7.56441e+15
7.40231e+15
7.2421e+15
7.14803e+15
6.85037e+15
7.55924e+15
6.62925e+15
7.97727e+15
7.93014e+15
7.71572e+15
7.57011e+15
7.40967e+15
7.2496e+15
7.15633e+15
6.85674e+15
7.5746e+15
6.63497e+15
7.97986e+15
7.93322e+15
7.72205e+15
7.57434e+15
7.41577e+15
7.25629e+15
7.16372e+15
6.86284e+15
7.59075e+15
6.64018e+15
7.97989e+15
7.93366e+15
7.72654e+15
7.57671e+15
7.42021e+15
7.26188e+15
7.16999e+15
6.86863e+15
7.60795e+15
6.64496e+15
7.97675e+15
7.93068e+15
7.72855e+15
7.57669e+15
7.42247e+15
7.26602e+15
7.17479e+15
6.87407e+15
7.62649e+15
6.64944e+15
7.96918e+15
7.92261e+15
7.7266e+15
7.57303e+15
7.42133e+15
7.26763e+15
7.17721e+15
6.8786e+15
7.64616e+15
6.65322e+15
7.95451e+15
7.90641e+15
7.71789e+15
7.56349e+15
7.41482e+15
7.26511e+15
7.17594e+15
6.88155e+15
7.66691e+15
6.65595e+15
7.93587e+15
7.88532e+15
7.70573e+15
7.55145e+15
7.40606e+15
7.26159e+15
7.17458e+15
6.88774e+15
7.69562e+15
6.66377e+15
7.9309e+15
7.8735e+15
7.70236e+15
7.54745e+15
7.40361e+15
7.26419e+15
7.17972e+15
6.90431e+15
7.741e+15
6.68351e+15
7.86678e+15
7.78605e+15
7.62841e+15
7.48203e+15
7.34604e+15
7.21714e+15
7.13775e+15
6.87758e+15
7.73646e+15
6.64811e+15
7.52582e+15
7.4417e+15
7.33016e+15
7.21751e+15
7.10668e+15
7.0058e+15
6.9494e+15
6.73322e+15
7.6174e+15
6.50762e+15
8.3262e+15
8.23756e+15
8.10444e+15
7.93964e+15
7.77889e+15
7.65122e+15
7.59653e+15
7.4461e+15
8.53185e+15
7.30402e+15
2.14572e+16
2.09404e+16
2.06083e+16
2.03768e+16
2.02587e+16
2.03077e+16
2.06223e+16
2.07356e+16
2.43859e+16
2.14235e+16
1.73771e+16
1.66088e+16
1.60396e+16
1.55792e+16
1.52152e+16
1.49219e+16
1.46577e+16
1.39409e+16
1.44972e+16
9.85657e+15
1.58426e+16
1.50819e+16
1.46098e+16
1.43432e+16
1.42987e+16
1.44234e+16
1.45923e+16
1.43773e+16
1.53119e+16
1.10542e+16
1.35327e+16
1.26903e+16
1.22212e+16
1.20083e+16
1.18407e+16
1.19089e+16
1.25098e+16
1.30286e+16
1.46011e+16
1.10188e+16
1.14647e+16
1.07649e+16
1.05033e+16
1.04626e+16
1.06975e+16
1.11721e+16
1.19409e+16
1.26163e+16
1.43995e+16
1.11014e+16
9.82107e+15
9.24162e+15
8.97557e+15
9.10368e+15
9.81406e+15
1.06711e+16
1.16213e+16
1.23956e+16
1.42073e+16
1.10839e+16
9.15947e+15
8.64969e+15
8.01085e+15
8.83979e+15
9.7598e+15
1.06512e+16
1.15858e+16
1.24402e+16
1.39269e+16
1.11615e+16
9.08365e+15
8.67492e+15
8.68166e+15
9.17085e+15
9.95386e+15
1.07738e+16
1.16373e+16
1.25435e+16
1.35289e+16
1.12895e+16
9.35399e+15
9.19554e+15
9.27226e+15
9.61936e+15
1.02482e+16
1.09678e+16
1.17444e+16
1.26267e+16
1.30969e+16
1.14603e+16
9.64336e+15
9.59842e+15
9.72077e+15
1.00255e+16
1.05432e+16
1.11668e+16
1.18484e+16
1.26375e+16
1.26586e+16
1.16606e+16
9.91776e+15
9.96833e+15
1.01179e+16
1.03862e+16
1.08177e+16
1.13484e+16
1.19218e+16
1.25731e+16
1.22458e+16
1.18939e+16
1.01179e+16
1.02367e+16
1.04098e+16
1.06611e+16
1.10274e+16
1.147e+16
1.19259e+16
1.24259e+16
1.18629e+16
1.21537e+16
1.02651e+16
1.04642e+16
1.06629e+16
1.08831e+16
1.1185e+16
1.15376e+16
1.18709e+16
1.22321e+16
1.15426e+16
1.24686e+16
1.02949e+16
1.05149e+16
1.07216e+16
1.09458e+16
1.12019e+16
1.14773e+16
1.17018e+16
1.19642e+16
1.12591e+16
1.28142e+16
1.0333e+16
1.06003e+16
1.08168e+16
1.1004e+16
1.12016e+16
1.14038e+16
1.15384e+16
1.17569e+16
1.11344e+16
1.33537e+16
1.02431e+16
1.04061e+16
1.05464e+16
1.07493e+16
1.09256e+16
1.10972e+16
1.11971e+16
1.14586e+16
1.10389e+16
1.38933e+16
1.04246e+16
1.06603e+16
1.07961e+16
1.09845e+16
1.11491e+16
1.13462e+16
1.15081e+16
1.19527e+16
1.18894e+16
1.57906e+16
1.08156e+16
1.07354e+16
1.08581e+16
1.09984e+16
1.11611e+16
1.1411e+16
1.16479e+16
1.237e+16
1.26212e+16
1.70867e+16
1.48756e+16
1.36419e+16
1.44237e+16
1.46338e+16
1.48806e+16
1.5078e+16
1.52132e+16
1.52906e+16
1.53442e+16
1.49303e+16
1.33409e+16
1.96167e+16
1.77791e+16
1.7788e+16
1.75316e+16
1.74025e+16
1.73397e+16
1.73591e+16
1.75104e+16
1.78703e+16
1.80944e+16
1.77454e+16
1.87631e+16
1.77094e+16
1.77735e+16
1.76762e+16
1.76478e+16
1.7619e+16
1.75902e+16
1.7592e+16
1.76356e+16
1.7414e+16
1.69255e+16
1.94749e+16
1.8623e+16
1.8514e+16
1.83543e+16
1.82831e+16
1.82497e+16
1.82541e+16
1.83168e+16
1.84267e+16
1.83287e+16
1.81437e+16
2.0043e+16
1.93718e+16
1.92007e+16
1.90433e+16
1.89668e+16
1.89232e+16
1.8909e+16
1.89463e+16
1.90227e+16
1.89538e+16
1.89132e+16
2.05745e+16
1.9993e+16
1.97596e+16
1.95775e+16
1.9479e+16
1.94252e+16
1.94101e+16
1.94465e+16
1.95094e+16
1.94768e+16
1.95384e+16
2.11498e+16
2.06164e+16
2.03426e+16
2.0143e+16
2.00266e+16
1.99609e+16
1.99385e+16
1.99664e+16
2.00219e+16
2.00198e+16
2.0129e+16
2.17339e+16
2.12268e+16
2.09219e+16
2.07065e+16
2.05743e+16
2.04977e+16
2.04686e+16
2.04907e+16
2.05423e+16
2.05653e+16
2.07004e+16
2.23193e+16
2.1828e+16
2.1498e+16
2.12696e+16
2.11259e+16
2.10419e+16
2.10074e+16
2.10222e+16
2.10689e+16
2.11077e+16
2.12537e+16
2.29001e+16
2.24197e+16
2.20643e+16
2.18161e+16
2.16542e+16
2.15587e+16
2.15188e+16
2.15319e+16
2.15787e+16
2.16311e+16
2.1784e+16
2.35028e+16
2.30415e+16
2.26722e+16
2.24099e+16
2.22314e+16
2.21233e+16
2.20763e+16
2.20863e+16
2.21339e+16
2.21977e+16
2.23561e+16
2.41668e+16
2.37348e+16
2.33655e+16
2.30999e+16
2.2911e+16
2.27925e+16
2.27375e+16
2.27428e+16
2.2791e+16
2.28637e+16
2.30245e+16
2.49085e+16
2.4514e+16
2.41614e+16
2.39114e+16
2.37304e+16
2.36142e+16
2.35564e+16
2.35538e+16
2.35967e+16
2.3671e+16
2.38261e+16
2.57372e+16
2.53735e+16
2.50352e+16
2.48002e+16
2.4629e+16
2.45179e+16
2.44594e+16
2.4449e+16
2.44839e+16
2.45556e+16
2.4701e+16
2.65568e+16
2.62096e+16
2.58745e+16
2.56444e+16
2.54753e+16
2.53653e+16
2.53069e+16
2.52954e+16
2.53286e+16
2.53998e+16
2.5536e+16
2.73804e+16
2.70456e+16
2.6712e+16
2.64848e+16
2.63165e+16
2.62061e+16
2.61461e+16
2.61319e+16
2.61625e+16
2.62316e+16
2.63591e+16
2.82093e+16
2.78859e+16
2.75537e+16
2.73298e+16
2.71627e+16
2.70526e+16
2.69918e+16
2.69756e+16
2.70034e+16
2.70697e+16
2.71891e+16
2.90408e+16
2.87295e+16
2.83991e+16
2.81789e+16
2.80137e+16
2.79044e+16
2.78433e+16
2.78255e+16
2.78506e+16
2.79136e+16
2.8025e+16
2.98779e+16
2.95806e+16
2.92527e+16
2.90378e+16
2.88757e+16
2.87684e+16
2.87079e+16
2.86893e+16
2.87087e+16
2.87682e+16
2.88721e+16
3.07203e+16
3.04401e+16
3.01147e+16
2.99064e+16
2.97483e+16
2.96437e+16
2.95842e+16
2.95654e+16
2.9583e+16
2.96393e+16
2.97366e+16
3.15703e+16
3.1311e+16
3.09884e+16
3.07892e+16
3.06377e+16
3.05385e+16
3.04823e+16
3.04644e+16
3.04809e+16
3.05341e+16
3.06253e+16
3.24372e+16
3.22015e+16
3.18778e+16
3.1686e+16
3.15385e+16
3.14428e+16
3.13893e+16
3.13738e+16
3.13921e+16
3.14448e+16
3.15321e+16
3.33457e+16
3.31399e+16
3.28186e+16
3.26412e+16
3.25036e+16
3.2416e+16
3.23674e+16
3.23532e+16
3.2369e+16
3.24175e+16
3.24988e+16
3.42635e+16
3.4079e+16
3.37512e+16
3.35827e+16
3.34499e+16
3.33659e+16
3.33178e+16
3.33012e+16
3.33118e+16
3.33534e+16
3.34272e+16
3.50758e+16
3.48997e+16
3.45551e+16
3.43876e+16
3.42547e+16
3.41729e+16
3.41269e+16
3.41122e+16
3.41241e+16
3.41643e+16
3.42338e+16
3.58321e+16
3.56691e+16
3.53038e+16
3.5134e+16
3.49981e+16
3.49162e+16
3.4871e+16
3.48577e+16
3.48709e+16
3.4911e+16
3.49782e+16
3.65665e+16
3.64367e+16
3.60492e+16
3.58768e+16
3.57354e+16
3.56505e+16
3.56036e+16
3.559e+16
3.56042e+16
3.56449e+16
3.57105e+16
3.73137e+16
3.72498e+16
3.68445e+16
3.66781e+16
3.6536e+16
3.6451e+16
3.64035e+16
3.63892e+16
3.64025e+16
3.64417e+16
3.65048e+16
3.80967e+16
3.81354e+16
3.77153e+16
3.75644e+16
3.74274e+16
3.73462e+16
3.73001e+16
3.72853e+16
3.72965e+16
3.73324e+16
3.73913e+16
3.88928e+16
3.90725e+16
3.86374e+16
3.85099e+16
3.8383e+16
3.83099e+16
3.8269e+16
3.82575e+16
3.82697e+16
3.83022e+16
3.83566e+16
3.97131e+16
4.00781e+16
3.96242e+16
3.95305e+16
3.94174e+16
3.93501e+16
3.93081e+16
3.92928e+16
3.93019e+16
3.93315e+16
3.93815e+16
4.0602e+16
4.11701e+16
4.06594e+16
4.0624e+16
4.05844e+16
4.06025e+16
4.06398e+16
4.06864e+16
4.07336e+16
4.07732e+16
4.08169e+16
4.20382e+16
4.28405e+16
4.19609e+16
4.15888e+16
4.11859e+16
4.08737e+16
4.06344e+16
4.04717e+16
4.03824e+16
4.03557e+16
4.03682e+16
4.30455e+16
4.56901e+16
4.59524e+16
4.67157e+16
4.72441e+16
4.76925e+16
4.80479e+16
4.83275e+16
4.85433e+16
4.86947e+16
4.87659e+16
4.09641e+16
4.05709e+16
3.82868e+16
3.73943e+16
3.66637e+16
3.61529e+16
3.57713e+16
3.54892e+16
3.52863e+16
3.51383e+16
3.49951e+16
2.86774e+16
2.98588e+16
3.10895e+16
3.18572e+16
3.23153e+16
3.25984e+16
3.27376e+16
3.27344e+16
3.26119e+16
3.23739e+16
3.19946e+16
3.14497e+16
3.07026e+16
2.98812e+16
2.90529e+16
2.82048e+16
2.73688e+16
2.66016e+16
2.57185e+16
2.51014e+16
2.40208e+16
2.30066e+16
2.23139e+16
2.15821e+16
2.09996e+16
2.05093e+16
2.00801e+16
1.96611e+16
1.92132e+16
1.87109e+16
1.81399e+16
1.74977e+16
1.66743e+16
1.57677e+16
1.51479e+16
3.6226e+16
3.52776e+16
3.47338e+16
3.42172e+16
3.37195e+16
3.32451e+16
3.27823e+16
3.23093e+16
3.18316e+16
3.13251e+16
3.07455e+16
3.00581e+16
2.92322e+16
2.84195e+16
2.76684e+16
2.69324e+16
2.62252e+16
2.55623e+16
2.48383e+16
2.42667e+16
2.34845e+16
2.28607e+16
2.24012e+16
2.18959e+16
2.14421e+16
2.10327e+16
2.06858e+16
2.03913e+16
2.01371e+16
1.99317e+16
1.97985e+16
1.97759e+16
1.97968e+16
1.98582e+16
2.02439e+16
1.36929e+16
1.37578e+16
1.36127e+16
1.34228e+16
1.32237e+16
1.30109e+16
1.279e+16
1.25626e+16
1.23348e+16
1.20857e+16
1.17908e+16
1.14598e+16
1.1132e+16
1.08747e+16
1.06633e+16
1.04547e+16
1.02441e+16
1.0029e+16
9.7977e+15
9.59738e+15
9.39467e+15
9.22239e+15
9.11151e+15
9.03934e+15
8.98819e+15
8.92706e+15
8.85724e+15
8.78893e+15
8.72002e+15
8.64486e+15
8.56387e+15
8.50929e+15
8.42015e+15
8.21252e+15
8.00229e+15
1.31525e+16
1.30081e+16
1.28112e+16
1.2639e+16
1.24852e+16
1.23386e+16
1.21968e+16
1.20533e+16
1.19143e+16
1.17797e+16
1.16404e+16
1.14919e+16
1.13258e+16
1.11634e+16
1.10059e+16
1.08422e+16
1.06767e+16
1.0511e+16
1.03449e+16
1.01853e+16
9.99306e+15
9.79134e+15
9.61824e+15
9.45655e+15
9.30613e+15
9.1624e+15
9.02859e+15
8.90105e+15
8.77252e+15
8.64299e+15
8.51048e+15
8.38991e+15
8.25225e+15
8.09992e+15
8.02159e+15
1.23248e+16
1.21969e+16
1.19879e+16
1.18223e+16
1.16756e+16
1.15337e+16
1.13936e+16
1.12517e+16
1.11136e+16
1.09733e+16
1.08216e+16
1.06587e+16
1.04887e+16
1.03352e+16
1.01871e+16
1.00337e+16
9.87754e+15
9.71944e+15
9.55955e+15
9.40091e+15
9.23562e+15
9.06861e+15
8.92716e+15
8.8105e+15
8.70596e+15
8.60438e+15
8.50284e+15
8.40377e+15
8.30369e+15
8.20295e+15
8.09989e+15
8.01734e+15
7.93978e+15
7.80458e+15
7.64697e+15
1.24302e+16
1.22707e+16
1.20723e+16
1.1922e+16
1.17832e+16
1.16452e+16
1.15057e+16
1.13644e+16
1.12278e+16
1.10903e+16
1.09445e+16
1.07886e+16
1.06255e+16
1.04745e+16
1.03247e+16
1.01707e+16
1.00143e+16
9.85685e+15
9.69964e+15
9.54311e+15
9.38588e+15
9.22409e+15
9.08443e+15
8.97091e+15
8.86884e+15
8.7704e+15
8.67074e+15
8.57277e+15
8.4734e+15
8.3729e+15
8.26747e+15
8.18e+15
8.11435e+15
7.99855e+15
7.83015e+15
1.23401e+16
1.21673e+16
1.1984e+16
1.18439e+16
1.1709e+16
1.15726e+16
1.14334e+16
1.12941e+16
1.11606e+16
1.10265e+16
1.08859e+16
1.07361e+16
1.05809e+16
1.04356e+16
1.0289e+16
1.01386e+16
9.98581e+15
9.83213e+15
9.67885e+15
9.52576e+15
9.37361e+15
9.21639e+15
9.07798e+15
8.96622e+15
8.86664e+15
8.7714e+15
8.67382e+15
8.57731e+15
8.47949e+15
8.3809e+15
8.27515e+15
8.18383e+15
8.13039e+15
8.04315e+15
7.87391e+15
1.23107e+16
1.21351e+16
1.19686e+16
1.18336e+16
1.16999e+16
1.15633e+16
1.14234e+16
1.12849e+16
1.11528e+16
1.10203e+16
1.08826e+16
1.0736e+16
1.05846e+16
1.04414e+16
1.02953e+16
1.0146e+16
9.99446e+15
9.84244e+15
9.69098e+15
9.54006e+15
9.38988e+15
9.23649e+15
9.09945e+15
8.98882e+15
8.8907e+15
8.79741e+15
8.70106e+15
8.6054e+15
8.50836e+15
8.41101e+15
8.30494e+15
8.2089e+15
8.15884e+15
8.09236e+15
7.93203e+15
1.22837e+16
1.21119e+16
1.19587e+16
1.18249e+16
1.16914e+16
1.15543e+16
1.14137e+16
1.1276e+16
1.11452e+16
1.10139e+16
1.08783e+16
1.0734e+16
1.05855e+16
1.04439e+16
1.02982e+16
1.01499e+16
9.99941e+15
9.84863e+15
9.69847e+15
9.54893e+15
9.3999e+15
9.24823e+15
9.11273e+15
9.00271e+15
8.90524e+15
8.81303e+15
8.71733e+15
8.62212e+15
8.52548e+15
8.42897e+15
8.32297e+15
8.22364e+15
8.17401e+15
8.12115e+15
7.97184e+15
1.22691e+16
1.21037e+16
1.19601e+16
1.18257e+16
1.16923e+16
1.15545e+16
1.14134e+16
1.12762e+16
1.11461e+16
1.10155e+16
1.08814e+16
1.07384e+16
1.05917e+16
1.0451e+16
1.03054e+16
1.01576e+16
1.00076e+16
9.85752e+15
9.70811e+15
9.55934e+15
9.41111e+15
9.26006e+15
9.12565e+15
9.01633e+15
8.91921e+15
8.82753e+15
8.7322e+15
8.63725e+15
8.54081e+15
8.44478e+15
8.33888e+15
8.23751e+15
8.18731e+15
8.14241e+15
8.00209e+15
1.22626e+16
1.21039e+16
1.19667e+16
1.1831e+16
1.16977e+16
1.15593e+16
1.14176e+16
1.12808e+16
1.11511e+16
1.10209e+16
1.08878e+16
1.07457e+16
1.06001e+16
1.04599e+16
1.03142e+16
1.01667e+16
1.0017e+16
9.86733e+15
9.71836e+15
9.57001e+15
9.42224e+15
9.27151e+15
9.13744e+15
9.02871e+15
8.93195e+15
8.84053e+15
8.74536e+15
8.65051e+15
8.55416e+15
8.4584e+15
8.35254e+15
8.24996e+15
8.19918e+15
8.15882e+15
8.02443e+15
1.22627e+16
1.21097e+16
1.19768e+16
1.18397e+16
1.17065e+16
1.15675e+16
1.14254e+16
1.12888e+16
1.11593e+16
1.10294e+16
1.08969e+16
1.07552e+16
1.06103e+16
1.04704e+16
1.03246e+16
1.01772e+16
1.00276e+16
9.87809e+15
9.72932e+15
9.5812e+15
9.43364e+15
9.28307e+15
9.14922e+15
9.04057e+15
8.94402e+15
8.85287e+15
8.75778e+15
8.66296e+15
8.5666e+15
8.47095e+15
8.3651e+15
8.2618e+15
8.21063e+15
8.17287e+15
8.04178e+15
1.22678e+16
1.21192e+16
1.19891e+16
1.18507e+16
1.17176e+16
1.15781e+16
1.14357e+16
1.12991e+16
1.11697e+16
1.10399e+16
1.09077e+16
1.07663e+16
1.06218e+16
1.0482e+16
1.0336e+16
1.01886e+16
1.0039e+16
9.88955e+15
9.74084e+15
9.5928e+15
9.4453e+15
9.29476e+15
9.16102e+15
9.05245e+15
8.95587e+15
8.86473e+15
8.76973e+15
8.67497e+15
8.57856e+15
8.48294e+15
8.37703e+15
8.27326e+15
8.22188e+15
8.18571e+15
8.05613e+15
1.22765e+16
1.21311e+16
1.20028e+16
1.18634e+16
1.17303e+16
1.15904e+16
1.14476e+16
1.1311e+16
1.11817e+16
1.10517e+16
1.09197e+16
1.07785e+16
1.06342e+16
1.04944e+16
1.03482e+16
1.02007e+16
1.0051e+16
9.90156e+15
9.75282e+15
9.60475e+15
9.45724e+15
9.30665e+15
9.17291e+15
9.06438e+15
8.96777e+15
8.87658e+15
8.78148e+15
8.6867e+15
8.59032e+15
8.49467e+15
8.38865e+15
8.28456e+15
8.23309e+15
8.19796e+15
8.0689e+15
1.22878e+16
1.21446e+16
1.20175e+16
1.18773e+16
1.17441e+16
1.16038e+16
1.14607e+16
1.1324e+16
1.11946e+16
1.10646e+16
1.09327e+16
1.07915e+16
1.06473e+16
1.05074e+16
1.0361e+16
1.02134e+16
1.00635e+16
9.91398e+15
9.76516e+15
9.61701e+15
9.46942e+15
9.31873e+15
9.18496e+15
9.07639e+15
8.97973e+15
8.88848e+15
8.79328e+15
8.69841e+15
8.60196e+15
8.5063e+15
8.40016e+15
8.29578e+15
8.24432e+15
8.20996e+15
8.08094e+15
1.2301e+16
1.21592e+16
1.20328e+16
1.1892e+16
1.17586e+16
1.16181e+16
1.14746e+16
1.13378e+16
1.12083e+16
1.10782e+16
1.09463e+16
1.0805e+16
1.06608e+16
1.05208e+16
1.03742e+16
1.02264e+16
1.00764e+16
9.92673e+15
9.77777e+15
9.62954e+15
9.48181e+15
9.33099e+15
9.19714e+15
9.08852e+15
8.99178e+15
8.90044e+15
8.80514e+15
8.71019e+15
8.61363e+15
8.51791e+15
8.41167e+15
8.30698e+15
8.25557e+15
8.22187e+15
8.09276e+15
1.23154e+16
1.21746e+16
1.20485e+16
1.19072e+16
1.17737e+16
1.16328e+16
1.14891e+16
1.13522e+16
1.12225e+16
1.10923e+16
1.09602e+16
1.08189e+16
1.06746e+16
1.05345e+16
1.03876e+16
1.02397e+16
1.00895e+16
9.9397e+15
9.79059e+15
9.64222e+15
9.49436e+15
9.34338e+15
9.20941e+15
9.10074e+15
9.00389e+15
8.91248e+15
8.81706e+15
8.722e+15
8.62536e+15
8.52955e+15
8.42318e+15
8.3182e+15
8.26682e+15
8.23372e+15
8.1046e+15
1.23306e+16
1.21905e+16
1.20644e+16
1.19228e+16
1.17891e+16
1.1648e+16
1.1504e+16
1.13668e+16
1.1237e+16
1.11066e+16
1.09745e+16
1.0833e+16
1.06886e+16
1.05483e+16
1.04013e+16
1.02531e+16
1.01028e+16
9.95281e+15
9.80355e+15
9.65501e+15
9.50701e+15
9.35586e+15
9.22175e+15
9.11298e+15
9.01606e+15
8.92455e+15
8.82901e+15
8.73384e+15
8.63712e+15
8.54123e+15
8.43471e+15
8.32945e+15
8.27809e+15
8.24551e+15
8.11655e+15
1.23462e+16
1.22066e+16
1.20805e+16
1.19386e+16
1.18046e+16
1.16633e+16
1.1519e+16
1.13817e+16
1.12517e+16
1.11211e+16
1.09888e+16
1.08472e+16
1.07026e+16
1.05622e+16
1.0415e+16
1.02667e+16
1.01161e+16
9.96598e+15
9.81654e+15
9.66785e+15
9.51969e+15
9.36835e+15
9.2341e+15
9.12524e+15
9.02823e+15
8.93661e+15
8.84096e+15
8.74567e+15
8.64885e+15
8.55289e+15
8.44623e+15
8.34073e+15
8.28937e+15
8.2572e+15
8.12862e+15
1.23618e+16
1.2223e+16
1.20965e+16
1.19545e+16
1.18202e+16
1.16786e+16
1.1534e+16
1.13965e+16
1.12663e+16
1.11356e+16
1.10031e+16
1.08614e+16
1.07167e+16
1.05761e+16
1.04287e+16
1.02801e+16
1.01294e+16
9.97908e+15
9.82948e+15
9.68063e+15
9.5323e+15
9.38079e+15
9.24639e+15
9.13745e+15
9.04034e+15
8.94861e+15
8.85286e+15
8.75743e+15
8.6605e+15
8.56445e+15
8.45766e+15
8.35196e+15
8.30057e+15
8.26866e+15
8.14065e+15
1.23771e+16
1.22395e+16
1.21124e+16
1.19702e+16
1.18357e+16
1.16938e+16
1.15488e+16
1.14111e+16
1.12808e+16
1.11499e+16
1.10173e+16
1.08755e+16
1.07306e+16
1.05899e+16
1.04422e+16
1.02935e+16
1.01426e+16
9.99203e+15
9.84228e+15
9.69326e+15
9.54476e+15
9.39309e+15
9.25855e+15
9.14953e+15
9.05231e+15
8.96048e+15
8.86462e+15
8.76905e+15
8.67203e+15
8.57589e+15
8.46896e+15
8.36308e+15
8.31162e+15
8.27985e+15
8.15263e+15
1.23917e+16
1.22558e+16
1.21281e+16
1.19858e+16
1.18509e+16
1.17087e+16
1.15634e+16
1.14255e+16
1.1295e+16
1.1164e+16
1.10313e+16
1.08893e+16
1.07444e+16
1.06034e+16
1.04555e+16
1.03066e+16
1.01555e+16
1.00047e+16
9.8548e+15
9.70565e+15
9.55696e+15
9.40514e+15
9.27048e+15
9.16137e+15
9.06406e+15
8.97212e+15
8.87615e+15
8.78044e+15
8.68335e+15
8.5871e+15
8.48003e+15
8.37401e+15
8.32248e+15
8.2908e+15
8.16456e+15
1.24054e+16
1.22721e+16
1.21433e+16
1.2001e+16
1.18658e+16
1.17232e+16
1.15776e+16
1.14394e+16
1.13088e+16
1.11777e+16
1.10449e+16
1.09028e+16
1.07577e+16
1.06166e+16
1.04685e+16
1.03193e+16
1.0168e+16
1.00171e+16
9.86693e+15
9.71764e+15
9.56878e+15
9.41682e+15
9.28205e+15
9.17286e+15
9.07545e+15
8.98341e+15
8.88733e+15
8.79147e+15
8.69432e+15
8.59797e+15
8.49076e+15
8.38465e+15
8.33304e+15
8.3014e+15
8.17634e+15
1.24177e+16
1.2288e+16
1.2158e+16
1.20157e+16
1.18801e+16
1.17372e+16
1.15911e+16
1.14527e+16
1.13219e+16
1.11907e+16
1.10579e+16
1.09158e+16
1.07706e+16
1.06293e+16
1.0481e+16
1.03315e+16
1.018e+16
1.00288e+16
9.87855e+15
9.7291e+15
9.58008e+15
9.42798e+15
9.29311e+15
9.18386e+15
9.08636e+15
8.9942e+15
8.89801e+15
8.80202e+15
8.70479e+15
8.60835e+15
8.50102e+15
8.39486e+15
8.34321e+15
8.31151e+15
8.1878e+15
1.24282e+16
1.23036e+16
1.2172e+16
1.20297e+16
1.18937e+16
1.17503e+16
1.16038e+16
1.14652e+16
1.13342e+16
1.12031e+16
1.10702e+16
1.09281e+16
1.07829e+16
1.06414e+16
1.04927e+16
1.0343e+16
1.01912e+16
1.00399e+16
9.88945e+15
9.73985e+15
9.59067e+15
9.43843e+15
9.30349e+15
9.19421e+15
9.09661e+15
9.00432e+15
8.90801e+15
8.81189e+15
8.7146e+15
8.61808e+15
8.51062e+15
8.40448e+15
8.35281e+15
8.32102e+15
8.19875e+15
1.24364e+16
1.23188e+16
1.21852e+16
1.20428e+16
1.19065e+16
1.17625e+16
1.16154e+16
1.14765e+16
1.13455e+16
1.12144e+16
1.10816e+16
1.09396e+16
1.07944e+16
1.06527e+16
1.05037e+16
1.03535e+16
1.02015e+16
1.005e+16
9.89937e+15
9.74964e+15
9.60032e+15
9.44794e+15
9.31294e+15
9.20367e+15
9.10597e+15
9.01353e+15
8.91711e+15
8.82085e+15
8.72353e+15
8.62693e+15
8.51933e+15
8.41329e+15
8.36163e+15
8.32971e+15
8.20901e+15
1.24417e+16
1.23335e+16
1.21972e+16
1.20549e+16
1.19181e+16
1.17733e+16
1.16257e+16
1.14866e+16
1.13555e+16