/*--------------------------------*- C++ -*----------------------------------*\
| =========                 |                                                 |
| \\      /  F ield         | OpenFOAM: The Open Source CFD Toolbox           |
|  \\    /   O peration     | Version:  2406                                  |
|   \\  /    A nd           | Website:  www.openfoam.com                      |
|    \\/     M anipulation  |                                                 |
\*---------------------------------------------------------------------------*/
FoamFile
{
    version     2.0;
    format      ascii;
    arch        "LSB;label=32;scalar=64";
    class       volScalarField;
    location    "0/neutroRegion";
    object      prec6;
}
// * * * * * * * * * * * * * * * * * * * * * * * * * * * * * * * * * * * * * //

dimensions      [0 -3 0 0 0 0 0];

internalField   nonuniform List<scalar> 
8595
(
1.0048e+14
1.07406e+14
9.59582e+13
9.72757e+13
9.7755e+13
1.00691e+14
1.05472e+14
1.0951e+14
1.12337e+14
1.1343e+14
1.12568e+14
1.10026e+14
1.03982e+14
1.04002e+14
9.2766e+13
1.07943e+14
9.80572e+13
1.65753e+14
6.77411e+13
6.05006e+13
6.19086e+13
6.23274e+13
6.15175e+13
6.06183e+13
5.97839e+13
5.89238e+13
5.80331e+13
5.71285e+13
5.62175e+13
5.53039e+13
5.43913e+13
5.34833e+13
5.25825e+13
5.1691e+13
5.08105e+13
4.99421e+13
4.90871e+13
4.82459e+13
4.74192e+13
4.66076e+13
4.58113e+13
4.50311e+13
4.42678e+13
4.35224e+13
4.27963e+13
4.20923e+13
4.14142e+13
4.07682e+13
4.01629e+13
3.9619e+13
3.91356e+13
3.88872e+13
3.83275e+13
4.0648e+13
4.49147e+13
1.21306e+14
9.84934e+13
7.50384e+13
9.15336e+13
9.87366e+13
1.15738e+14
1.30618e+14
1.45663e+14
1.56798e+14
1.69756e+14
1.81836e+14
1.89795e+14
1.9362e+14
1.94022e+14
1.88223e+14
1.86414e+14
1.77683e+14
1.89244e+14
1.83356e+14
2.69844e+14
1.11093e+14
9.88601e+13
1.00034e+14
9.98044e+13
9.80157e+13
9.61341e+13
9.43427e+13
9.2561e+13
9.08008e+13
8.90898e+13
8.74351e+13
8.5835e+13
8.42861e+13
8.27853e+13
8.13283e+13
7.99112e+13
7.85303e+13
7.71823e+13
7.58644e+13
7.45736e+13
7.33074e+13
7.20633e+13
7.08387e+13
6.96308e+13
6.84361e+13
6.72505e+13
6.60683e+13
6.48816e+13
6.36793e+13
6.24454e+13
6.11547e+13
5.97803e+13
5.82336e+13
5.66299e+13
5.39748e+13
5.42134e+13
5.22029e+13
1.17567e+14
8.32241e+13
7.36409e+13
9.29567e+13
1.00712e+14
1.13414e+14
1.20351e+14
1.29007e+14
1.45067e+14
1.67055e+14
1.89025e+14
2.02887e+14
2.12136e+14
2.15711e+14
2.13923e+14
2.13545e+14
2.0867e+14
2.19644e+14
2.17073e+14
2.87843e+14
1.18019e+14
1.04886e+14
1.05956e+14
1.05532e+14
1.03632e+14
1.01762e+14
1.00091e+14
9.84611e+13
9.6846e+13
9.52568e+13
9.36946e+13
9.21568e+13
9.06429e+13
8.91528e+13
8.76863e+13
8.62434e+13
8.48237e+13
8.3427e+13
8.20529e+13
8.07021e+13
7.93735e+13
7.80648e+13
7.67756e+13
7.55057e+13
7.42541e+13
7.30193e+13
7.17991e+13
7.05905e+13
6.9389e+13
6.81881e+13
6.69749e+13
6.57397e+13
6.44067e+13
6.31294e+13
6.07826e+13
6.18189e+13
6.02144e+13
1.33602e+14
8.85201e+13
6.94819e+13
8.82811e+13
9.26849e+13
1.00205e+14
1.02106e+14
1.11481e+14
1.43348e+14
1.77676e+14
2.11438e+14
2.31596e+14
2.44415e+14
2.51897e+14
2.54047e+14
2.55551e+14
2.5303e+14
2.63755e+14
2.6219e+14
3.28479e+14
1.35267e+14
1.21042e+14
1.23108e+14
1.22955e+14
1.20953e+14
1.18858e+14
1.16835e+14
1.14791e+14
1.12747e+14
1.10739e+14
1.08782e+14
1.06875e+14
1.05019e+14
1.03212e+14
1.0145e+14
9.97313e+13
9.80515e+13
9.6408e+13
9.47978e+13
9.32175e+13
9.16652e+13
9.01387e+13
8.86354e+13
8.71516e+13
8.56838e+13
8.42271e+13
8.27749e+13
8.13188e+13
7.98464e+13
7.83402e+13
7.67732e+13
7.5119e+13
7.32744e+13
7.14151e+13
6.82579e+13
6.89397e+13
6.67099e+13
1.45195e+14
9.21704e+13
6.6159e+13
8.34086e+13
8.42389e+13
8.67517e+13
7.84141e+13
9.6895e+13
1.50502e+14
1.9475e+14
2.30054e+14
2.56088e+14
2.73442e+14
2.84059e+14
2.88707e+14
2.91541e+14
2.90546e+14
3.00954e+14
2.98786e+14
3.57852e+14
1.47982e+14
1.31722e+14
1.33879e+14
1.33496e+14
1.3111e+14
1.28761e+14
1.26581e+14
1.24417e+14
1.22268e+14
1.20162e+14
1.18107e+14
1.16099e+14
1.14136e+14
1.12218e+14
1.10342e+14
1.08504e+14
1.06703e+14
1.04936e+14
1.03201e+14
1.01497e+14
9.98201e+13
9.81697e+13
9.65431e+13
9.49382e+13
9.33519e+13
9.17799e+13
9.02171e+13
8.86559e+13
8.70848e+13
8.54878e+13
8.38371e+13
8.21052e+13
8.01722e+13
7.82272e+13
7.47918e+13
7.55801e+13
7.2949e+13
1.56794e+14
9.62892e+13
6.24551e+13
7.88576e+13
7.66575e+13
7.66744e+13
6.95242e+13
1.1668e+14
1.73227e+14
2.23718e+14
2.63552e+14
2.92435e+14
3.11585e+14
3.23203e+14
3.28591e+14
3.31539e+14
3.3074e+14
3.399e+14
3.35484e+14
3.87022e+14
1.60739e+14
1.42281e+14
1.44831e+14
1.44547e+14
1.4196e+14
1.3944e+14
1.37089e+14
1.34734e+14
1.32385e+14
1.30082e+14
1.27834e+14
1.25641e+14
1.235e+14
1.21409e+14
1.19366e+14
1.17368e+14
1.15412e+14
1.13494e+14
1.11613e+14
1.09764e+14
1.07947e+14
1.06159e+14
1.04397e+14
1.02658e+14
1.00938e+14
9.92319e+13
9.75341e+13
9.58351e+13
9.41216e+13
9.23756e+13
9.05662e+13
8.8665e+13
8.65418e+13
8.44213e+13
8.06666e+13
8.15912e+13
7.86871e+13
1.6793e+14
1.00442e+14
5.95198e+13
7.40232e+13
6.9976e+13
6.7503e+13
1.01355e+14
1.62966e+14
2.24577e+14
2.76002e+14
3.14891e+14
3.42164e+14
3.59628e+14
3.69629e+14
3.73676e+14
3.75192e+14
3.73086e+14
3.79817e+14
3.71535e+14
4.14835e+14
1.72903e+14
1.51931e+14
1.54762e+14
1.54533e+14
1.51698e+14
1.49004e+14
1.46516e+14
1.44015e+14
1.41516e+14
1.39064e+14
1.36668e+14
1.34329e+14
1.32045e+14
1.29814e+14
1.27633e+14
1.25501e+14
1.23412e+14
1.21365e+14
1.19356e+14
1.17383e+14
1.15443e+14
1.13534e+14
1.11652e+14
1.09795e+14
1.07958e+14
1.06137e+14
1.04324e+14
1.0251e+14
1.00682e+14
9.88208e+13
9.68923e+13
9.48672e+13
9.26018e+13
9.03535e+13
8.63095e+13
8.74155e+13
8.41927e+13
1.78888e+14
1.04571e+14
5.43508e+13
6.66779e+13
6.39688e+13
1.00777e+14
1.73853e+14
2.45195e+14
3.04333e+14
3.49357e+14
3.81395e+14
4.02603e+14
4.15108e+14
4.21124e+14
4.22024e+14
4.20737e+14
4.16003e+14
4.1921e+14
4.05795e+14
4.40641e+14
1.8421e+14
1.60583e+14
1.63632e+14
1.63312e+14
1.60109e+14
1.57132e+14
1.54454e+14
1.51792e+14
1.49155e+14
1.46581e+14
1.44072e+14
1.41623e+14
1.39232e+14
1.36896e+14
1.3461e+14
1.32372e+14
1.30179e+14
1.28027e+14
1.25914e+14
1.23837e+14
1.21794e+14
1.19782e+14
1.17799e+14
1.15842e+14
1.13906e+14
1.11987e+14
1.10077e+14
1.08168e+14
1.06246e+14
1.0429e+14
1.02267e+14
1.00149e+14
9.77796e+13
9.54544e+13
9.11857e+13
9.25636e+13
8.9028e+13
1.89345e+14
1.08584e+14
6.26993e+13
6.53965e+13
1.47106e+14
2.36092e+14
3.07318e+14
3.628e+14
4.04429e+14
4.34227e+14
4.54166e+14
4.66141e+14
4.71767e+14
4.72666e+14
4.69697e+14
4.65048e+14
4.56924e+14
4.55779e+14
4.37032e+14
4.64629e+14
1.94335e+14
1.68589e+14
1.72491e+14
1.72721e+14
1.69599e+14
1.66576e+14
1.63776e+14
1.60931e+14
1.58086e+14
1.553e+14
1.52584e+14
1.49939e+14
1.47363e+14
1.44853e+14
1.42404e+14
1.40013e+14
1.37675e+14
1.35385e+14
1.3314e+14
1.30937e+14
1.28772e+14
1.26642e+14
1.24543e+14
1.22472e+14
1.20425e+14
1.18397e+14
1.1638e+14
1.14365e+14
1.12338e+14
1.1028e+14
1.08158e+14
1.05951e+14
1.03498e+14
1.01153e+14
9.67185e+13
9.86124e+13
9.47829e+13
2.01447e+14
1.12922e+14
3.40341e+14
3.45609e+14
3.92723e+14
4.28711e+14
4.57385e+14
4.80799e+14
4.98538e+14
5.10492e+14
5.17e+14
5.18787e+14
5.16678e+14
5.11697e+14
5.04397e+14
4.96565e+14
4.8649e+14
4.83526e+14
4.64128e+14
4.88319e+14
2.01908e+14
1.73583e+14
1.76512e+14
1.75936e+14
1.72386e+14
1.69296e+14
1.66568e+14
1.63845e+14
1.61131e+14
1.5846e+14
1.55834e+14
1.53252e+14
1.50715e+14
1.48223e+14
1.45774e+14
1.43369e+14
1.41005e+14
1.38681e+14
1.36397e+14
1.34149e+14
1.31938e+14
1.29761e+14
1.27616e+14
1.25501e+14
1.23414e+14
1.21351e+14
1.19306e+14
1.17273e+14
1.15242e+14
1.13195e+14
1.11104e+14
1.08947e+14
1.06554e+14
1.04308e+14
9.9847e+13
1.02118e+14
9.8284e+13
2.11953e+14
1.19018e+14
7.67653e+13
7.16685e+13
6.89741e+13
6.68497e+13
6.48469e+13
6.31266e+13
6.17523e+13
6.11624e+13
5.98054e+13
7.40796e+13
1.30822e+14
1.22243e+14
1.13294e+14
1.06737e+14
1.00434e+14
9.48639e+13
8.98935e+13
8.6074e+13
8.0856e+13
9.30744e+13
5.82302e+13
5.56091e+13
5.14381e+13
4.83369e+13
4.50188e+13
4.19631e+13
3.90845e+13
3.6708e+13
3.44723e+13
3.43394e+13
6.14094e+13
5.83266e+13
5.37274e+13
5.02047e+13
4.65112e+13
4.31128e+13
3.98072e+13
3.68796e+13
3.50427e+13
3.03988e+13
5.96332e+13
5.68092e+13
5.26273e+13
4.92628e+13
4.56647e+13
4.23091e+13
3.90089e+13
3.58045e+13
3.44824e+13
2.86131e+13
6.21695e+13
5.91996e+13
5.48895e+13
5.13507e+13
4.75566e+13
4.3998e+13
4.05185e+13
3.68777e+13
3.58779e+13
2.90481e+13
6.34045e+13
6.04139e+13
5.60736e+13
5.24648e+13
4.85788e+13
4.49123e+13
4.13602e+13
3.74272e+13
3.66718e+13
2.92594e+13
6.47247e+13
6.16962e+13
5.72872e+13
5.36008e+13
4.96216e+13
4.5851e+13
4.22313e+13
3.80668e+13
3.74744e+13
2.96492e+13
6.59212e+13
6.28595e+13
5.83808e+13
5.46265e+13
5.05675e+13
4.67088e+13
4.30309e+13
3.86909e+13
3.82066e+13
3.00841e+13
6.70882e+13
6.3989e+13
5.94365e+13
5.56162e+13
5.14821e+13
4.75427e+13
4.38077e+13
3.93272e+13
3.8915e+13
3.05629e+13
6.82389e+13
6.50985e+13
6.04705e+13
5.65852e+13
5.23791e+13
4.83637e+13
4.45715e+13
3.99729e+13
3.96102e+13
3.10693e+13
6.93893e+13
6.62047e+13
6.14999e+13
5.75495e+13
5.32724e+13
4.91832e+13
4.53333e+13
4.06293e+13
4.0303e+13
3.15968e+13
7.05476e+13
6.73166e+13
6.25338e+13
5.85174e+13
5.41698e+13
5.00075e+13
4.60992e+13
4.12963e+13
4.09995e+13
3.21406e+13
7.17194e+13
6.84402e+13
6.3578e+13
5.94947e+13
5.50762e+13
5.08404e+13
4.68732e+13
4.19741e+13
4.17038e+13
3.26977e+13
7.29078e+13
6.95794e+13
6.46363e+13
6.04847e+13
5.59948e+13
5.16847e+13
4.7658e+13
4.26626e+13
4.24184e+13
3.32666e+13
7.41148e+13
7.07362e+13
6.57109e+13
6.14893e+13
5.69277e+13
5.25418e+13
4.84552e+13
4.33621e+13
4.31449e+13
3.38461e+13
7.53414e+13
7.19117e+13
6.68032e+13
6.251e+13
5.78759e+13
5.34125e+13
4.92658e+13
4.40723e+13
4.38845e+13
3.44354e+13
7.65883e+13
7.31063e+13
6.79139e+13
6.35474e+13
5.88401e+13
5.42976e+13
5.00903e+13
4.47937e+13
4.46381e+13
3.50342e+13
7.78558e+13
7.432e+13
6.90434e+13
6.46014e+13
5.98205e+13
5.51974e+13
5.09292e+13
4.55262e+13
4.54059e+13
3.56421e+13
7.91439e+13
7.55523e+13
7.0192e+13
6.56721e+13
6.08173e+13
5.6112e+13
5.17825e+13
4.62701e+13
4.61882e+13
3.62591e+13
8.04501e+13
7.68014e+13
7.13591e+13
6.67591e+13
6.18303e+13
5.70412e+13
5.265e+13
4.70257e+13
4.69853e+13
3.6885e+13
8.17739e+13
7.80666e+13
7.25425e+13
6.78599e+13
6.28589e+13
5.7985e+13
5.35316e+13
4.77933e+13
4.77973e+13
3.75198e+13
8.31135e+13
7.93467e+13
7.37417e+13
6.89736e+13
6.39001e+13
5.89415e+13
5.44267e+13
4.85735e+13
4.86239e+13
3.81636e+13
8.4466e+13
8.06395e+13
7.49545e+13
7.0099e+13
6.49538e+13
5.99092e+13
5.53319e+13
4.93669e+13
4.94648e+13
3.88165e+13
8.5828e+13
8.19416e+13
7.61784e+13
7.12334e+13
6.60174e+13
6.08873e+13
5.62474e+13
5.017e+13
5.03193e+13
3.94788e+13
8.71947e+13
8.32489e+13
7.74098e+13
7.23731e+13
6.70881e+13
6.18736e+13
5.71716e+13
5.09819e+13
5.11865e+13
4.01509e+13
8.85599e+13
8.45554e+13
7.86438e+13
7.35134e+13
6.81618e+13
6.2865e+13
5.81015e+13
5.18012e+13
5.20668e+13
4.08317e+13
8.99156e+13
8.58528e+13
7.98734e+13
7.4648e+13
6.92327e+13
6.38572e+13
5.90332e+13
5.26256e+13
5.29614e+13
4.15181e+13
9.12505e+13
8.713e+13
8.10895e+13
7.57681e+13
7.02932e+13
6.48444e+13
5.99619e+13
5.34525e+13
5.38696e+13
4.22094e+13
9.25498e+13
8.83716e+13
8.22789e+13
7.68618e+13
7.13328e+13
6.58184e+13
6.08805e+13
5.4278e+13
5.47901e+13
4.29042e+13
9.37943e+13
8.95576e+13
8.34244e+13
7.79137e+13
7.23373e+13
6.67678e+13
6.178e+13
5.5097e+13
5.57216e+13
4.36016e+13
9.49585e+13
9.06607e+13
8.45016e+13
7.89021e+13
7.32872e+13
6.76773e+13
6.26477e+13
5.59022e+13
5.66618e+13
4.43002e+13
9.60017e+13
9.16357e+13
8.54695e+13
7.9791e+13
7.41501e+13
6.85193e+13
6.34612e+13
5.66788e+13
5.76024e+13
4.49943e+13
9.68548e+13
9.24098e+13
8.62616e+13
8.05239e+13
7.48763e+13
6.92535e+13
6.41885e+13
5.74066e+13
5.8533e+13
4.56767e+13
9.7503e+13
9.29672e+13
8.68631e+13
8.10888e+13
7.54545e+13
6.98729e+13
6.4832e+13
5.8105e+13
5.94923e+13
4.63839e+13
9.80888e+13
9.33976e+13
8.73361e+13
8.15273e+13
7.59066e+13
7.03897e+13
6.54058e+13
5.88021e+13
6.05264e+13
4.71563e+13
9.75864e+13
9.25666e+13
8.66602e+13
8.09785e+13
7.55024e+13
7.01749e+13
6.53459e+13
5.89818e+13
6.10677e+13
4.74951e+13
9.31083e+13
8.81485e+13
8.29352e+13
7.78106e+13
7.28081e+13
6.79937e+13
6.36395e+13
5.79231e+13
6.05321e+13
4.69952e+13
1.01975e+14
9.64194e+13
9.04834e+13
8.44081e+13
7.86237e+13
7.33944e+13
6.89954e+13
6.38381e+13
6.79665e+13
5.32286e+13
2.54575e+14
2.36289e+14
2.21067e+14
2.078e+14
1.96459e+14
1.87316e+14
1.80912e+14
1.728e+14
1.90484e+14
1.5478e+14
1.82304e+14
1.62043e+14
1.45992e+14
1.32946e+14
1.22509e+14
1.14146e+14
1.07481e+14
9.76814e+13
9.49879e+13
5.88014e+13
1.38537e+14
1.18737e+14
1.04813e+14
9.53705e+13
8.98312e+13
8.61121e+13
8.18022e+13
7.76116e+13
8.2304e+13
5.85839e+13
8.64198e+13
6.91084e+13
5.87493e+13
5.34464e+13
4.92542e+13
4.85959e+13
5.34731e+13
5.88254e+13
6.9311e+13
5.3464e+13
4.21713e+13
3.10368e+13
2.58062e+13
2.32483e+13
2.5843e+13
3.23616e+13
4.12162e+13
4.95746e+13
6.19478e+13
4.99406e+13
1.40968e+13
9.61492e+12
7.76859e+12
9.39504e+12
1.60098e+13
2.48243e+13
3.48325e+13
4.39893e+13
5.63909e+13
4.65847e+13
5.2234e+12
4.30957e+12
2.73145e+12
7.08099e+12
1.40316e+13
2.24202e+13
3.1771e+13
4.07324e+13
5.13421e+13
4.38427e+13
4.95015e+12
5.01648e+12
5.80747e+12
8.70423e+12
1.43744e+13
2.16209e+13
2.98072e+13
3.81566e+13
4.63457e+13
4.13403e+13
5.74564e+12
6.54011e+12
7.8865e+12
1.05114e+13
1.51644e+13
2.12667e+13
2.82578e+13
3.56891e+13
4.15795e+13
3.89455e+13
6.36493e+12
7.60666e+12
9.25847e+12
1.17778e+13
1.57052e+13
2.08181e+13
2.67006e+13
3.30547e+13
3.70573e+13
3.65427e+13
6.66961e+12
8.1888e+12
1.00071e+13
1.24126e+13
1.57912e+13
2.00709e+13
2.49519e+13
3.02115e+13
3.28129e+13
3.40896e+13
6.63745e+12
8.27924e+12
1.01519e+13
1.24223e+13
1.53511e+13
1.89219e+13
2.2909e+13
2.71558e+13
2.88084e+13
3.15213e+13
6.3504e+12
8.01316e+12
9.85062e+12
1.19371e+13
1.44607e+13
1.74146e+13
2.06167e+13
2.39914e+13
2.50687e+13
2.88563e+13
5.83342e+12
7.37801e+12
9.06912e+12
1.09487e+13
1.30956e+13
1.55075e+13
1.80338e+13
2.06952e+13
2.14831e+13
2.59769e+13
5.23495e+12
6.63284e+12
8.13225e+12
9.74885e+12
1.15178e+13
1.34421e+13
1.5395e+13
1.74947e+13
1.81803e+13
2.30652e+13
4.46873e+12
5.55262e+12
6.71632e+12
8.06596e+12
9.4725e+12
1.0962e+13
1.24354e+13
1.40939e+13
1.47957e+13
1.95983e+13
3.8692e+12
4.84102e+12
5.76999e+12
6.76035e+12
7.77144e+12
8.84345e+12
9.90543e+12
1.11998e+13
1.19431e+13
1.65212e+13
2.01722e+12
2.39284e+12
2.8946e+12
3.50587e+12
4.17096e+12
4.85608e+12
5.5192e+12
6.38827e+12
6.98862e+12
9.90663e+12
3.21158e+14
2.93449e+14
3.12029e+14
3.2025e+14
3.30385e+14
3.40251e+14
3.49254e+14
3.57107e+14
3.64298e+14
3.59978e+14
3.26146e+14
4.41385e+14
3.96739e+14
3.97451e+14
3.94622e+14
3.95901e+14
3.99545e+14
4.05697e+14
4.15256e+14
4.29843e+14
4.41133e+14
4.37903e+14
4.3922e+14
4.10259e+14
4.1121e+14
4.10892e+14
4.13609e+14
4.17352e+14
4.21876e+14
4.27754e+14
4.3491e+14
4.35699e+14
4.29497e+14
4.73122e+14
4.47716e+14
4.44184e+14
4.41984e+14
4.43462e+14
4.46961e+14
4.52225e+14
4.59652e+14
4.68742e+14
4.72963e+14
4.75041e+14
5.05073e+14
4.82909e+14
4.77127e+14
4.7434e+14
4.75285e+14
4.78307e+14
4.83043e+14
4.89973e+14
4.98552e+14
5.03927e+14
5.10589e+14
5.35474e+14
5.14853e+14
5.06942e+14
5.0303e+14
5.03091e+14
5.05659e+14
5.10305e+14
5.17283e+14
5.2575e+14
5.32395e+14
5.42451e+14
5.66611e+14
5.46735e+14
5.37288e+14
5.32508e+14
5.31845e+14
5.3397e+14
5.384e+14
5.45194e+14
5.53669e+14
5.61407e+14
5.73317e+14
5.979e+14
5.78386e+14
5.67643e+14
5.62017e+14
5.60658e+14
5.62351e+14
5.66579e+14
5.73297e+14
5.81846e+14
5.90524e+14
6.03606e+14
6.29238e+14
6.10089e+14
5.98288e+14
5.9187e+14
5.89868e+14
5.91176e+14
5.95207e+14
6.01796e+14
6.10376e+14
6.19737e+14
6.33521e+14
6.6036e+14
6.41845e+14
6.29239e+14
6.21967e+14
6.19132e+14
6.19877e+14
6.23654e+14
6.30248e+14
6.38992e+14
6.48978e+14
6.63321e+14
6.91946e+14
6.74722e+14
6.62055e+14
6.54446e+14
6.51076e+14
6.5139e+14
6.54947e+14
6.61533e+14
6.70462e+14
6.80986e+14
6.95753e+14
7.25923e+14
7.10607e+14
6.98652e+14
6.91382e+14
6.87944e+14
6.88066e+14
6.91476e+14
6.98044e+14
7.07178e+14
7.18184e+14
7.33271e+14
7.63063e+14
7.50113e+14
7.39658e+14
7.33681e+14
7.31146e+14
7.31863e+14
7.35583e+14
7.4217e+14
7.51368e+14
7.62632e+14
7.77734e+14
8.04197e+14
7.93468e+14
7.84423e+14
7.79695e+14
7.78084e+14
7.79463e+14
7.83557e+14
7.90204e+14
7.99414e+14
8.10859e+14
8.25908e+14
8.44563e+14
8.35732e+14
8.27826e+14
8.24058e+14
8.23143e+14
8.25053e+14
8.29548e+14
8.3648e+14
8.45903e+14
8.57576e+14
8.7253e+14
8.83366e+14
8.76478e+14
8.69808e+14
8.67082e+14
8.66934e+14
8.69424e+14
8.74344e+14
8.81564e+14
8.91179e+14
9.03003e+14
9.17799e+14
9.20361e+14
9.15571e+14
9.10298e+14
9.08763e+14
9.09522e+14
9.12715e+14
9.18161e+14
9.2575e+14
9.35585e+14
9.47539e+14
9.62194e+14
9.5511e+14
9.52635e+14
9.48945e+14
9.48771e+14
9.5058e+14
9.54591e+14
9.60653e+14
9.68675e+14
9.7876e+14
9.90841e+14
1.00535e+15
9.87256e+14
9.87357e+14
9.8545e+14
9.86837e+14
9.89867e+14
9.9484e+14
1.00163e+15
1.01016e+15
1.02039e+15
1.0326e+15
1.04697e+15
1.01626e+15
1.01919e+15
1.01923e+15
1.02235e+15
1.02674e+15
1.03278e+15
1.04037e+15
1.04948e+15
1.06006e+15
1.07241e+15
1.08666e+15
1.04163e+15
1.04766e+15
1.04975e+15
1.05478e+15
1.06071e+15
1.06799e+15
1.07652e+15
1.08628e+15
1.09726e+15
1.10976e+15
1.12389e+15
1.06309e+15
1.07238e+15
1.07643e+15
1.08332e+15
1.0907e+15
1.09917e+15
1.10864e+15
1.11913e+15
1.13061e+15
1.14332e+15
1.15739e+15
1.08081e+15
1.09375e+15
1.09991e+15
1.10881e+15
1.11774e+15
1.12744e+15
1.13783e+15
1.14894e+15
1.16076e+15
1.17355e+15
1.18745e+15
1.09262e+15
1.10944e+15
1.11773e+15
1.12859e+15
1.13892e+15
1.14969e+15
1.1608e+15
1.17236e+15
1.18437e+15
1.1971e+15
1.21076e+15
1.09622e+15
1.1167e+15
1.12697e+15
1.13963e+15
1.15124e+15
1.16301e+15
1.17488e+15
1.18697e+15
1.19934e+15
1.21215e+15
1.22565e+15
1.09415e+15
1.11839e+15
1.13057e+15
1.14493e+15
1.15776e+15
1.17048e+15
1.18305e+15
1.19563e+15
1.2083e+15
1.22122e+15
1.2346e+15
1.08721e+15
1.11562e+15
1.1296e+15
1.14561e+15
1.15957e+15
1.17315e+15
1.18634e+15
1.19937e+15
1.21231e+15
1.22531e+15
1.23857e+15
1.07523e+15
1.10856e+15
1.12437e+15
1.14214e+15
1.15722e+15
1.17162e+15
1.18536e+15
1.19873e+15
1.21184e+15
1.22481e+15
1.2379e+15
1.05589e+15
1.09501e+15
1.11286e+15
1.13267e+15
1.14908e+15
1.16441e+15
1.17876e+15
1.19246e+15
1.20569e+15
1.21854e+15
1.23136e+15
1.0264e+15
1.07179e+15
1.09164e+15
1.11358e+15
1.13137e+15
1.1477e+15
1.16271e+15
1.17682e+15
1.1902e+15
1.20296e+15
1.21544e+15
9.84332e+14
1.03581e+15
1.05729e+15
1.08129e+15
1.10032e+15
1.11739e+15
1.13274e+15
1.14694e+15
1.16029e+15
1.17294e+15
1.185e+15
9.27035e+14
9.82143e+14
1.00357e+15
1.02964e+15
1.05107e+15
1.07062e+15
1.08813e+15
1.10394e+15
1.1182e+15
1.13099e+15
1.14254e+15
8.6079e+14
9.13295e+14
9.24453e+14
9.41243e+14
9.53737e+14
9.65356e+14
9.76242e+14
9.86878e+14
9.97516e+14
1.00816e+15
1.01801e+15
7.6892e+14
8.39986e+14
8.6403e+14
8.94529e+14
9.1909e+14
9.41061e+14
9.60464e+14
9.77797e+14
9.93417e+14
1.00739e+15
1.01926e+15
5.91003e+14
5.96406e+14
5.72333e+14
5.6728e+14
5.63833e+14
5.63162e+14
5.6409e+14
5.66298e+14
5.69567e+14
5.73586e+14
5.77587e+14
1.23267e+14
1.33594e+14
1.45491e+14
1.56191e+14
1.66154e+14
1.75824e+14
1.85214e+14
1.94172e+14
2.02673e+14
2.11155e+14
2.19757e+14
2.2836e+14
2.35724e+14
2.40593e+14
2.43142e+14
2.43064e+14
2.40617e+14
2.36447e+14
2.292e+14
2.22424e+14
2.08241e+14
1.9412e+14
1.81878e+14
1.6886e+14
1.57579e+14
1.47688e+14
1.38915e+14
1.30583e+14
1.22429e+14
1.14374e+14
1.06415e+14
9.85971e+13
9.03939e+13
8.3049e+13
7.81961e+13
2.11518e+14
2.12307e+14
2.15991e+14
2.20135e+14
2.24663e+14
2.29471e+14
2.3435e+14
2.38994e+14
2.43295e+14
2.47364e+14
2.50947e+14
2.53599e+14
2.54294e+14
2.53176e+14
2.50737e+14
2.46719e+14
2.41477e+14
2.35412e+14
2.27815e+14
2.20651e+14
2.10107e+14
2.00864e+14
1.92597e+14
1.83644e+14
1.75307e+14
1.67592e+14
1.60653e+14
1.54211e+14
1.48165e+14
1.42626e+14
1.37808e+14
1.34e+14
1.30766e+14
1.28713e+14
1.29461e+14
1.00077e+14
1.03865e+14
1.06292e+14
1.08294e+14
1.10003e+14
1.11252e+14
1.12029e+14
1.1233e+14
1.12224e+14
1.11622e+14
1.10324e+14
1.08389e+14
1.06116e+14
1.04118e+14
1.02258e+14
1.00195e+14
9.7927e+13
9.54557e+13
9.26917e+13
9.00862e+13
8.72348e+13
8.46116e+13
8.25361e+13
8.08324e+13
7.934e+13
7.77598e+13
7.60995e+13
7.44038e+13
7.26407e+13
7.07577e+13
6.87483e+13
6.68508e+13
6.45907e+13
6.17316e+13
5.92483e+13
1.02981e+14
1.05266e+14
1.07125e+14
1.08838e+14
1.10252e+14
1.11258e+14
1.11892e+14
1.12157e+14
1.1216e+14
1.11993e+14
1.11599e+14
1.1093e+14
1.09856e+14
1.08546e+14
1.0706e+14
1.05328e+14
1.03414e+14
1.01351e+14
9.91439e+13
9.68618e+13
9.40729e+13
9.11316e+13
8.84681e+13
8.59911e+13
8.36907e+13
8.14876e+13
7.93889e+13
7.73264e+13
7.52299e+13
7.30997e+13
7.0911e+13
6.87495e+13
6.62864e+13
6.37499e+13
6.20233e+13
1.01005e+14
1.03361e+14
1.04844e+14
1.06131e+14
1.07026e+14
1.07508e+14
1.0766e+14
1.07517e+14
1.07171e+14
1.06628e+14
1.05827e+14
1.04765e+14
1.03447e+14
1.02081e+14
1.00593e+14
9.89041e+13
9.70538e+13
9.50612e+13
9.29358e+13
9.07126e+13
8.82841e+13
8.57525e+13
8.34704e+13
8.15071e+13
7.97242e+13
7.80001e+13
7.62793e+13
7.4558e+13
7.28013e+13
7.10167e+13
6.9197e+13
6.7531e+13
6.58077e+13
6.35169e+13
6.10459e+13
1.05407e+14
1.07656e+14
1.09108e+14
1.10246e+14
1.10909e+14
1.11177e+14
1.1114e+14
1.10841e+14
1.10365e+14
1.09717e+14
1.08848e+14
1.07741e+14
1.06392e+14
1.04973e+14
1.03406e+14
1.01655e+14
9.97564e+13
9.773e+13
9.55958e+13
9.3363e+13
9.10095e+13
8.85074e+13
8.62212e+13
8.42812e+13
8.25211e+13
8.08298e+13
7.91239e+13
7.74081e+13
7.56508e+13
7.38583e+13
7.20073e+13
7.03203e+13
6.88249e+13
6.68226e+13
6.41753e+13
1.07657e+14
1.09841e+14
1.11219e+14
1.12175e+14
1.12648e+14
1.12768e+14
1.12608e+14
1.12217e+14
1.11669e+14
1.10956e+14
1.10047e+14
1.08918e+14
1.07573e+14
1.0615e+14
1.04562e+14
1.02804e+14
1.00903e+14
9.8881e+13
9.67578e+13
9.45358e+13
9.22241e+13
8.97584e+13
8.74699e+13
8.55424e+13
8.38047e+13
8.21459e+13
8.04572e+13
7.87514e+13
7.70032e+13
7.52202e+13
7.33518e+13
7.16195e+13
7.02961e+13
6.86765e+13
6.60717e+13
1.10058e+14
1.12228e+14
1.13573e+14
1.14386e+14
1.1474e+14
1.14769e+14
1.1453e+14
1.14077e+14
1.13475e+14
1.12712e+14
1.11771e+14
1.10615e+14
1.09253e+14
1.07804e+14
1.06177e+14
1.04391e+14
1.02465e+14
1.00426e+14
9.82894e+13
9.60597e+13
9.37421e+13
9.12993e+13
8.89999e+13
8.70669e+13
8.53299e+13
8.36794e+13
8.19891e+13
8.02767e+13
7.85203e+13
7.67314e+13
7.48372e+13
7.30324e+13
7.17534e+13
7.03985e+13
6.79745e+13
1.12234e+14
1.14413e+14
1.1573e+14
1.16427e+14
1.16707e+14
1.16678e+14
1.16385e+14
1.1589e+14
1.1525e+14
1.14451e+14
1.13486e+14
1.12308e+14
1.10931e+14
1.09458e+14
1.07798e+14
1.05985e+14
1.04034e+14
1.01973e+14
9.98171e+13
9.75697e+13
9.52329e+13
9.27812e+13
9.04734e+13
8.85249e+13
8.67756e+13
8.51195e+13
8.34173e+13
8.16903e+13
7.99179e+13
7.8116e+13
7.61978e+13
7.43307e+13
7.30489e+13
7.18511e+13
6.96278e+13
1.14351e+14
1.16553e+14
1.17851e+14
1.18463e+14
1.18698e+14
1.1863e+14
1.18298e+14
1.17772e+14
1.17102e+14
1.16274e+14
1.15288e+14
1.14088e+14
1.12692e+14
1.11193e+14
1.09498e+14
1.07656e+14
1.05676e+14
1.03587e+14
1.01405e+14
9.91314e+13
9.67691e+13
9.42895e+13
9.19657e+13
9.00003e+13
8.82319e+13
8.65607e+13
8.48403e+13
8.30935e+13
8.12998e+13
7.94786e+13
7.75347e+13
7.56165e+13
7.43148e+13
7.31962e+13
7.11272e+13
1.16423e+14
1.18658e+14
1.19945e+14
1.20495e+14
1.20704e+14
1.20609e+14
1.20248e+14
1.19697e+14
1.19003e+14
1.1815e+14
1.17145e+14
1.15923e+14
1.14506e+14
1.12979e+14
1.11251e+14
1.09378e+14
1.07366e+14
1.05247e+14
1.03034e+14
1.0073e+14
9.83366e+13
9.58238e+13
9.34702e+13
9.14855e+13
8.96967e+13
8.80051e+13
8.62621e+13
8.44917e+13
8.26735e+13
8.08289e+13
7.88571e+13
7.68958e+13
7.55707e+13
7.44875e+13
7.25125e+13
1.18479e+14
1.20752e+14
1.22035e+14
1.22542e+14
1.22737e+14
1.22621e+14
1.22238e+14
1.21667e+14
1.20952e+14
1.20076e+14
1.19053e+14
1.17809e+14
1.16369e+14
1.14815e+14
1.13054e+14
1.11148e+14
1.09104e+14
1.06952e+14
1.04705e+14
1.02366e+14
9.99381e+13
9.73886e+13
9.50018e+13
9.29889e+13
9.11766e+13
8.94639e+13
8.76959e+13
8.58997e+13
8.40543e+13
8.21835e+13
8.01822e+13
7.81822e+13
7.68339e+13
7.57629e+13
7.38315e+13
1.20533e+14
1.22848e+14
1.24133e+14
1.24611e+14
1.24798e+14
1.24668e+14
1.24267e+14
1.23679e+14
1.22944e+14
1.22049e+14
1.21007e+14
1.1974e+14
1.18278e+14
1.16696e+14
1.14901e+14
1.12963e+14
1.10884e+14
1.08697e+14
1.06414e+14
1.04039e+14
1.01573e+14
9.89841e+13
9.65617e+13
9.45189e+13
9.26789e+13
9.09402e+13
8.91471e+13
8.73242e+13
8.54502e+13
8.3551e+13
8.15184e+13
7.9482e+13
7.81111e+13
7.70406e+13
7.51188e+13
1.22596e+14
1.24957e+14
1.26249e+14
1.26708e+14
1.26891e+14
1.26749e+14
1.26333e+14
1.2573e+14
1.24979e+14
1.24064e+14
1.23003e+14
1.21714e+14
1.20227e+14
1.18618e+14
1.1679e+14
1.14818e+14
1.12703e+14
1.1048e+14
1.0816e+14
1.05747e+14
1.03242e+14
1.00611e+14
9.81508e+13
9.60767e+13
9.42078e+13
9.24416e+13
9.06196e+13
8.87684e+13
8.68661e+13
8.49371e+13
8.28717e+13
8.07997e+13
7.94068e+13
7.83304e+13
7.63986e+13
1.24676e+14
1.27084e+14
1.28388e+14
1.28836e+14
1.29017e+14
1.28867e+14
1.28437e+14
1.27821e+14
1.27053e+14
1.26119e+14
1.2504e+14
1.23728e+14
1.22217e+14
1.20579e+14
1.18718e+14
1.16712e+14
1.14561e+14
1.12301e+14
1.09943e+14
1.0749e+14
1.04943e+14
1.0227e+14
9.977e+13
9.7663e+13
9.5764e+13
9.39695e+13
9.21177e+13
9.02365e+13
8.83038e+13
8.63447e+13
8.42457e+13
8.21377e+13
8.07231e+13
7.96379e+13
7.76863e+13
1.26777e+14
1.29237e+14
1.30554e+14
1.30996e+14
1.31177e+14
1.31019e+14
1.30579e+14
1.29949e+14
1.29165e+14
1.28214e+14
1.27116e+14
1.25781e+14
1.24244e+14
1.22578e+14
1.20684e+14
1.18643e+14
1.16456e+14
1.14157e+14
1.1176e+14
1.09266e+14
1.06678e+14
1.0396e+14
1.01419e+14
9.92783e+13
9.73483e+13
9.55246e+13
9.36423e+13
9.17304e+13
8.97661e+13
8.77758e+13
8.56425e+13
8.34977e+13
8.20613e+13
8.09658e+13
7.89909e+13
1.28904e+14
1.31418e+14
1.32749e+14
1.3319e+14
1.33372e+14
1.33208e+14
1.32757e+14
1.32114e+14
1.31316e+14
1.30347e+14
1.2923e+14
1.27872e+14
1.26309e+14
1.24614e+14
1.22686e+14
1.20611e+14
1.18386e+14
1.16049e+14
1.13611e+14
1.11076e+14
1.08444e+14
1.05681e+14
1.03098e+14
1.00923e+14
9.89608e+13
9.71073e+13
9.51938e+13
9.32503e+13
9.12541e+13
8.92313e+13
8.70629e+13
8.48807e+13
8.34219e+13
8.23153e+13
8.03169e+13
1.31061e+14
1.3363e+14
1.34977e+14
1.3542e+14
1.35602e+14
1.35434e+14
1.34972e+14
1.34317e+14
1.33504e+14
1.32517e+14
1.31381e+14
1.3e+14
1.2841e+14
1.26686e+14
1.24725e+14
1.22614e+14
1.20351e+14
1.17974e+14
1.15495e+14
1.12917e+14
1.10242e+14
1.07433e+14
1.04807e+14
1.02596e+14
1.00601e+14
9.87173e+13
9.67718e+13
9.47962e+13
9.27677e+13
9.07117e+13
8.85072e+13
8.62871e+13
8.48054e+13
8.36868e+13
8.16658e+13
1.33249e+14
1.35878e+14
1.3724e+14
1.37686e+14
1.37869e+14
1.37696e+14
1.37225e+14
1.36557e+14
1.35729e+14
1.34725e+14
1.33569e+14
1.32164e+14
1.30547e+14
1.28793e+14
1.26798e+14
1.24651e+14
1.2235e+14
1.19933e+14
1.17412e+14
1.14791e+14
1.12071e+14
1.09214e+14
1.06545e+14
1.04297e+14
1.0227e+14
1.00354e+14
9.83764e+13
9.63678e+13
9.43058e+13
9.22164e+13
8.99754e+13
8.7717e+13
8.62118e+13
8.50799e+13
8.30373e+13
1.35471e+14
1.38164e+14
1.39539e+14
1.39989e+14
1.40173e+14
1.39996e+14
1.39514e+14
1.38834e+14
1.37991e+14
1.36969e+14
1.35793e+14
1.34364e+14
1.3272e+14
1.30936e+14
1.28906e+14
1.26722e+14
1.24382e+14
1.21924e+14
1.1936e+14
1.16695e+14
1.13929e+14
1.11024e+14
1.0831e+14
1.06025e+14
1.03965e+14
1.02017e+14
1.00007e+14
9.79644e+13
9.58681e+13
9.37444e+13
9.14662e+13
8.91694e+13
8.76401e+13
8.64932e+13
8.44282e+13
1.37729e+14
1.4049e+14
1.41875e+14
1.4233e+14
1.42514e+14
1.42332e+14
1.4184e+14
1.41147e+14
1.40288e+14
1.39249e+14
1.38052e+14
1.366e+14
1.34927e+14
1.33113e+14
1.31048e+14
1.28826e+14
1.26446e+14
1.23946e+14
1.21339e+14
1.18629e+14
1.15816e+14
1.12863e+14
1.10103e+14
1.0778e+14
1.05685e+14
1.03705e+14
1.01661e+14
9.95846e+13
9.74538e+13
9.52952e+13
9.2979e+13
9.06435e+13
8.90892e+13
8.79257e+13
8.58394e+13
1.40025e+14
1.42859e+14
1.4425e+14
1.4471e+14
1.44894e+14
1.44707e+14
1.44203e+14
1.43497e+14
1.42622e+14
1.41564e+14
1.40346e+14
1.38869e+14
1.37168e+14
1.35322e+14
1.33222e+14
1.30961e+14
1.2854e+14
1.25997e+14
1.23346e+14
1.2059e+14
1.1773e+14
1.14727e+14
1.11921e+14
1.0956e+14
1.0743e+14
1.05417e+14
1.03339e+14
1.01227e+14
9.90613e+13
9.68669e+13
9.45122e+13
9.21377e+13
9.05581e+13
8.93771e+13
8.72713e+13
1.42361e+14
1.45276e+14
1.46666e+14
1.4713e+14
1.47312e+14
1.47118e+14
1.46603e+14
1.45881e+14
1.44989e+14
1.43913e+14
1.42675e+14
1.41172e+14
1.39442e+14
1.37564e+14
1.35426e+14
1.33126e+14
1.30663e+14
1.28077e+14
1.2538e+14
1.22578e+14
1.19668e+14
1.16615e+14
1.13762e+14
1.11362e+14
1.09196e+14
1.0715e+14
1.05037e+14
1.02889e+14
1.00688e+14
9.84574e+13
9.60636e+13
9.36499e+13
9.20444e+13
9.08452e+13
8.8722e+13
1.4474e+14
1.47743e+14
1.49123e+14
1.49589e+14
1.49769e+14
1.49567e+14
1.49038e+14
1.48301e+14
1.47391e+14
1.46295e+14
1.45035e+14
1.43508e+14
1.41748e+14
1.39836e+14
1.3766e+14
1.35319e+14
1.32813e+14
1.30181e+14
1.27438e+14
1.24588e+14
1.2163e+14
1.18524e+14
1.15624e+14
1.13184e+14
1.10982e+14
1.08901e+14
1.06752e+14
1.04569e+14
1.02331e+14
1.00064e+14
9.76302e+13
9.51773e+13
9.35458e+13
9.23271e+13
9.01883e+13
1.47164e+14
1.50264e+14
1.51623e+14
1.52088e+14
1.52265e+14
1.52053e+14
1.51508e+14
1.50753e+14
1.49824e+14
1.48708e+14
1.47426e+14
1.45873e+14
1.44083e+14
1.42137e+14
1.39921e+14
1.37537e+14
1.34986e+14
1.32308e+14
1.29518e+14
1.26619e+14
1.23609e+14
1.20451e+14
1.17502e+14
1.15022e+14
1.12783e+14
1.10666e+14
1.08482e+14
1.06261e+14
1.03987e+14
1.01682e+14
9.92082e+13
9.67161e+13
9.50585e+13
9.38194e+13
9.16661e+13
1.49636e+14
1.52845e+14
1.54167e+14
1.54628e+14
1.548e+14
1.54575e+14
1.54012e+14
1.53236e+14
1.52287e+14
1.5115e+14
1.49846e+14
1.48267e+14
1.46445e+14
1.44463e+14
1.42205e+14
1.39776e+14
1.37179e+14
1.34454e+14
1.31614e+14
1.28665e+14
1.25603e+14
1.22391e+14
1.19392e+14
1.16871e+14
1.14594e+14
1.12441e+14
1.1022e+14
1.07962e+14
1.0565e+14
1.03307e+14
1.00792e+14
9.82611e+13
9.65773e+13
9.53172e+13
9.31508e+13
1.52158e+14
1.55491e+14
1.56756e+14
1.57209e+14
1.57373e+14
1.57132e+14
1.56547e+14
1.55749e+14
1.54777e+14
1.53618e+14