/*--------------------------------*- C++ -*----------------------------------*\
| =========                 |                                                 |
| \\      /  F ield         | OpenFOAM: The Open Source CFD Toolbox           |
|  \\    /   O peration     | Version:  2406                                  |
|   \\  /    A nd           | Website:  www.openfoam.com                      |
|    \\/     M anipulation  |                                                 |
\*---------------------------------------------------------------------------*/
FoamFile
{
    version     2.0;
    format      ascii;
    arch        "LSB;label=32;scalar=64";
    class       volScalarField;
    location    "0/neutroRegion";
    object      prec1;
}
// * * * * * * * * * * * * * * * * * * * * * * * * * * * * * * * * * * * * * //

dimensions      [0 -3 0 0 0 0 0];

internalField   nonuniform List<scalar> 
8595
(
1.55068e+17
1.32831e+17
1.06238e+17
1.00189e+17
9.47799e+16
9.24842e+16
9.1895e+16
9.14605e+16
9.10636e+16
9.07276e+16
9.03131e+16
9.01508e+16
8.76658e+16
9.65368e+16
8.57938e+16
9.94585e+16
8.14432e+16
1.05597e+17
4.05557e+16
3.61604e+16
3.73224e+16
3.80708e+16
3.81723e+16
3.82385e+16
3.83394e+16
3.84189e+16
3.84729e+16
3.85112e+16
3.8538e+16
3.85551e+16
3.85642e+16
3.85671e+16
3.85653e+16
3.85599e+16
3.85519e+16
3.85421e+16
3.85313e+16
3.85199e+16
3.85087e+16
3.84982e+16
3.84889e+16
3.84819e+16
3.84781e+16
3.84791e+16
3.84869e+16
3.8505e+16
3.85382e+16
3.85945e+16
3.86848e+16
3.88338e+16
3.90471e+16
3.95137e+16
3.96829e+16
4.29839e+16
4.87242e+16
1.43291e+17
1.35041e+17
1.15192e+17
1.08999e+17
1.02136e+17
1.08726e+17
1.1317e+17
1.1751e+17
1.18033e+17
1.18307e+17
1.18342e+17
1.18169e+17
1.17459e+17
1.18224e+17
1.16446e+17
1.18733e+17
1.14407e+17
1.20433e+17
1.08796e+17
1.33663e+17
5.20987e+16
4.61142e+16
4.70057e+16
4.74844e+16
4.73495e+16
4.72163e+16
4.7124e+16
4.70263e+16
4.69244e+16
4.68307e+16
4.67485e+16
4.6677e+16
4.66152e+16
4.65624e+16
4.6517e+16
4.64778e+16
4.64436e+16
4.64133e+16
4.63859e+16
4.63606e+16
4.63364e+16
4.63126e+16
4.62882e+16
4.6262e+16
4.6233e+16
4.61994e+16
4.61587e+16
4.61078e+16
4.60415e+16
4.5953e+16
4.58303e+16
4.56636e+16
4.54005e+16
4.51598e+16
4.41724e+16
4.5842e+16
4.65003e+16
1.19541e+17
1.03037e+17
1.15421e+17
1.12712e+17
1.07723e+17
1.11479e+17
1.09802e+17
1.08841e+17
1.09248e+17
1.09595e+17
1.09633e+17
1.09381e+17
1.08734e+17
1.09022e+17
1.07897e+17
1.08651e+17
1.06362e+17
1.10053e+17
1.02516e+17
1.18304e+17
4.62154e+16
4.08122e+16
4.15229e+16
4.1867e+16
4.1738e+16
4.16745e+16
4.17109e+16
4.17644e+16
4.18143e+16
4.18601e+16
4.19002e+16
4.19329e+16
4.19579e+16
4.19761e+16
4.19882e+16
4.19953e+16
4.19983e+16
4.19979e+16
4.19951e+16
4.19905e+16
4.19851e+16
4.19793e+16
4.1974e+16
4.197e+16
4.19685e+16
4.19711e+16
4.19796e+16
4.19969e+16
4.20268e+16
4.2075e+16
4.21479e+16
4.22608e+16
4.23962e+16
4.27047e+16
4.24726e+16
4.5031e+16
4.6722e+16
1.21146e+17
1.00375e+17
1.13107e+17
1.11907e+17
1.07096e+17
1.10498e+17
1.08962e+17
1.10602e+17
1.11693e+17
1.12208e+17
1.12393e+17
1.12416e+17
1.11966e+17
1.11764e+17
1.11029e+17
1.1129e+17
1.09591e+17
1.11944e+17
1.05597e+17
1.18212e+17
4.66552e+16
4.14696e+16
4.24716e+16
4.29363e+16
4.28709e+16
4.28278e+16
4.28238e+16
4.28095e+16
4.27834e+16
4.27554e+16
4.27284e+16
4.27025e+16
4.2678e+16
4.26551e+16
4.26338e+16
4.26138e+16
4.25951e+16
4.25775e+16
4.25607e+16
4.25444e+16
4.25287e+16
4.25134e+16
4.24983e+16
4.2483e+16
4.24675e+16
4.24514e+16
4.24344e+16
4.24161e+16
4.23961e+16
4.23743e+16
4.23499e+16
4.23303e+16
4.22906e+16
4.23896e+16
4.19267e+16
4.43174e+16
4.59605e+16
1.19435e+17
9.70859e+16
1.13312e+17
1.11732e+17
1.06631e+17
1.1044e+17
1.0609e+17
1.08718e+17
1.11005e+17
1.12002e+17
1.12179e+17
1.1197e+17
1.11462e+17
1.11069e+17
1.10367e+17
1.10304e+17
1.08899e+17
1.10516e+17
1.04901e+17
1.148e+17
4.57862e+16
4.0522e+16
4.14896e+16
4.18852e+16
4.17582e+16
4.16857e+16
4.16862e+16
4.16923e+16
4.16936e+16
4.16949e+16
4.16959e+16
4.16953e+16
4.16929e+16
4.16888e+16
4.16831e+16
4.16761e+16
4.16679e+16
4.16587e+16
4.16488e+16
4.16385e+16
4.16279e+16
4.16172e+16
4.16067e+16
4.15968e+16
4.15878e+16
4.15801e+16
4.15747e+16
4.15724e+16
4.15744e+16
4.15829e+16
4.15992e+16
4.16324e+16
4.16555e+16
4.18254e+16
4.14127e+16
4.38579e+16
4.54383e+16
1.18455e+17
9.50749e+16
1.13854e+17
1.11981e+17
1.05698e+17
1.10509e+17
1.07362e+17
1.0959e+17
1.11544e+17
1.12356e+17
1.12331e+17
1.11868e+17
1.11177e+17
1.10571e+17
1.09819e+17
1.09528e+17
1.08263e+17
1.09358e+17
1.04178e+17
1.12163e+17
4.52425e+16
3.99e+16
4.09489e+16
4.1395e+16
4.12784e+16
4.12158e+16
4.12204e+16
4.12232e+16
4.1218e+16
4.12116e+16
4.12049e+16
4.11969e+16
4.11878e+16
4.11777e+16
4.11668e+16
4.11552e+16
4.11431e+16
4.11307e+16
4.11181e+16
4.11054e+16
4.10928e+16
4.10804e+16
4.10682e+16
4.10566e+16
4.10457e+16
4.10358e+16
4.10276e+16
4.10215e+16
4.10187e+16
4.10212e+16
4.10302e+16
4.10561e+16
4.10733e+16
4.12481e+16
4.08413e+16
4.33339e+16
4.48918e+16
1.17608e+17
9.35465e+16
1.15657e+17
1.12661e+17
1.05791e+17
1.08606e+17
1.09476e+17
1.11985e+17
1.13156e+17
1.13137e+17
1.12432e+17
1.1148e+17
1.10483e+17
1.09645e+17
1.08803e+17
1.08347e+17
1.0716e+17
1.07899e+17
1.03046e+17
1.0965e+17
4.47301e+16
3.92759e+16
4.03836e+16
4.08681e+16
4.07481e+16
4.06903e+16
4.07048e+16
4.07144e+16
4.07141e+16
4.07116e+16
4.07077e+16
4.07019e+16
4.06944e+16
4.06857e+16
4.06758e+16
4.06653e+16
4.06541e+16
4.06425e+16
4.06307e+16
4.06188e+16
4.06069e+16
4.05953e+16
4.0584e+16
4.05732e+16
4.05633e+16
4.05547e+16
4.05478e+16
4.05435e+16
4.0543e+16
4.05484e+16
4.05608e+16
4.05907e+16
4.06112e+16
4.0795e+16
4.03835e+16
4.29177e+16
4.44106e+16
1.16927e+17
9.22444e+16
1.12668e+17
1.10837e+17
1.07462e+17
1.11056e+17
1.13959e+17
1.15104e+17
1.14569e+17
1.13231e+17
1.11669e+17
1.10209e+17
1.08946e+17
1.07959e+17
1.07084e+17
1.06558e+17
1.05463e+17
1.05996e+17
1.0146e+17
1.07172e+17
4.4214e+16
3.86531e+16
3.98123e+16
4.03005e+16
4.01277e+16
4.00429e+16
4.00466e+16
4.00518e+16
4.00521e+16
4.00533e+16
4.00544e+16
4.00541e+16
4.00519e+16
4.00479e+16
4.00421e+16
4.0035e+16
4.00266e+16
4.00173e+16
4.00073e+16
3.99967e+16
3.99859e+16
3.9975e+16
3.99644e+16
3.99542e+16
3.99448e+16
3.99367e+16
3.99306e+16
3.99272e+16
3.99278e+16
3.99345e+16
3.99487e+16
3.99814e+16
4.00039e+16
4.01953e+16
3.97772e+16
4.23546e+16
4.37513e+16
1.16131e+17
9.09721e+16
1.41289e+17
1.26763e+17
1.23421e+17
1.22529e+17
1.19908e+17
1.16841e+17
1.13857e+17
1.11264e+17
1.09157e+17
1.07529e+17
1.06299e+17
1.05422e+17
1.04708e+17
1.04278e+17
1.03324e+17
1.03742e+17
9.96265e+16
1.05026e+17
4.37165e+16
3.81746e+16
3.95336e+16
4.01755e+16
4.0079e+16
4.0034e+16
4.00496e+16
4.0049e+16
4.00354e+16
4.00198e+16
4.0004e+16
3.9988e+16
3.99721e+16
3.99565e+16
3.99415e+16
3.99269e+16
3.99127e+16
3.98989e+16
3.98855e+16
3.98725e+16
3.986e+16
3.98479e+16
3.98362e+16
3.98252e+16
3.9815e+16
3.98059e+16
3.97984e+16
3.9793e+16
3.9791e+16
3.97945e+16
3.98051e+16
3.98353e+16
3.98569e+16
4.00632e+16
3.96417e+16
4.23418e+16
4.36477e+16
1.16316e+17
8.99439e+16
1.71297e+17
1.31206e+17
1.24742e+17
1.19788e+17
1.15262e+17
1.11526e+17
1.08535e+17
1.0621e+17
1.04435e+17
1.03093e+17
1.02075e+17
1.01334e+17
1.00749e+17
1.00466e+17
9.99145e+16
1.00763e+17
9.79293e+16
1.03866e+17
4.3081e+16
3.74064e+16
3.85498e+16
3.90036e+16
3.88365e+16
3.87931e+16
3.88371e+16
3.88771e+16
3.89072e+16
3.89326e+16
3.89525e+16
3.89665e+16
3.89749e+16
3.89788e+16
3.89789e+16
3.89757e+16
3.89701e+16
3.89626e+16
3.89538e+16
3.89441e+16
3.89338e+16
3.89234e+16
3.89134e+16
3.89042e+16
3.88964e+16
3.88906e+16
3.88877e+16
3.88892e+16
3.88967e+16
3.89126e+16
3.89385e+16
3.89859e+16
3.90214e+16
3.92382e+16
3.88004e+16
4.14725e+16
4.26946e+16
1.15673e+17
9.01705e+16
6.88593e+16
6.78472e+16
6.86926e+16
6.98531e+16
7.10618e+16
7.25933e+16
7.46972e+16
7.81803e+16
8.14962e+16
1.0882e+17
9.00031e+16
8.92325e+16
8.78296e+16
8.78495e+16
8.78905e+16
8.84219e+16
8.94921e+16
9.18494e+16
9.29416e+16
1.16962e+17
3.33696e+16
3.38787e+16
3.34157e+16
3.35631e+16
3.35282e+16
3.36464e+16
3.39037e+16
3.46622e+16
3.55958e+16
3.96293e+16
3.34135e+16
3.36732e+16
3.3032e+16
3.29802e+16
3.27785e+16
3.27342e+16
3.27381e+16
3.31448e+16
3.47259e+16
3.42116e+16
3.13335e+16
3.16214e+16
3.11649e+16
3.11644e+16
3.10055e+16
3.09852e+16
3.09926e+16
3.11607e+16
3.32875e+16
3.15511e+16
3.18248e+16
3.20706e+16
3.16118e+16
3.15854e+16
3.1401e+16
3.13555e+16
3.13571e+16
3.12913e+16
3.39011e+16
3.14525e+16
3.17461e+16
3.19913e+16
3.1551e+16
3.15232e+16
3.13358e+16
3.12814e+16
3.13046e+16
3.1069e+16
3.39854e+16
3.11218e+16
3.17777e+16
3.20234e+16
3.15855e+16
3.15543e+16
3.13623e+16
3.12978e+16
3.13404e+16
3.09856e+16
3.41058e+16
3.09914e+16
3.17833e+16
3.20329e+16
3.15958e+16
3.15636e+16
3.13698e+16
3.12984e+16
3.1357e+16
3.09241e+16
3.4173e+16
3.09085e+16
3.17924e+16
3.20455e+16
3.16078e+16
3.15749e+16
3.13803e+16
3.13038e+16
3.1374e+16
3.08905e+16
3.42218e+16
3.08671e+16
3.18006e+16
3.20564e+16
3.16179e+16
3.15847e+16
3.13899e+16
3.13096e+16
3.13883e+16
3.08717e+16
3.42565e+16
3.08476e+16
3.1809e+16
3.20668e+16
3.16276e+16
3.15941e+16
3.13997e+16
3.13163e+16
3.14014e+16
3.08622e+16
3.42837e+16
3.08416e+16
3.18174e+16
3.20769e+16
3.1637e+16
3.16031e+16
3.14093e+16
3.13234e+16
3.14136e+16
3.08578e+16
3.43067e+16
3.08432e+16
3.18258e+16
3.20868e+16
3.16463e+16
3.1612e+16
3.14191e+16
3.13307e+16
3.14255e+16
3.08559e+16
3.43277e+16
3.0849e+16
3.18342e+16
3.20966e+16
3.16556e+16
3.16208e+16
3.14289e+16
3.1338e+16
3.14375e+16
3.08552e+16
3.4348e+16
3.08568e+16
3.18425e+16
3.21064e+16
3.1665e+16
3.16293e+16
3.1439e+16
3.13454e+16
3.14496e+16
3.08546e+16
3.43683e+16
3.08654e+16
3.18508e+16
3.21162e+16
3.16746e+16
3.16379e+16
3.14491e+16
3.13526e+16
3.14618e+16
3.08536e+16
3.43893e+16
3.0874e+16
3.1859e+16
3.21258e+16
3.16843e+16
3.16463e+16
3.14594e+16
3.13598e+16
3.14743e+16
3.08521e+16
3.44112e+16
3.0882e+16
3.18674e+16
3.21351e+16
3.16943e+16
3.16544e+16
3.14698e+16
3.13669e+16
3.14869e+16
3.08498e+16
3.4434e+16
3.08891e+16
3.18759e+16
3.2144e+16
3.17046e+16
3.16624e+16
3.14803e+16
3.13739e+16
3.14998e+16
3.08469e+16
3.44578e+16
3.08952e+16
3.18842e+16
3.21523e+16
3.17153e+16
3.16701e+16
3.14909e+16
3.13809e+16
3.15127e+16
3.08436e+16
3.44825e+16
3.09001e+16
3.18921e+16
3.21602e+16
3.17261e+16
3.16774e+16
3.15017e+16
3.1388e+16
3.15255e+16
3.08401e+16
3.45081e+16
3.09037e+16
3.18996e+16
3.21676e+16
3.17371e+16
3.16841e+16
3.15123e+16
3.13951e+16
3.15382e+16
3.08368e+16
3.45342e+16
3.09061e+16
3.19063e+16
3.21744e+16
3.17482e+16
3.16905e+16
3.15228e+16
3.14023e+16
3.15503e+16
3.08345e+16
3.45604e+16
3.09071e+16
3.1912e+16
3.21804e+16
3.17593e+16
3.16962e+16
3.15332e+16
3.14095e+16
3.15622e+16
3.08334e+16
3.45863e+16
3.0907e+16
3.19163e+16
3.21854e+16
3.17704e+16
3.17011e+16
3.15432e+16
3.14167e+16
3.15739e+16
3.08329e+16
3.46126e+16
3.09059e+16
3.19189e+16
3.2189e+16
3.17814e+16
3.17052e+16
3.15528e+16
3.14241e+16
3.1585e+16
3.08324e+16
3.46411e+16
3.09033e+16
3.19193e+16
3.21908e+16
3.1792e+16
3.17081e+16
3.15616e+16
3.14315e+16
3.15955e+16
3.0832e+16
3.46728e+16
3.08985e+16
3.1917e+16
3.21901e+16
3.1802e+16
3.17096e+16
3.15695e+16
3.14391e+16
3.16051e+16
3.08321e+16
3.47084e+16
3.08917e+16
3.19114e+16
3.21861e+16
3.18111e+16
3.17094e+16
3.15761e+16
3.14467e+16
3.16137e+16
3.0833e+16
3.47489e+16
3.08831e+16
3.19018e+16
3.21777e+16
3.18189e+16
3.17074e+16
3.15811e+16
3.14544e+16
3.16212e+16
3.08353e+16
3.4796e+16
3.08731e+16
3.18882e+16
3.21641e+16
3.1825e+16
3.17036e+16
3.15844e+16
3.14624e+16
3.16278e+16
3.08401e+16
3.48518e+16
3.08627e+16
3.18683e+16
3.21416e+16
3.18262e+16
3.16956e+16
3.15834e+16
3.14685e+16
3.16312e+16
3.08461e+16
3.49164e+16
3.08505e+16
3.18356e+16
3.21021e+16
3.18154e+16
3.16782e+16
3.15738e+16
3.14692e+16
3.16288e+16
3.08526e+16
3.49908e+16
3.08352e+16
3.18084e+16
3.20648e+16
3.18124e+16
3.16716e+16
3.15743e+16
3.1483e+16
3.16403e+16
3.08839e+16
3.51085e+16
3.08461e+16
3.18659e+16
3.20965e+16
3.18773e+16
3.17295e+16
3.16304e+16
3.15488e+16
3.17014e+16
3.09769e+16
3.53123e+16
3.09155e+16
3.17292e+16
3.18656e+16
3.1696e+16
3.15736e+16
3.14927e+16
3.14359e+16
3.15853e+16
3.08982e+16
3.53041e+16
3.07357e+16
3.05332e+16
3.06419e+16
3.06414e+16
3.06348e+16
3.06296e+16
3.0656e+16
3.08618e+16
3.03209e+16
3.47945e+16
3.00782e+16
3.40624e+16
3.42163e+16
3.41848e+16
3.40043e+16
3.38132e+16
3.37311e+16
3.39344e+16
3.36631e+16
3.90425e+16
3.37581e+16
8.91965e+16
8.85109e+16
8.85254e+16
8.88702e+16
8.95897e+16
9.09207e+16
9.33085e+16
9.46547e+16
1.12259e+17
9.923e+16
7.63095e+16
7.46801e+16
7.365e+16
7.27875e+16
7.20282e+16
7.12755e+16
7.03106e+16
6.7091e+16
7.01083e+16
4.79967e+16
7.46275e+16
7.33704e+16
7.2865e+16
7.27032e+16
7.30328e+16
7.39415e+16
7.51507e+16
7.376e+16
7.72971e+16
5.48751e+16
7.05498e+16
6.8908e+16
6.80999e+16
6.75538e+16
6.69432e+16
6.68915e+16
6.86441e+16
6.9442e+16
7.53534e+16
5.53491e+16
6.78153e+16
6.64783e+16
6.63059e+16
6.65649e+16
6.68282e+16
6.70591e+16
6.82722e+16
6.88658e+16
7.5326e+16
5.62152e+16
6.52282e+16
6.37496e+16
6.32556e+16
6.34535e+16
6.48323e+16
6.61135e+16
6.7666e+16
6.84005e+16
7.48464e+16
5.64237e+16
6.43289e+16
6.29542e+16
6.27326e+16
6.33419e+16
6.48568e+16
6.61816e+16
6.76568e+16
6.88709e+16
7.37169e+16
5.71039e+16
6.39822e+16
6.29471e+16
6.31501e+16
6.38596e+16
6.51549e+16
6.63968e+16
6.77639e+16
6.9491e+16
7.19059e+16
5.80597e+16
6.44694e+16
6.41179e+16
6.42605e+16
6.46953e+16
6.56885e+16
6.67888e+16
6.80442e+16
6.99527e+16
6.98849e+16
5.92658e+16
6.48699e+16
6.47069e+16
6.49386e+16
6.53774e+16
6.61939e+16
6.71738e+16
6.82892e+16
7.00278e+16
6.78208e+16
6.06659e+16
6.53435e+16
6.54277e+16
6.56949e+16
6.60491e+16
6.67105e+16
6.75388e+16
6.84185e+16
6.97345e+16
6.58998e+16
6.2294e+16
6.55821e+16
6.58231e+16
6.6132e+16
6.64843e+16
6.70336e+16
6.76889e+16
6.82491e+16
6.90457e+16
6.41604e+16
6.4134e+16
6.57406e+16
6.62734e+16
6.66542e+16
6.68875e+16
6.72695e+16
6.76896e+16
6.78601e+16
6.81724e+16
6.2798e+16
6.63639e+16
6.53983e+16
6.58993e+16
6.62766e+16
6.6606e+16
6.68987e+16
6.71229e+16
6.69486e+16
6.69726e+16
6.16975e+16
6.88962e+16
6.53342e+16
6.59794e+16
6.63677e+16
6.65364e+16
6.66351e+16
6.66483e+16
6.62015e+16
6.62185e+16
6.15738e+16
7.26919e+16
6.47664e+16
6.46493e+16
6.45812e+16
6.49114e+16
6.50254e+16
6.50585e+16
6.4639e+16
6.51421e+16
6.18172e+16
7.68514e+16
6.62461e+16
6.62304e+16
6.6005e+16
6.6326e+16
6.65607e+16
6.69734e+16
6.71695e+16
6.90127e+16
6.79479e+16
8.95507e+16
7.268e+16
7.06821e+16
7.02641e+16
7.00465e+16
7.00959e+16
7.08283e+16
7.15683e+16
7.53507e+16
7.63022e+16
1.02727e+17
6.42334e+16
5.92684e+16
6.28212e+16
6.37848e+16
6.4856e+16
6.56753e+16
6.61972e+16
6.64562e+16
6.66148e+16
6.47503e+16
5.78029e+16
8.31962e+16
7.60171e+16
7.6372e+16
7.54201e+16
7.4925e+16
7.46515e+16
7.46825e+16
7.52511e+16
7.67043e+16
7.75616e+16
7.5969e+16
7.81634e+16
7.44531e+16
7.51101e+16
7.49087e+16
7.48956e+16
7.48059e+16
7.46546e+16
7.45792e+16
7.465e+16
7.35636e+16
7.13318e+16
7.97176e+16
7.69541e+16
7.69267e+16
7.64984e+16
7.6324e+16
7.62269e+16
7.62245e+16
7.64089e+16
7.67477e+16
7.61755e+16
7.52029e+16
8.05804e+16
7.86763e+16
7.84701e+16
7.81146e+16
7.79601e+16
7.78481e+16
7.77842e+16
7.7864e+16
7.8052e+16
7.75885e+16
7.71793e+16
8.13385e+16
7.98891e+16
7.95004e+16
7.91005e+16
7.88951e+16
7.87673e+16
7.87147e+16
7.87962e+16
7.89225e+16
7.85987e+16
7.85772e+16
8.22815e+16
8.11074e+16
8.06277e+16
8.02126e+16
7.99724e+16
7.98209e+16
7.9753e+16
7.9808e+16
7.99006e+16
7.96925e+16
7.98383e+16
8.32372e+16
8.22421e+16
8.17143e+16
8.1297e+16
8.10357e+16
8.08674e+16
8.07881e+16
8.08254e+16
8.09003e+16
8.07857e+16
8.10142e+16
8.41632e+16
8.3288e+16
8.27343e+16
8.23314e+16
8.20743e+16
8.191e+16
8.18278e+16
8.18433e+16
8.18973e+16
8.18384e+16
8.20924e+16
8.50423e+16
8.42371e+16
8.36383e+16
8.32183e+16
8.29429e+16
8.27734e+16
8.26949e+16
8.27129e+16
8.27662e+16
8.27536e+16
8.30175e+16
8.59743e+16
8.52383e+16
8.46075e+16
8.41674e+16
8.38645e+16
8.36773e+16
8.35917e+16
8.36073e+16
8.36645e+16
8.36924e+16
8.39688e+16
8.70231e+16
8.63741e+16
8.57396e+16
8.52957e+16
8.49719e+16
8.47656e+16
8.46675e+16
8.46756e+16
8.47369e+16
8.47976e+16
8.50784e+16
8.81943e+16
8.76574e+16
8.70664e+16
8.66643e+16
8.6358e+16
8.61535e+16
8.60439e+16
8.6028e+16
8.60739e+16
8.61443e+16
8.64082e+16
8.94194e+16
8.89863e+16
8.84472e+16
8.81004e+16
8.78317e+16
8.76491e+16
8.75416e+16
8.75048e+16
8.75265e+16
8.759e+16
8.78188e+16
9.04935e+16
9.01193e+16
8.96006e+16
8.92793e+16
8.9028e+16
8.88587e+16
8.87602e+16
8.87273e+16
8.87499e+16
8.88161e+16
8.90153e+16
9.15583e+16
9.12282e+16
9.07223e+16
9.04175e+16
9.01752e+16
9.00112e+16
8.9914e+16
8.98784e+16
8.98991e+16
8.99662e+16
9.01452e+16
9.2611e+16
9.23216e+16
9.18277e+16
9.15382e+16
9.13054e+16
9.11473e+16
9.10525e+16
9.10155e+16
9.10336e+16
9.10989e+16
9.12608e+16
9.36325e+16
9.33844e+16
9.29028e+16
9.26297e+16
9.24069e+16
9.22554e+16
9.21633e+16
9.21255e+16
9.21404e+16
9.22023e+16
9.2347e+16
9.46242e+16
9.44211e+16
9.39522e+16
9.3698e+16
9.34873e+16
9.33441e+16
9.32562e+16
9.32189e+16
9.32266e+16
9.32838e+16
9.34131e+16
9.55846e+16
9.54301e+16
9.49716e+16
9.47383e+16
9.45414e+16
9.4408e+16
9.43254e+16
9.42898e+16
9.42963e+16
9.43489e+16
9.44651e+16
9.65209e+16
9.64171e+16
9.59605e+16
9.57491e+16
9.55697e+16
9.54521e+16
9.53803e+16
9.53497e+16
9.53557e+16
9.5404e+16
9.55079e+16
9.74682e+16
9.74161e+16
9.6938e+16
9.67283e+16
9.65464e+16
9.64302e+16
9.63623e+16
9.63379e+16
9.63514e+16
9.64026e+16
9.65007e+16
9.85053e+16
9.85349e+16
9.80483e+16
9.78534e+16
9.76722e+16
9.75549e+16
9.74824e+16
9.74514e+16
9.74559e+16
9.74987e+16
9.75859e+16
9.94889e+16
9.96126e+16
9.91298e+16
9.89678e+16
9.88014e+16
9.86926e+16
9.8619e+16
9.85794e+16
9.8569e+16
9.85951e+16
9.8666e+16
1.0023e+17
1.00415e+17
9.99185e+16
9.97785e+16
9.96249e+16
9.95303e+16
9.9468e+16
9.9437e+16
9.94325e+16
9.94579e+16
9.95213e+16
1.00899e+17
1.01146e+17
1.00618e+17
1.00488e+17
1.00339e+17
1.00253e+17
1.00199e+17
1.00176e+17
1.00177e+17
1.00205e+17
1.00266e+17
1.01552e+17
1.01896e+17
1.0132e+17
1.0119e+17
1.01032e+17
1.00944e+17
1.00891e+17
1.00871e+17
1.00877e+17
1.00909e+17
1.00969e+17
1.02232e+17
1.02744e+17
1.02117e+17
1.01996e+17
1.01831e+17
1.01738e+17
1.01679e+17
1.01656e+17
1.01659e+17
1.01689e+17
1.01746e+17
1.02919e+17
1.0368e+17
1.03005e+17
1.02914e+17
1.02755e+17
1.02666e+17
1.02607e+17
1.0258e+17
1.02578e+17
1.026e+17
1.02649e+17
1.03544e+17
1.04629e+17
1.03894e+17
1.03845e+17
1.03699e+17
1.03621e+17
1.0357e+17
1.03549e+17
1.0355e+17
1.03567e+17
1.03607e+17
1.04138e+17
1.05621e+17
1.04799e+17
1.04804e+17
1.04671e+17
1.04593e+17
1.04529e+17
1.04492e+17
1.04483e+17
1.04497e+17
1.0453e+17
1.0483e+17
1.06698e+17
1.05663e+17
1.05765e+17
1.05787e+17
1.05905e+17
1.06029e+17
1.06142e+17
1.06228e+17
1.06268e+17
1.06289e+17
1.06898e+17
1.09134e+17
1.07036e+17
1.06183e+17
1.05217e+17
1.04452e+17
1.03848e+17
1.03415e+17
1.0315e+17
1.03025e+17
1.02975e+17
1.08074e+17
1.14674e+17
1.15275e+17
1.17124e+17
1.18377e+17
1.19426e+17
1.20237e+17
1.20856e+17
1.21313e+17
1.21607e+17
1.21696e+17
1.01988e+17
1.00868e+17
9.50699e+16
9.27509e+16
9.08447e+16
8.94918e+16
8.84643e+16
8.76875e+16
8.71094e+16
8.66693e+16
8.62429e+16
9.13907e+16
9.49957e+16
9.8748e+16
1.01047e+17
1.02401e+17
1.03256e+17
1.03724e+17
1.03824e+17
1.0364e+17
1.03217e+17
1.02532e+17
1.01596e+17
1.00334e+17
9.90042e+16
9.77742e+16
9.6536e+16
9.53396e+16
9.43407e+16
9.28553e+16
9.23237e+16
9.07478e+16
8.87312e+16
8.78443e+16
8.67014e+16
8.58833e+16
8.52079e+16
8.45966e+16
8.3922e+16
8.30292e+16
8.17989e+16
8.01573e+16
7.80869e+16
7.50825e+16
7.14549e+16
6.89439e+16
1.13414e+17
1.10466e+17
1.08842e+17
1.07372e+17
1.06039e+17
1.04861e+17
1.03802e+17
1.02794e+17
1.01852e+17
1.00937e+17
9.99541e+16
9.88424e+16
9.74775e+16
9.61643e+16
9.50261e+16
9.38724e+16
9.27349e+16
9.16714e+16
9.03137e+16
8.95308e+16
8.82185e+16
8.71598e+16
8.66706e+16
8.59367e+16
8.52526e+16
8.4617e+16
8.41252e+16
8.37968e+16
8.35925e+16
8.35453e+16
8.375e+16
8.43697e+16
8.51183e+16
8.58637e+16
8.78776e+16
4.26738e+16
4.30059e+16
4.27391e+16
4.23762e+16
4.20184e+16
4.16388e+16
4.12479e+16
4.08432e+16
4.04387e+16
3.99797e+16
3.93938e+16
3.87174e+16
3.80671e+16
3.76199e+16
3.72993e+16
3.69632e+16
3.66014e+16
3.62095e+16
3.57469e+16
3.53891e+16
3.50532e+16
3.47885e+16
3.47166e+16
3.47535e+16
3.484e+16
3.48687e+16
3.48489e+16
3.48332e+16
3.48173e+16
3.47811e+16
3.47296e+16
3.47992e+16
3.47414e+16
3.41315e+16
3.34334e+16
4.10769e+16
4.08229e+16
4.04599e+16
4.01998e+16
4.00077e+16
3.98405e+16
3.96889e+16
3.95304e+16
3.93823e+16
3.9259e+16
3.9142e+16
3.90297e+16
3.88878e+16
3.87369e+16
3.85826e+16
3.83906e+16
3.81808e+16
3.79636e+16
3.77394e+16
3.75371e+16
3.72371e+16
3.68684e+16
3.65625e+16
3.62463e+16
3.59312e+16
3.56158e+16
3.53216e+16
3.50451e+16
3.47604e+16
3.4468e+16
3.41626e+16
3.39133e+16
3.36214e+16
3.32553e+16
3.31452e+16
3.85662e+16
3.84078e+16
3.80357e+16
3.78012e+16
3.76185e+16
3.74444e+16
3.72734e+16
3.70925e+16
3.69157e+16
3.67349e+16
3.65314e+16
3.63195e+16
3.61094e+16
3.5937e+16
3.57665e+16
3.55645e+16
3.53438e+16
3.51105e+16
3.48658e+16
3.46211e+16
3.43609e+16
3.40805e+16
3.38579e+16
3.3678e+16
3.35077e+16
3.3327e+16
3.31347e+16
3.29476e+16
3.27537e+16
3.25536e+16
3.23401e+16
3.22064e+16
3.21077e+16
3.17885e+16
3.13727e+16
3.89556e+16
3.87442e+16
3.84291e+16
3.82474e+16
3.80875e+16
3.7924e+16
3.77546e+16
3.75739e+16
3.73963e+16
3.72164e+16
3.70229e+16
3.68252e+16
3.663e+16
3.64584e+16
3.62751e+16
3.60644e+16
3.58376e+16
3.56018e+16
3.53622e+16
3.51207e+16
3.48769e+16
3.46128e+16
3.43961e+16
3.42248e+16
3.40602e+16
3.38876e+16
3.37005e+16
3.35166e+16
3.3325e+16
3.31261e+16
3.29032e+16
3.27437e+16
3.26658e+16
3.23978e+16
3.19507e+16
3.8714e+16
3.84892e+16
3.82255e+16
3.8069e+16
3.79149e+16
3.77529e+16
3.75821e+16
3.74035e+16
3.72288e+16
3.70506e+16
3.68645e+16
3.66778e+16
3.64999e+16
3.63386e+16
3.61573e+16
3.59512e+16
3.57295e+16
3.54998e+16
3.5267e+16
3.50307e+16
3.47942e+16
3.45381e+16
3.43219e+16
3.41521e+16
3.39922e+16
3.38269e+16
3.36445e+16
3.34634e+16
3.32754e+16
3.30822e+16
3.28576e+16
3.26819e+16
3.2637e+16
3.24539e+16
3.19893e+16
3.86461e+16
3.84292e+16
3.82161e+16
3.80694e+16
3.79161e+16
3.77532e+16
3.75799e+16
3.74016e+16
3.72274e+16
3.70491e+16
3.68674e+16
3.66864e+16
3.65168e+16
3.63579e+16
3.61734e+16
3.5967e+16
3.57458e+16
3.55181e+16
3.5288e+16
3.50557e+16
3.48221e+16
3.45728e+16
3.43598e+16
3.41919e+16
3.40353e+16
3.38751e+16
3.36959e+16
3.35169e+16
3.33311e+16
3.31422e+16
3.29168e+16
3.27244e+16
3.26871e+16
3.25679e+16
3.21147e+16
3.85707e+16
3.83732e+16
3.81971e+16
3.80496e+16
3.78959e+16
3.77317e+16
3.75567e+16
3.73793e+16
3.72058e+16
3.70279e+16
3.68503e+16
3.66739e+16
3.65109e+16
3.63544e+16
3.61685e+16
3.59629e+16
3.57427e+16
3.55169e+16
3.52889e+16
3.50591e+16
3.48272e+16
3.45806e+16
3.43704e+16
3.42034e+16
3.4048e+16
3.38904e+16
3.37128e+16
3.3535e+16
3.33501e+16
3.31642e+16
3.29392e+16
3.27356e+16
3.26981e+16
3.26233e+16
3.21901e+16
3.85216e+16
3.83468e+16
3.81964e+16
3.8044e+16
3.78905e+16
3.77251e+16
3.75487e+16
3.7372e+16
3.71988e+16
3.7021e+16
3.68463e+16
3.66729e+16
3.65142e+16
3.63588e+16
3.61715e+16
3.59662e+16
3.57465e+16
3.55218e+16
3.52952e+16
3.50667e+16
3.48364e+16
3.45907e+16
3.43822e+16
3.42167e+16
3.4062e+16
3.39058e+16
3.37292e+16
3.3552e+16
3.33677e+16
3.31836e+16
3.29592e+16
3.27489e+16
3.27086e+16
3.26612e+16
3.22454e+16
3.84876e+16
3.83338e+16
3.82003e+16
3.80421e+16
3.78893e+16
3.77228e+16
3.75454e+16
3.73693e+16
3.71963e+16
3.70185e+16
3.6846e+16
3.66746e+16
3.65189e+16
3.63642e+16
3.61758e+16
3.59707e+16
3.57513e+16
3.55273e+16
3.53015e+16
3.50739e+16
3.48446e+16
3.45994e+16
3.43915e+16
3.4227e+16
3.40732e+16
3.39177e+16
3.37416e+16
3.35648e+16
3.33809e+16
3.31978e+16
3.29738e+16
3.27597e+16
3.2717e+16
3.26859e+16
3.22818e+16
3.84664e+16
3.833e+16
3.82076e+16
3.80442e+16
3.78921e+16
3.77247e+16
3.75465e+16
3.73709e+16
3.71979e+16
3.70202e+16
3.68492e+16
3.66792e+16
3.65255e+16
3.63711e+16
3.6182e+16
3.59769e+16
3.57576e+16
3.55341e+16
3.53088e+16
3.50818e+16
3.48529e+16
3.46082e+16
3.44009e+16
3.42364e+16
3.40831e+16
3.39283e+16
3.37526e+16
3.3576e+16
3.33922e+16
3.32098e+16
3.2986e+16
3.27698e+16
3.27256e+16
3.27041e+16
3.23062e+16
3.84545e+16
3.83316e+16
3.82165e+16
3.80488e+16
3.78976e+16
3.77294e+16
3.75507e+16
3.73753e+16
3.72024e+16
3.70246e+16
3.68546e+16
3.66856e+16
3.65332e+16
3.63791e+16
3.61892e+16
3.59842e+16
3.57649e+16
3.55418e+16
3.53168e+16
3.50901e+16
3.48615e+16
3.4617e+16
3.44101e+16
3.42459e+16
3.40926e+16
3.39379e+16
3.37625e+16
3.35863e+16
3.34025e+16
3.32205e+16
3.29968e+16
3.27794e+16
3.27344e+16
3.2719e+16
3.23234e+16
3.84495e+16
3.83367e+16
3.82262e+16
3.80554e+16
3.79048e+16
3.77361e+16
3.7557e+16
3.73817e+16
3.72088e+16
3.70309e+16
3.68617e+16
3.66932e+16
3.65418e+16
3.63878e+16
3.61974e+16
3.59924e+16
3.57731e+16
3.55501e+16
3.53252e+16
3.50987e+16
3.48704e+16
3.4626e+16
3.44194e+16
3.42554e+16
3.41022e+16
3.39475e+16
3.3772e+16
3.35959e+16
3.34125e+16
3.32306e+16
3.30069e+16
3.27887e+16
3.27435e+16
3.27322e+16
3.23366e+16
3.84494e+16
3.83439e+16
3.82366e+16
3.80635e+16
3.79133e+16
3.77442e+16
3.75647e+16
3.73896e+16
3.72166e+16
3.70386e+16
3.68699e+16
3.67018e+16
3.6551e+16
3.63971e+16
3.62063e+16
3.60012e+16
3.57819e+16
3.55589e+16
3.53342e+16
3.51078e+16
3.48795e+16
3.46352e+16
3.44288e+16
3.42649e+16
3.41118e+16
3.39571e+16
3.37815e+16
3.36055e+16
3.34221e+16
3.32404e+16
3.30167e+16
3.27978e+16
3.27529e+16
3.27446e+16
3.23482e+16
3.84528e+16
3.83527e+16
3.82473e+16
3.80725e+16
3.79226e+16
3.77532e+16
3.75734e+16
3.73984e+16
3.72253e+16
3.70472e+16
3.68788e+16
3.67109e+16
3.65606e+16
3.64068e+16
3.62157e+16
3.60105e+16
3.57911e+16
3.55682e+16
3.53434e+16
3.51172e+16
3.4889e+16
3.46446e+16
3.44384e+16
3.42747e+16
3.41215e+16
3.39668e+16
3.37912e+16
3.36152e+16
3.34317e+16
3.32502e+16
3.30265e+16
3.28069e+16
3.27623e+16
3.27568e+16
3.23592e+16
3.84584e+16
3.83625e+16
3.82581e+16
3.80823e+16
3.79325e+16
3.77628e+16
3.75829e+16
3.74078e+16
3.72346e+16
3.70564e+16
3.68883e+16
3.67206e+16
3.65705e+16
3.64166e+16
3.62253e+16
3.602e+16
3.58006e+16
3.55777e+16
3.53529e+16
3.51267e+16
3.48986e+16
3.46542e+16
3.4448e+16
3.42844e+16
3.41312e+16
3.39766e+16
3.3801e+16
3.36249e+16
3.34415e+16
3.326e+16
3.30363e+16
3.28161e+16
3.27718e+16
3.27687e+16
3.23704e+16
3.84653e+16
3.83729e+16
3.82689e+16
3.80926e+16
3.79427e+16
3.7773e+16
3.75927e+16
3.74176e+16
3.72443e+16
3.70661e+16
3.6898e+16
3.67304e+16
3.65806e+16
3.64267e+16
3.62352e+16
3.60298e+16
3.58103e+16
3.55874e+16
3.53627e+16
3.51364e+16
3.49083e+16
3.46638e+16
3.44577e+16
3.42942e+16
3.4141e+16
3.39864e+16
3.38107e+16
3.36346e+16
3.34513e+16
3.32699e+16
3.3046e+16
3.28253e+16
3.27812e+16
3.27803e+16
3.23821e+16
3.84729e+16
3.83839e+16
3.82797e+16
3.81031e+16
3.7953e+16
3.77833e+16
3.76027e+16
3.74276e+16
3.72542e+16
3.70759e+16
3.69079e+16
3.67404e+16
3.65906e+16
3.64368e+16
3.62451e+16
3.60396e+16
3.58201e+16
3.55972e+16
3.53724e+16
3.51462e+16
3.4918e+16
3.46735e+16
3.44673e+16
3.43039e+16
3.41508e+16
3.39962e+16
3.38204e+16
3.36443e+16
3.34609e+16
3.32797e+16
3.30557e+16
3.28345e+16
3.27907e+16
3.27915e+16
3.23944e+16
3.84804e+16
3.83954e+16
3.82903e+16
3.81137e+16
3.79635e+16
3.77935e+16
3.76128e+16
3.74376e+16
3.7264e+16
3.70858e+16
3.69177e+16
3.67504e+16
3.66007e+16
3.64468e+16
3.6255e+16
3.60494e+16
3.58298e+16
3.56068e+16
3.5382e+16
3.51558e+16
3.49276e+16
3.46831e+16
3.44769e+16
3.43135e+16
3.41605e+16
3.40058e+16
3.38301e+16
3.36538e+16
3.34704e+16
3.32892e+16
3.30652e+16
3.28437e+16
3.28e+16
3.28018e+16
3.2407e+16
3.84871e+16
3.84073e+16
3.83006e+16
3.81242e+16
3.79737e+16
3.78036e+16
3.76226e+16
3.74473e+16
3.72737e+16
3.70954e+16
3.69274e+16
3.67602e+16
3.66106e+16
3.64567e+16
3.62647e+16
3.60589e+16
3.58392e+16
3.56161e+16
3.53914e+16
3.51652e+16
3.49369e+16
3.46924e+16
3.44862e+16
3.43229e+16
3.41699e+16
3.40151e+16
3.38394e+16
3.3663e+16
3.34797e+16
3.32985e+16
3.30744e+16
3.28527e+16
3.28088e+16
3.28113e+16
3.24198e+16
3.84925e+16
3.84195e+16
3.83106e+16
3.81345e+16
3.79836e+16
3.78135e+16
3.76321e+16
3.74567e+16
3.72829e+16
3.71046e+16
3.69367e+16
3.67698e+16
3.66203e+16
3.64663e+16
3.6274e+16
3.60681e+16
3.58482e+16
3.56251e+16
3.54003e+16
3.51741e+16
3.49458e+16
3.47013e+16
3.44952e+16
3.4332e+16
3.41789e+16
3.40241e+16
3.38483e+16
3.36717e+16
3.34885e+16
3.33074e+16
3.30831e+16
3.28614e+16
3.28174e+16
3.28202e+16
3.24327e+16
3.84958e+16
3.8432e+16
3.832e+16
3.81444e+16
3.79932e+16
3.78228e+16
3.76411e+16
3.74654e+16
3.72915e+16
3.71133e+16
3.69456e+16
3.67789e+16
3.66296e+16
3.64755e+16
3.62829e+16
3.60767e+16
3.58567e+16
3.56335e+16
3.54086e+16
3.51825e+16
3.49541e+16
3.47096e+16
3.45035e+16
3.43404e+16
3.41873e+16
3.40324e+16
3.38566e+16
3.36798e+16
3.34967e+16
3.33155e+16
3.30911e+16
3.28694e+16
3.28253e+16
3.28284e+16
3.24456e+16
3.84963e+16
3.84448e+16
3.83287e+16
3.81536e+16
3.80021e+16
3.78313e+16
3.76492e+16
3.74734e+16
3.72993e+16
3.71213e+16
3.69538e+16
3.67875e+16
3.66384e+16
3.64841e+16
3.62912e+16
3.60845e+16
3.58644e+16
3.56411e+16
3.54161e+16
3.519e+16
3.49615e+16
3.47171e+16
3.45111e+16
3.4348e+16
3.41949e+16
3.40398e+16
3.38639e+16
3.36869e+16
3.35039e+16
3.33226e+16
3.30981e+16
3.28767e+16
3.28325e+16
3.28354e+16
3.2458e+16
3.84931e+16
3.84582e+16
3.83366e+16
3.8162e+16
3.80102e+16
3.78389e+16
3.76563e+16
3.74802e+16
3.7306e+16
3.71282e+16
3.6961e+16
3.67954e+16
3.66465e+16
3.6492e+16
3.62985e+16
3.60914e+16
3.58711e+16
3.56476e+16
3.54226e+16
3.51965e+16
3.49679e+16
3.47234e+16
3.45176e+16
3.43547e+16
3.42014e+16
3.40461e+16
3.387e+16
3.36928e+16
3.35098e+16
3.33285e+16
3.31039e+16
3.28828e+16
3.28386e+16
3.28412e+16
3.24696e+16
3.84853e+16
3.84721e+16
3.83434e+16
3.81693e+16
3.80174e+16
3.78454e+16
3.76621e+16
3.74856e+16
3.73113e+16
3.71338e+16
3.69672e+16
3.68023e+16
3.66539e+16
3.64991e+16
3.63048e+16
3.6097e+16
3.58763e+16
3.56527e+16
3.54276e+16
3.52015e+16
3.49728e+16
3.47283e+16
3.45226e+16
3.43599e+16
3.42064e+16
3.40508e+16
3.38745e+16
3.3697e+16
3.3514e+16
3.33327e+16
3.31078e+16
3.28874e+16
3.28433e+16
3.28454e+16
3.248e+16
3.8472e+16
3.84871e+16
3.83488e+16
3.81753e+16
3.80233e+16
3.78504e+16
3.76662e+16
3.74894e+16
3.73148e+16