/*--------------------------------*- C++ -*----------------------------------*\
| =========                 |                                                 |
| \\      /  F ield         | OpenFOAM: The Open Source CFD Toolbox           |
|  \\    /   O peration     | Version:  2406                                  |
|   \\  /    A nd           | Website:  www.openfoam.com                      |
|    \\/     M anipulation  |                                                 |
\*---------------------------------------------------------------------------*/
FoamFile
{
    version     2.0;
    format      ascii;
    arch        "LSB;label=32;scalar=64";
    class       volScalarField;
    location    "0/neutroRegion";
    object      precStar2;
}
// * * * * * * * * * * * * * * * * * * * * * * * * * * * * * * * * * * * * * //

dimensions      [0 -3 0 0 0 0 0];

internalField   nonuniform List<scalar> 
8595
(
9.34856e+16
8.02558e+16
6.42551e+16
6.06368e+16
5.73949e+16
5.60324e+16
5.57024e+16
5.54622e+16
5.52389e+16
5.50435e+16
5.47915e+16
5.46825e+16
5.316e+16
5.84771e+16
5.19727e+16
6.0252e+16
4.93837e+16
6.41724e+16
6.16492e+16
5.49687e+16
5.67305e+16
5.78614e+16
5.80075e+16
5.80995e+16
5.82441e+16
5.83562e+16
5.84295e+16
5.84789e+16
5.85109e+16
5.85279e+16
5.85328e+16
5.85284e+16
5.85168e+16
5.84997e+16
5.84786e+16
5.84548e+16
5.84295e+16
5.84034e+16
5.83775e+16
5.83527e+16
5.83297e+16
5.83101e+16
5.82955e+16
5.82881e+16
5.82911e+16
5.83095e+16
5.83508e+16
5.8427e+16
5.85547e+16
5.8771e+16
5.90843e+16
5.97806e+16
6.00265e+16
6.50074e+16
7.36718e+16
8.65952e+16
8.1493e+16
6.94432e+16
6.58693e+16
6.17986e+16
6.58415e+16
6.85819e+16
7.12577e+16
7.16222e+16
7.18524e+16
7.19344e+16
7.18708e+16
7.14657e+16
7.19326e+16
7.08427e+16
7.22151e+16
6.95769e+16
7.3248e+16
6.6208e+16
8.1445e+16
7.93934e+16
7.02743e+16
7.16271e+16
7.23479e+16
7.21323e+16
7.19187e+16
7.17672e+16
7.16072e+16
7.14411e+16
7.12874e+16
7.11512e+16
7.10315e+16
7.09268e+16
7.08355e+16
7.07558e+16
7.06855e+16
7.06228e+16
7.05661e+16
7.0514e+16
7.04651e+16
7.04177e+16
7.0371e+16
7.03233e+16
7.02731e+16
7.02185e+16
7.01568e+16
7.00844e+16
6.99962e+16
6.98847e+16
6.97392e+16
6.95413e+16
6.92761e+16
6.88638e+16
6.8484e+16
6.69698e+16
6.94788e+16
7.04398e+16
7.2339e+16
6.22327e+16
6.95633e+16
6.8091e+16
6.51389e+16
6.74468e+16
6.64619e+16
6.59165e+16
6.62425e+16
6.6567e+16
6.66989e+16
6.66107e+16
6.62641e+16
6.64553e+16
6.57748e+16
6.62309e+16
6.48351e+16
6.70941e+16
6.25259e+16
7.22075e+16
7.05336e+16
6.22854e+16
6.33636e+16
6.38807e+16
6.36748e+16
6.35685e+16
6.36141e+16
6.36856e+16
6.37514e+16
6.38113e+16
6.38624e+16
6.39022e+16
6.39304e+16
6.39484e+16
6.39572e+16
6.39584e+16
6.39533e+16
6.39432e+16
6.39294e+16
6.3913e+16
6.38952e+16
6.3877e+16
6.38594e+16
6.38438e+16
6.3832e+16
6.38262e+16
6.38294e+16
6.38457e+16
6.38809e+16
6.39434e+16
6.40429e+16
6.42023e+16
6.43942e+16
6.48468e+16
6.44757e+16
6.83337e+16
7.08581e+16
7.33813e+16
6.06681e+16
6.81421e+16
6.75696e+16
6.4695e+16
6.67487e+16
6.58084e+16
6.68214e+16
6.76641e+16
6.81553e+16
6.84272e+16
6.85261e+16
6.83063e+16
6.82139e+16
6.778e+16
6.79437e+16
6.69091e+16
6.83546e+16
6.44962e+16
7.22206e+16
7.12601e+16
6.33338e+16
6.48558e+16
6.55562e+16
6.54471e+16
6.53717e+16
6.53558e+16
6.53241e+16
6.52743e+16
6.52216e+16
6.51705e+16
6.51211e+16
6.5074e+16
6.50294e+16
6.49871e+16
6.4947e+16
6.49089e+16
6.48724e+16
6.48373e+16
6.48029e+16
6.47693e+16
6.47365e+16
6.47039e+16
6.46711e+16
6.46379e+16
6.46038e+16
6.4568e+16
6.45303e+16
6.44897e+16
6.44462e+16
6.43983e+16
6.43569e+16
6.4284e+16
6.44198e+16
6.36988e+16
6.73065e+16
6.97622e+16
7.23987e+16
5.87137e+16
6.82322e+16
6.74258e+16
6.43503e+16
6.66084e+16
6.39102e+16
6.55822e+16
6.72683e+16
6.80896e+16
6.83527e+16
6.83293e+16
6.8084e+16
6.78796e+16
6.74684e+16
6.74355e+16
6.65785e+16
6.75698e+16
6.41401e+16
7.01774e+16
6.9958e+16
6.19032e+16
6.33709e+16
6.39654e+16
6.3762e+16
6.36421e+16
6.36336e+16
6.36334e+16
6.36261e+16
6.36186e+16
6.36106e+16
6.36003e+16
6.35872e+16
6.35714e+16
6.35534e+16
6.35333e+16
6.35114e+16
6.3488e+16
6.34636e+16
6.34385e+16
6.3413e+16
6.33874e+16
6.3362e+16
6.33375e+16
6.33145e+16
6.32934e+16
6.32756e+16
6.32626e+16
6.32561e+16
6.32593e+16
6.32741e+16
6.3314e+16
6.33381e+16
6.3584e+16
6.29423e+16
6.66383e+16
6.90065e+16
7.18448e+16
5.75246e+16
6.85197e+16
6.754e+16
6.37368e+16
6.65753e+16
6.46074e+16
6.62232e+16
6.76961e+16
6.84186e+16
6.85628e+16
6.83814e+16
6.8017e+16
6.76753e+16
6.72254e+16
6.70473e+16
6.62668e+16
6.69283e+16
6.37431e+16
6.85775e+16
6.91223e+16
6.09419e+16
6.2531e+16
6.32015e+16
6.30141e+16
6.29097e+16
6.29079e+16
6.29033e+16
6.28864e+16
6.28678e+16
6.28484e+16
6.28273e+16
6.28043e+16
6.27797e+16
6.27539e+16
6.2727e+16
6.26994e+16
6.26713e+16
6.26428e+16
6.26143e+16
6.25859e+16
6.25578e+16
6.253e+16
6.25031e+16
6.24774e+16
6.24531e+16
6.24314e+16
6.24132e+16
6.23998e+16
6.23946e+16
6.23994e+16
6.24298e+16
6.2447e+16
6.27034e+16
6.20751e+16
6.58497e+16
6.81937e+16
7.13592e+16
5.66218e+16
6.95638e+16
6.79059e+16
6.37443e+16
6.53799e+16
6.60899e+16
6.79205e+16
6.89112e+16
6.91028e+16
6.88008e+16
6.82902e+16
6.77118e+16
6.72068e+16
6.66852e+16
6.63918e+16
6.56457e+16
6.60729e+16
6.30642e+16
6.70203e+16
6.83001e+16
5.99478e+16
6.16233e+16
6.23513e+16
6.21593e+16
6.20628e+16
6.20768e+16
6.20833e+16
6.20747e+16
6.20627e+16
6.20483e+16
6.20309e+16
6.20109e+16
6.19887e+16
6.19648e+16
6.19398e+16
6.19138e+16
6.18872e+16
6.18601e+16
6.18328e+16
6.18056e+16
6.17788e+16
6.17526e+16
6.17271e+16
6.17032e+16
6.16812e+16
6.16619e+16
6.16468e+16
6.16378e+16
6.16379e+16
6.16492e+16
6.16878e+16
6.17131e+16
6.19872e+16
6.13578e+16
6.5203e+16
6.74605e+16
7.09628e+16
5.58516e+16
6.77257e+16
6.67501e+16
6.46965e+16
6.70528e+16
6.91839e+16
7.02039e+16
7.0105e+16
6.9422e+16
6.85304e+16
6.76526e+16
6.68683e+16
6.624e+16
6.56746e+16
6.53208e+16
6.46151e+16
6.48988e+16
6.20642e+16
6.54436e+16
6.74317e+16
5.89222e+16
6.06729e+16
6.14059e+16
6.1134e+16
6.09975e+16
6.09962e+16
6.09972e+16
6.09907e+16
6.09853e+16
6.09795e+16
6.09712e+16
6.09598e+16
6.09454e+16
6.09282e+16
6.09087e+16
6.08872e+16
6.08642e+16
6.084e+16
6.0815e+16
6.07897e+16
6.07642e+16
6.07392e+16
6.0715e+16
6.06921e+16
6.06713e+16
6.06537e+16
6.06406e+16
6.06342e+16
6.06377e+16
6.06537e+16
6.06991e+16
6.07311e+16
6.10222e+16
6.03908e+16
6.431e+16
6.64367e+16
7.04851e+16
5.50955e+16
8.48615e+16
7.62278e+16
7.47395e+16
7.4693e+16
7.34349e+16
7.17614e+16
7.00265e+16
6.84526e+16
6.71298e+16
6.60782e+16
6.52641e+16
6.46691e+16
6.418e+16
6.38698e+16
6.32402e+16
6.344e+16
6.08529e+16
6.40195e+16
6.65443e+16
5.80794e+16
6.01305e+16
6.1097e+16
6.09428e+16
6.08685e+16
6.08871e+16
6.0881e+16
6.08547e+16
6.08249e+16
6.07944e+16
6.07631e+16
6.07315e+16
6.07001e+16
6.06692e+16
6.06387e+16
6.06087e+16
6.05791e+16
6.055e+16
6.05214e+16
6.04936e+16
6.04664e+16
6.044e+16
6.04147e+16
6.03908e+16
6.03688e+16
6.03496e+16
6.03344e+16
6.0325e+16
6.03251e+16
6.03377e+16
6.03826e+16
6.04178e+16
6.07375e+16
6.01114e+16
6.42259e+16
6.62337e+16
7.05907e+16
5.44836e+16
1.0484e+17
8.07519e+16
7.70102e+16
7.40526e+16
7.12666e+16
6.89045e+16
6.69621e+16
6.54129e+16
6.42005e+16
6.32651e+16
6.25453e+16
6.20127e+16
6.15932e+16
6.13697e+16
6.09862e+16
6.14477e+16
5.96493e+16
6.31376e+16
6.53975e+16
5.67592e+16
5.84812e+16
5.91615e+16
5.8903e+16
5.88339e+16
5.8898e+16
5.89558e+16
5.8998e+16
5.90322e+16
5.90575e+16
5.9073e+16
5.90795e+16
5.90785e+16
5.90712e+16
5.90588e+16
5.90422e+16
5.90227e+16
5.9001e+16
5.89777e+16
5.89536e+16
5.89295e+16
5.89059e+16
5.88838e+16
5.8864e+16
5.88476e+16
5.88363e+16
5.88324e+16
5.88387e+16
5.88594e+16
5.88976e+16
5.89717e+16
5.90329e+16
5.93749e+16
5.87353e+16
6.28159e+16
6.47182e+16
7.01799e+16
5.4628e+16
3.87322e+16
3.8101e+16
3.85199e+16
3.91197e+16
3.97485e+16
4.05592e+16
4.169e+16
4.35894e+16
4.53927e+16
6.05542e+16
5.10363e+16
5.04806e+16
4.95739e+16
4.94784e+16
4.93989e+16
4.95995e+16
5.01063e+16
5.13377e+16
5.18685e+16
6.51825e+16
4.76204e+16
4.82123e+16
4.742e+16
4.74967e+16
4.73156e+16
4.73528e+16
4.75886e+16
4.85318e+16
4.97302e+16
5.52566e+16
4.7771e+16
4.80083e+16
4.69604e+16
4.67524e+16
4.63317e+16
4.61352e+16
4.60093e+16
4.6451e+16
4.85429e+16
4.77133e+16
4.48441e+16
4.51316e+16
4.43536e+16
4.42241e+16
4.38676e+16
4.37071e+16
4.3587e+16
4.36941e+16
4.65468e+16
4.40109e+16
4.5577e+16
4.58037e+16
4.50205e+16
4.48515e+16
4.4455e+16
4.42544e+16
4.41209e+16
4.38944e+16
4.74162e+16
4.38804e+16
4.54849e+16
4.57117e+16
4.49551e+16
4.47839e+16
4.43823e+16
4.41675e+16
4.40622e+16
4.35957e+16
4.75437e+16
4.34259e+16
4.5545e+16
4.57729e+16
4.50197e+16
4.48431e+16
4.44341e+16
4.42038e+16
4.41243e+16
4.34891e+16
4.77207e+16
4.32507e+16
4.55643e+16
4.57982e+16
4.50461e+16
4.48678e+16
4.44558e+16
4.42151e+16
4.41571e+16
4.34115e+16
4.78227e+16
4.31416e+16
4.55867e+16
4.58258e+16
4.50727e+16
4.48934e+16
4.44799e+16
4.42315e+16
4.41894e+16
4.33721e+16
4.78984e+16
4.30903e+16
4.56066e+16
4.58497e+16
4.50954e+16
4.49155e+16
4.45016e+16
4.42476e+16
4.4217e+16
4.33529e+16
4.79544e+16
4.30697e+16
4.56261e+16
4.58723e+16
4.51167e+16
4.49364e+16
4.45228e+16
4.42643e+16
4.42424e+16
4.33464e+16
4.79996e+16
4.30679e+16
4.56452e+16
4.58938e+16
4.51373e+16
4.49563e+16
4.45435e+16
4.42812e+16
4.42664e+16
4.33468e+16
4.8039e+16
4.30766e+16
4.56642e+16
4.59149e+16
4.51575e+16
4.49758e+16
4.45641e+16
4.42981e+16
4.42899e+16
4.33507e+16
4.80755e+16
4.30912e+16
4.5683e+16
4.59359e+16
4.51775e+16
4.4995e+16
4.45848e+16
4.43152e+16
4.43133e+16
4.33561e+16
4.8111e+16
4.31086e+16
4.57017e+16
4.59568e+16
4.51977e+16
4.50139e+16
4.46056e+16
4.43322e+16
4.43368e+16
4.33617e+16
4.81466e+16
4.31272e+16
4.57202e+16
4.59775e+16
4.5218e+16
4.50327e+16
4.46267e+16
4.4349e+16
4.43606e+16
4.33668e+16
4.81831e+16
4.31456e+16
4.57388e+16
4.5998e+16
4.52386e+16
4.50514e+16
4.46478e+16
4.43657e+16
4.43847e+16
4.3371e+16
4.82208e+16
4.31633e+16
4.57575e+16
4.60181e+16
4.52595e+16
4.50697e+16
4.46692e+16
4.43824e+16
4.44092e+16
4.33743e+16
4.82599e+16
4.31798e+16
4.57763e+16
4.60377e+16
4.52809e+16
4.50877e+16
4.46907e+16
4.43989e+16
4.44339e+16
4.33767e+16
4.83003e+16
4.31948e+16
4.57948e+16
4.60563e+16
4.53028e+16
4.51053e+16
4.47124e+16
4.44154e+16
4.44586e+16
4.33785e+16
4.83421e+16
4.32081e+16
4.58127e+16
4.60742e+16
4.53248e+16
4.51222e+16
4.47342e+16
4.44319e+16
4.44833e+16
4.338e+16
4.8385e+16
4.32197e+16
4.58297e+16
4.60912e+16
4.53469e+16
4.51382e+16
4.47557e+16
4.44484e+16
4.45076e+16
4.33819e+16
4.84288e+16
4.32295e+16
4.58455e+16
4.61071e+16
4.53689e+16
4.51534e+16
4.47769e+16
4.44648e+16
4.45311e+16
4.33851e+16
4.84727e+16
4.32375e+16
4.58594e+16
4.61216e+16
4.53907e+16
4.51675e+16
4.47976e+16
4.44811e+16
4.45542e+16
4.33897e+16
4.85161e+16
4.32439e+16
4.58709e+16
4.61342e+16
4.54121e+16
4.51802e+16
4.48175e+16
4.44973e+16
4.45767e+16
4.33951e+16
4.85602e+16
4.32488e+16
4.58795e+16
4.61445e+16
4.54327e+16
4.51911e+16
4.48364e+16
4.45131e+16
4.45982e+16
4.34003e+16
4.8607e+16
4.32516e+16
4.58842e+16
4.61513e+16
4.54522e+16
4.51996e+16
4.48537e+16
4.45286e+16
4.46183e+16
4.34054e+16
4.86582e+16
4.32514e+16
4.5884e+16
4.61536e+16
4.54699e+16
4.52054e+16
4.48688e+16
4.45437e+16
4.46367e+16
4.34107e+16
4.87147e+16
4.32482e+16
4.58777e+16
4.61497e+16
4.54851e+16
4.52075e+16
4.4881e+16
4.45578e+16
4.46529e+16
4.34167e+16
4.87778e+16
4.32422e+16
4.58641e+16
4.6138e+16
4.54967e+16
4.52056e+16
4.48896e+16
4.45709e+16
4.46667e+16
4.34241e+16
4.88497e+16
4.32343e+16
4.58423e+16
4.61165e+16
4.55036e+16
4.51989e+16
4.48938e+16
4.45828e+16
4.46777e+16
4.34338e+16
4.89332e+16
4.32256e+16
4.58085e+16
4.60791e+16
4.55007e+16
4.51834e+16
4.48893e+16
4.45897e+16
4.46824e+16
4.34441e+16
4.9028e+16
4.32139e+16
4.57521e+16
4.60132e+16
4.54764e+16
4.51506e+16
4.48689e+16
4.45857e+16
4.46763e+16
4.34531e+16
4.91356e+16
4.31976e+16
4.56979e+16
4.59446e+16
4.54575e+16
4.51277e+16
4.48579e+16
4.4596e+16
4.46864e+16
4.34946e+16
4.93023e+16
4.32173e+16
4.57574e+16
4.59666e+16
4.55274e+16
4.51887e+16
4.49187e+16
4.46735e+16
4.47613e+16
4.36193e+16
4.95874e+16
4.33183e+16
4.55267e+16
4.56005e+16
4.52338e+16
4.4934e+16
4.46936e+16
4.44889e+16
4.45784e+16
4.34968e+16
4.95712e+16
4.30687e+16
4.37609e+16
4.37986e+16
4.36788e+16
4.35504e+16
4.34255e+16
4.33481e+16
4.35285e+16
4.26653e+16
4.8846e+16
4.2148e+16
4.87423e+16
4.88279e+16
4.86486e+16
4.82609e+16
4.7865e+16
4.76322e+16
4.78118e+16
4.73347e+16
5.47909e+16
4.73034e+16
5.09045e+16
5.03624e+16
5.02265e+16
5.0288e+16
5.05735e+16
5.12171e+16
5.24696e+16
5.31499e+16
6.29523e+16
5.55981e+16
4.31226e+16
4.20291e+16
4.1301e+16
4.06987e+16
4.01871e+16
3.97102e+16
3.91482e+16
3.7339e+16
3.89924e+16
2.66694e+16
4.16661e+16
4.07457e+16
4.03018e+16
4.01093e+16
4.02447e+16
4.0725e+16
4.13652e+16
4.06293e+16
4.26947e+16
3.03991e+16
3.87478e+16
3.76065e+16
3.70197e+16
3.66721e+16
3.6316e+16
3.63258e+16
3.74129e+16
3.8023e+16
4.14777e+16
3.06062e+16
3.65478e+16
3.56026e+16
3.53987e+16
3.54992e+16
3.57308e+16
3.60608e+16
3.69802e+16
3.75708e+16
4.13776e+16
3.1048e+16
3.45913e+16
3.36245e+16
3.32632e+16
3.34144e+16
3.43905e+16
3.53903e+16
3.6555e+16
3.72584e+16
4.10731e+16
3.11404e+16
3.38542e+16
3.29576e+16
3.25049e+16
3.32259e+16
3.43763e+16
3.5415e+16
3.65381e+16
3.75005e+16
4.04281e+16
3.14942e+16
3.3653e+16
3.29601e+16
3.30516e+16
3.36276e+16
3.4609e+16
3.55757e+16
3.66162e+16
3.78394e+16
3.94144e+16
3.19986e+16
3.40146e+16
3.37626e+16
3.38617e+16
3.42344e+16
3.49995e+16
3.58527e+16
3.68008e+16
3.80965e+16
3.82881e+16
3.26386e+16
3.4349e+16
3.42402e+16
3.44013e+16
3.47513e+16
3.53788e+16
3.61299e+16
3.69684e+16
3.81422e+16
3.7139e+16
3.33821e+16
3.47103e+16
3.47612e+16
3.49506e+16
3.5242e+16
3.57546e+16
3.63907e+16
3.70693e+16
3.79837e+16
3.60679e+16
3.42468e+16
3.49284e+16
3.50843e+16
3.53032e+16
3.55837e+16
3.60119e+16
3.65254e+16
3.70009e+16
3.76051e+16
3.50946e+16
3.52223e+16
3.50845e+16
3.54131e+16
3.56765e+16
3.58862e+16
3.62054e+16
3.6567e+16
3.68047e+16
3.71203e+16
3.43246e+16
3.64041e+16
3.49547e+16
3.52794e+16
3.55446e+16
3.57994e+16
3.60545e+16
3.62883e+16
3.63152e+16
3.64512e+16
3.36931e+16
3.7741e+16
3.49565e+16
3.53713e+16
3.56463e+16
3.58087e+16
3.59459e+16
3.60471e+16
3.59053e+16
3.60169e+16
3.3587e+16
3.97529e+16
3.46658e+16
3.46827e+16
3.47122e+16
3.49558e+16
3.50892e+16
3.51843e+16
3.50379e+16
3.53931e+16
3.36655e+16
4.19354e+16
3.54442e+16
3.55457e+16
3.55028e+16
3.57362e+16
3.59195e+16
3.6201e+16
3.63669e+16
3.74255e+16
3.69057e+16
4.86979e+16
3.86007e+16
3.76451e+16
3.75112e+16
3.74767e+16
3.75754e+16
3.80302e+16
3.84825e+16
4.05664e+16
4.11237e+16
5.54106e+16
3.62904e+16
3.34429e+16
3.54274e+16
3.59622e+16
3.65633e+16
3.70265e+16
3.73252e+16
3.74771e+16
3.75721e+16
3.65255e+16
3.26106e+16
4.71729e+16
4.30344e+16
4.31989e+16
4.26418e+16
4.23527e+16
4.21958e+16
4.22165e+16
4.25446e+16
4.33744e+16
4.3869e+16
4.29774e+16
4.44709e+16
4.2286e+16
4.26161e+16
4.24774e+16
4.24564e+16
4.23999e+16
4.23151e+16
4.22792e+16
4.23298e+16
4.17283e+16
4.04793e+16
4.55052e+16
4.38492e+16
4.3787e+16
4.35164e+16
4.34023e+16
4.33406e+16
4.33395e+16
4.34506e+16
4.36543e+16
4.33447e+16
4.28117e+16
4.6153e+16
4.4976e+16
4.48043e+16
4.4569e+16
4.4462e+16
4.43891e+16
4.43513e+16
4.44028e+16
4.45216e+16
4.42749e+16
4.40659e+16
4.67344e+16
4.58086e+16
4.55257e+16
4.52594e+16
4.51195e+16
4.50349e+16
4.5002e+16
4.50538e+16
4.5138e+16
4.49717e+16
4.49868e+16
4.74193e+16
4.66434e+16
4.63014e+16
4.60208e+16
4.58572e+16
4.57566e+16
4.57134e+16
4.57492e+16
4.58144e+16
4.57148e+16
4.5828e+16
4.81126e+16
4.74324e+16
4.70553e+16
4.67674e+16
4.65874e+16
4.64744e+16
4.64231e+16
4.64481e+16
4.65032e+16
4.64579e+16
4.66204e+16
4.87913e+16
4.81747e+16
4.77756e+16
4.74893e+16
4.73067e+16
4.71926e+16
4.71377e+16
4.71493e+16
4.71926e+16
4.71797e+16
4.73586e+16
4.9445e+16
4.88666e+16
4.84363e+16
4.81342e+16
4.79357e+16
4.78144e+16
4.77591e+16
4.77712e+16
4.7814e+16
4.78284e+16
4.80145e+16
5.01314e+16
4.95943e+16
4.91439e+16
4.88269e+16
4.86089e+16
4.84744e+16
4.84127e+16
4.84224e+16
4.84673e+16
4.85052e+16
4.86991e+16
5.08968e+16
5.04134e+16
4.99619e+16
4.96423e+16
4.94106e+16
4.9263e+16
4.91923e+16
4.91964e+16
4.92433e+16
4.93001e+16
4.94967e+16
5.17501e+16
5.13358e+16
5.09123e+16
5.06193e+16
5.03994e+16
5.02537e+16
5.01766e+16
5.01662e+16
5.02034e+16
5.02652e+16
5.04511e+16
5.26623e+16
5.23103e+16
5.19178e+16
5.16575e+16
5.14597e+16
5.13267e+16
5.12503e+16
5.12268e+16
5.12493e+16
5.13064e+16
5.14714e+16
5.34972e+16
5.31806e+16
5.27998e+16
5.25541e+16
5.23656e+16
5.22396e+16
5.21676e+16
5.21455e+16
5.21675e+16
5.22254e+16
5.23723e+16
5.43272e+16
5.40373e+16
5.36639e+16
5.34276e+16
5.32441e+16
5.31206e+16
5.30487e+16
5.30241e+16
5.3044e+16
5.31013e+16
5.32348e+16
5.51514e+16
5.48863e+16
5.45197e+16
5.42925e+16
5.41143e+16
5.3994e+16
5.3923e+16
5.38969e+16
5.39143e+16
5.39693e+16
5.40911e+16
5.59597e+16
5.57198e+16
5.53604e+16
5.51429e+16
5.49706e+16
5.48539e+16
5.47841e+16
5.4757e+16
5.47717e+16
5.48235e+16
5.49336e+16
5.67539e+16
5.65416e+16
5.61898e+16
5.59838e+16
5.58188e+16
5.5707e+16
5.56396e+16
5.56124e+16
5.56212e+16
5.56692e+16
5.57687e+16
5.75333e+16
5.73513e+16
5.7006e+16
5.6813e+16
5.66564e+16
5.65504e+16
5.64859e+16
5.64594e+16
5.64669e+16
5.65112e+16
5.66015e+16
5.83021e+16
5.81529e+16
5.78099e+16
5.76312e+16
5.74857e+16
5.73895e+16
5.73315e+16
5.73076e+16
5.73143e+16
5.73551e+16
5.7437e+16
5.90808e+16
5.89658e+16
5.86123e+16
5.84374e+16
5.82923e+16
5.81982e+16
5.81431e+16
5.81231e+16
5.81339e+16
5.81757e+16
5.82529e+16
5.99171e+16
5.98527e+16
5.94963e+16
5.93339e+16
5.91929e+16
5.91012e+16
5.90456e+16
5.90228e+16
5.90282e+16
5.90642e+16
5.91336e+16
6.07297e+16
6.07189e+16
6.0362e+16
6.02189e+16
6.00868e+16
6.00005e+16
5.99445e+16
5.99164e+16
5.99125e+16
5.99377e+16
5.99963e+16
6.13857e+16
6.14076e+16
6.10378e+16
6.09057e+16
6.07797e+16
6.0701e+16
6.06512e+16
6.06279e+16
6.06272e+16
6.06513e+16
6.07046e+16
6.19857e+16
6.2042e+16
6.16494e+16
6.15213e+16
6.13964e+16
6.13219e+16
6.12763e+16
6.12572e+16
6.12597e+16
6.12849e+16
6.13361e+16
6.25699e+16
6.26852e+16
6.22607e+16
6.21315e+16
6.20004e+16
6.19236e+16
6.18776e+16
6.18597e+16
6.18649e+16
6.18921e+16
6.19421e+16
6.31726e+16
6.33924e+16
6.29364e+16
6.28135e+16
6.26783e+16
6.25988e+16
6.25499e+16
6.25299e+16
6.25334e+16
6.25588e+16
6.26061e+16
6.37933e+16
6.417e+16
6.36844e+16
6.35811e+16
6.345e+16
6.33736e+16
6.33247e+16
6.33027e+16
6.33025e+16
6.33229e+16
6.33646e+16
6.43908e+16
6.49739e+16
6.44526e+16
6.43772e+16
6.42556e+16
6.41874e+16
6.4144e+16
6.41256e+16
6.41267e+16
6.41433e+16
6.41791e+16
6.49871e+16
6.58281e+16
6.52553e+16
6.52172e+16
6.51061e+16
6.50388e+16
6.49882e+16
6.49607e+16
6.49558e+16
6.49695e+16
6.5e+16
6.56642e+16
6.67627e+16
6.60634e+16
6.60917e+16
6.60808e+16
6.61385e+16
6.62071e+16
6.62741e+16
6.63283e+16
6.63582e+16
6.63802e+16
6.72232e+16
6.85842e+16
6.72316e+16
6.66717e+16
6.6047e+16
6.55545e+16
6.51673e+16
6.48925e+16
6.47259e+16
6.46512e+16
6.46272e+16
6.82135e+16
7.23691e+16
7.27447e+16
7.39111e+16
7.47038e+16
7.53687e+16
7.58855e+16
7.62814e+16
7.65757e+16
7.67677e+16
7.68315e+16
6.46011e+16
6.39044e+16
6.02418e+16
5.87816e+16
5.7582e+16
5.67324e+16
5.60886e+16
5.56033e+16
5.52437e+16
5.49714e+16
5.47076e+16
5.53703e+16
5.75586e+16
5.98339e+16
6.12241e+16
6.20357e+16
6.25368e+16
6.27948e+16
6.28192e+16
6.26599e+16
6.23396e+16
6.18363e+16
6.11445e+16
6.02163e+16
5.92299e+16
5.82919e+16
5.73452e+16
5.64262e+16
5.56308e+16
5.45583e+16
5.40469e+16
5.28454e+16
5.14636e+16
5.07485e+16
4.98963e+16
4.92606e+16
4.87315e+16
4.82591e+16
4.77614e+16
4.71492e+16
4.63557e+16
4.53403e+16
4.40935e+16
4.23317e+16
4.02425e+16
3.87997e+16
6.88016e+16
6.69947e+16
6.59837e+16
6.50574e+16
6.42044e+16
6.34352e+16
6.27287e+16
6.20434e+16
6.13885e+16
6.07357e+16
6.00216e+16
5.92027e+16
5.82083e+16
5.72459e+16
5.63931e+16
5.55402e+16
5.47073e+16
5.39279e+16
5.29838e+16
5.23738e+16
5.14243e+16
5.06603e+16
5.02332e+16
4.96714e+16
4.91548e+16
4.868e+16
4.82994e+16
4.80178e+16
4.78117e+16
4.77001e+16
4.77375e+16
4.80169e+16
4.83753e+16
4.87499e+16
4.98582e+16
6.46601e+16
6.51066e+16
6.46286e+16
6.39929e+16
6.3356e+16
6.26816e+16
6.19873e+16
6.12719e+16
6.05574e+16
5.97573e+16
5.87605e+16
5.76194e+16
5.65126e+16
5.57184e+16
5.51206e+16
5.45071e+16
5.38608e+16
5.31737e+16
5.23859e+16
5.17534e+16
5.11438e+16
5.06495e+16
5.04467e+16
5.04126e+16
5.04589e+16
5.04265e+16
5.03281e+16
5.02359e+16
5.01428e+16
5.00189e+16
4.98708e+16
4.98928e+16
4.97282e+16
4.879e+16
4.77458e+16
6.21808e+16
6.17205e+16
6.10793e+16
6.05879e+16
6.01983e+16
5.98475e+16
5.95213e+16
5.9186e+16
5.88682e+16
5.85845e+16
5.83035e+16
5.80182e+16
5.76797e+16
5.73338e+16
5.69884e+16
5.65917e+16
5.61716e+16
5.57423e+16
5.53037e+16
5.48973e+16
5.4341e+16
5.36936e+16
5.31499e+16
5.26062e+16
5.20756e+16
5.15518e+16
5.10634e+16
5.06023e+16
5.01304e+16
4.96484e+16
4.91481e+16
4.87259e+16
4.82354e+16
4.76421e+16
4.74284e+16
5.83388e+16
5.80112e+16
5.73497e+16
5.68982e+16
5.65294e+16
5.61771e+16
5.58309e+16
5.54717e+16
5.51212e+16
5.47638e+16
5.43675e+16
5.39496e+16
5.35263e+16
5.31641e+16
5.28094e+16
5.24115e+16
5.19884e+16
5.1548e+16
5.10919e+16
5.06368e+16
5.01559e+16
4.96492e+16
4.92371e+16
4.89015e+16
4.85899e+16
4.82693e+16
4.79349e+16
4.76093e+16
4.72745e+16
4.69317e+16
4.65707e+16
4.6325e+16
4.61255e+16
4.56058e+16
4.49489e+16
5.88966e+16
5.84751e+16
5.78935e+16
5.7522e+16
5.71895e+16
5.68546e+16
5.65116e+16
5.61534e+16
5.58037e+16
5.54503e+16
5.5072e+16
5.46781e+16
5.42796e+16
5.39209e+16
5.35495e+16
5.31407e+16
5.27102e+16
5.22676e+16
5.18203e+16
5.13712e+16
5.09184e+16
5.04364e+16
5.00334e+16
4.97113e+16
4.94091e+16
4.91013e+16
4.87753e+16
4.84546e+16
4.81232e+16
4.77822e+16
4.74077e+16
4.71266e+16
4.69645e+16
4.65258e+16
4.58207e+16
5.85089e+16
5.8059e+16
5.75551e+16
5.72249e+16
5.69041e+16
5.6573e+16
5.6229e+16
5.58755e+16
5.55325e+16
5.51846e+16
5.48204e+16
5.44461e+16
5.40761e+16
5.37356e+16
5.33697e+16
5.29703e+16
5.25496e+16
5.21182e+16
5.16832e+16
5.1244e+16
5.08052e+16
5.03376e+16
4.99365e+16
4.96181e+16
4.93242e+16
4.90285e+16
4.87101e+16
4.83944e+16
4.80691e+16
4.77369e+16
4.73601e+16
4.7056e+16
4.69457e+16
4.66373e+16
4.59109e+16
5.83908e+16
5.79482e+16
5.75224e+16
5.72097e+16
5.68915e+16
5.65595e+16
5.62119e+16
5.58598e+16
5.55189e+16
5.51726e+16
5.48167e+16
5.44523e+16
5.40961e+16
5.37608e+16
5.33917e+16
5.29932e+16
5.25745e+16
5.21472e+16
5.17174e+16
5.12852e+16
5.0852e+16
5.03966e+16
5.00008e+16
4.96859e+16
4.93976e+16
4.911e+16
4.87968e+16
4.84845e+16
4.81627e+16
4.78369e+16
4.74589e+16
4.71302e+16
4.70325e+16
4.68213e+16
4.61181e+16
5.82672e+16
5.78521e+16
5.74845e+16
5.71725e+16
5.68545e+16
5.65206e+16
5.61703e+16
5.58202e+16
5.54814e+16
5.51369e+16
5.47881e+16
5.44317e+16
5.40864e+16
5.37555e+16
5.33853e+16
5.29889e+16
5.25725e+16
5.21489e+16
5.17231e+16
5.12954e+16
5.08654e+16
5.04151e+16
5.00244e+16
4.97113e+16
4.94251e+16
4.91418e+16
4.88312e+16
4.85208e+16
4.82006e+16
4.78792e+16
4.75018e+16
4.71566e+16
4.70592e+16
4.69147e+16
4.62467e+16
5.8188e+16
5.7807e+16
5.74801e+16
5.7162e+16
5.68445e+16
5.65086e+16
5.61562e+16
5.58076e+16
5.547e+16
5.51264e+16
5.47826e+16
5.44312e+16
5.40929e+16
5.37643e+16
5.33927e+16
5.29972e+16
5.2582e+16
5.21606e+16
5.17372e+16
5.1312e+16
5.08849e+16
5.04364e+16
5.0049e+16
4.97384e+16
4.94535e+16
4.91724e+16
4.88634e+16
4.85542e+16
4.82349e+16
4.79162e+16
4.75396e+16
4.71845e+16
4.70832e+16
4.69793e+16
4.63417e+16
5.81354e+16
5.77865e+16
5.74866e+16
5.71605e+16
5.68441e+16
5.65063e+16
5.61524e+16
5.58048e+16
5.5468e+16
5.5125e+16
5.47849e+16
5.44368e+16
5.41033e+16
5.37762e+16
5.34034e+16
5.30084e+16
5.2594e+16
5.2174e+16
5.17521e+16
5.13285e+16
5.0903e+16
5.04556e+16
5.00693e+16
4.97606e+16
4.94772e+16
4.91973e+16
4.88892e+16
4.85805e+16
4.82619e+16
4.79448e+16
4.75688e+16
4.72079e+16
4.71033e+16
4.70234e+16
4.64058e+16
5.81049e+16
5.77827e+16
5.75006e+16
5.71672e+16
5.68519e+16
5.65126e+16
5.61575e+16
5.58107e+16
5.54743e+16
5.51316e+16
5.47941e+16
5.44481e+16
5.41178e+16
5.37915e+16
5.34177e+16
5.3023e+16
5.2609e+16
5.21897e+16
5.17688e+16
5.13462e+16
5.09217e+16
5.0475e+16
5.00897e+16
4.97812e+16
4.94987e+16
4.922e+16
4.89125e+16
4.86042e+16
4.82857e+16
4.79695e+16
4.75939e+16
4.72299e+16
4.7123e+16
4.70573e+16
4.64507e+16
5.80907e+16
5.77894e+16
5.75189e+16
5.71793e+16
5.68651e+16
5.65246e+16
5.61685e+16
5.58222e+16
5.54861e+16
5.51434e+16
5.48076e+16
5.44632e+16
5.4135e+16
5.38092e+16
5.34344e+16
5.30399e+16
5.26259e+16
5.22073e+16
5.17868e+16
5.13648e+16
5.09408e+16
5.04945e+16
5.011e+16
4.98019e+16
4.95194e+16
4.92409e+16
4.8934e+16
4.86262e+16
4.83078e+16
4.79921e+16
4.76167e+16
4.72507e+16
4.71429e+16
4.7086e+16
4.64837e+16
5.80885e+16
5.78025e+16
5.75397e+16
5.71955e+16
5.68821e+16
5.65406e+16
5.61838e+16
5.58378e+16
5.55017e+16
5.5159e+16
5.48243e+16
5.44808e+16
5.41541e+16
5.38285e+16
5.3453e+16
5.30585e+16
5.26445e+16
5.22262e+16
5.1806e+16
5.13842e+16
5.09606e+16
5.05145e+16
5.01303e+16
4.98228e+16
4.95403e+16
4.92619e+16
4.89547e+16
4.86472e+16
4.83292e+16
4.80138e+16
4.76383e+16
4.72711e+16
4.7163e+16
4.7112e+16
4.65104e+16
5.80948e+16
5.78199e+16
5.75621e+16
5.72145e+16
5.69017e+16
5.65595e+16
5.6202e+16
5.58562e+16
5.552e+16
5.51772e+16
5.48433e+16
5.45003e+16
5.41745e+16
5.38492e+16
5.34731e+16
5.30784e+16
5.26644e+16
5.22461e+16
5.1826e+16
5.14044e+16
5.09809e+16
5.05349e+16
5.0151e+16
4.98437e+16
4.95613e+16
4.92829e+16
4.89756e+16
4.8668e+16
4.83501e+16
4.80351e+16
4.76594e+16
4.72913e+16
4.71834e+16
4.71369e+16
4.65343e+16
5.81071e+16
5.78403e+16
5.75857e+16
5.72355e+16
5.6923e+16
5.65802e+16
5.62222e+16
5.58764e+16
5.55402e+16
5.51972e+16
5.48637e+16
5.45211e+16
5.41959e+16
5.38706e+16
5.3494e+16
5.30993e+16
5.26851e+16
5.22668e+16
5.18467e+16
5.14253e+16
5.10018e+16
5.05557e+16
5.01721e+16
4.98649e+16
4.95825e+16
4.9304e+16
4.89967e+16
4.86892e+16
4.83711e+16
4.80562e+16
4.76805e+16
4.73113e+16
4.72039e+16
4.71613e+16
4.65574e+16
5.81234e+16
5.78626e+16
5.76097e+16
5.72579e+16
5.69455e+16
5.66023e+16
5.62438e+16
5.58979e+16
5.55615e+16
5.52184e+16
5.48852e+16
5.45428e+16
5.42179e+16
5.38926e+16
5.35156e+16
5.31207e+16
5.27064e+16
5.22881e+16
5.18679e+16
5.14465e+16
5.1023e+16
5.05768e+16
5.01933e+16
4.98863e+16
4.96038e+16
4.93254e+16
4.90179e+16
4.87103e+16
4.83923e+16
4.80774e+16
4.77016e+16
4.73314e+16
4.72245e+16
4.71853e+16
4.65808e+16
5.8142e+16
5.78862e+16
5.76339e+16
5.72813e+16
5.69687e+16
5.66252e+16
5.62662e+16
5.59203e+16
5.55836e+16
5.52404e+16
5.49072e+16
5.45649e+16
5.42404e+16
5.39149e+16
5.35376e+16
5.31425e+16
5.27281e+16
5.23097e+16
5.18895e+16
5.1468e+16
5.10445e+16
5.05982e+16
5.02145e+16
4.99076e+16
4.96252e+16
4.93468e+16
4.90391e+16
4.87314e+16
4.84135e+16
4.80986e+16
4.77226e+16
4.73515e+16
4.7245e+16
4.7209e+16
4.66047e+16
5.81618e+16
5.79108e+16
5.76583e+16
5.73053e+16
5.69922e+16
5.66485e+16
5.6289e+16
5.5943e+16
5.56061e+16
5.52627e+16
5.49295e+16
5.45873e+16
5.42629e+16
5.39374e+16
5.35598e+16
5.31645e+16
5.27499e+16
5.23314e+16
5.19111e+16
5.14896e+16
5.1066e+16
5.06195e+16
5.02358e+16
4.99289e+16
4.96466e+16
4.9368e+16
4.90603e+16
4.87525e+16
4.84345e+16
4.81198e+16
4.77436e+16
4.73718e+16
4.72656e+16
4.72321e+16
4.66295e+16
5.81816e+16
5.79362e+16
5.76823e+16
5.73292e+16
5.70158e+16
5.66718e+16
5.63118e+16
5.59656e+16
5.56285e+16
5.5285e+16
5.49518e+16
5.46097e+16
5.42853e+16
5.39598e+16
5.35819e+16
5.31863e+16
5.27716e+16
5.23529e+16
5.19325e+16
5.15109e+16
5.10872e+16
5.06407e+16
5.02569e+16
4.99501e+16
4.96677e+16
4.9389e+16
4.90814e+16
4.87733e+16
4.84552e+16
4.81406e+16
4.77642e+16
4.7392e+16
4.72858e+16
4.72538e+16
4.66546e+16
5.82001e+16
5.7962e+16
5.77058e+16
5.7353e+16
5.70391e+16
5.66947e+16
5.63342e+16
5.59877e+16
5.56505e+16
5.53069e+16
5.49737e+16
5.46318e+16
5.43075e+16
5.39818e+16
5.36036e+16
5.32077e+16
5.27928e+16
5.23739e+16
5.19535e+16
5.15318e+16
5.1108e+16
5.06614e+16
5.02775e+16
4.99708e+16
4.96884e+16
4.94096e+16
4.91019e+16
4.87936e+16
4.84755e+16
4.81609e+16
4.77844e+16
4.74117e+16
4.73054e+16
4.72744e+16
4.66799e+16
5.82163e+16
5.79882e+16
5.77287e+16
5.73764e+16
5.70617e+16
5.67171e+16
5.63559e+16
5.60091e+16
5.56716e+16
5.53281e+16
5.4995e+16
5.46533e+16
5.43291e+16
5.40033e+16
5.36246e+16
5.32284e+16
5.28132e+16
5.23941e+16
5.19736e+16
5.1552e+16
5.11279e+16
5.06813e+16
5.02975e+16
4.99908e+16
4.97084e+16
4.94295e+16
4.91216e+16
4.8813e+16
4.84951e+16
4.81804e+16
4.78036e+16
4.74308e+16
4.73244e+16
4.72939e+16
4.67052e+16
5.82291e+16
5.80146e+16
5.77506e+16
5.73988e+16
5.70836e+16
5.67384e+16
5.63766e+16
5.60294e+16
5.56916e+16
5.53482e+16
5.50153e+16
5.46739e+16
5.43499e+16
5.40239e+16
5.36448e+16
5.3248e+16
5.28326e+16
5.24133e+16
5.19926e+16
5.1571e+16
5.11468e+16
5.07001e+16
5.03164e+16
5.00097e+16
4.97272e+16
4.94482e+16
4.91403e+16
4.88313e+16
4.85135e+16
4.81987e+16
4.78217e+16
4.7449e+16
4.73423e+16
4.73122e+16
4.67304e+16
5.82371e+16
5.80411e+16
5.77711e+16
5.742e+16
5.71041e+16
5.67582e+16
5.63956e+16
5.60481e+16
5.571e+16
5.53668e+16
5.50342e+16
5.46934e+16
5.43696e+16
5.40433e+16
5.36636e+16
5.32662e+16
5.28505e+16
5.2431e+16
5.20101e+16
5.15885e+16
5.1164e+16
5.07174e+16
5.03337e+16
5.00272e+16
4.97447e+16
4.94654e+16
4.91572e+16
4.8848e+16
4.85302e+16
4.82153e+16
4.78382e+16
4.74657e+16
4.73589e+16
4.73286e+16
4.67546e+16
5.82388e+16
5.80678e+16
5.77898e+16
5.74394e+16
5.7123e+16
5.67761e+16
5.64125e+16
5.60645e+16
5.57262e+16
5.53834e+16
5.50513e+16
5.47114e+16
5.4388e+16
5.40613e+16
5.36807e+16
5.32826e+16
5.28664e+16
5.24466e+16
5.20256e+16
5.16039e+16
5.11793e+16
5.07326e+16
5.03491e+16
5.00429e+16
4.97601e+16
4.94804e+16
4.91721e+16
4.88625e+16
4.85447e+16
4.82298e+16
4.78524e+16
4.74804e+16
4.73737e+16
4.73429e+16
4.67773e+16
5.82327e+16
5.80947e+16
5.78064e+16
5.74567e+16
5.71399e+16
5.67916e+16
5.64268e+16
5.60782e+16
5.57398e+16
5.53975e+16
5.50661e+16
5.47274e+16
5.44046e+16
5.40774e+16
5.36957e+16
5.32964e+16
5.28797e+16
5.24596e+16
5.20384e+16
5.16166e+16
5.11919e+16
5.07451e+16
5.03618e+16
5.00559e+16
4.97729e+16
4.94927e+16
4.9184e+16
4.8874e+16
4.85564e+16
4.82413e+16
4.78635e+16
4.74925e+16
4.7386e+16
4.73545e+16
4.67979e+16
5.8217e+16
5.81224e+16
5.78202e+16
5.74714e+16
5.71541e+16
5.68041e+16
5.64378e+16
5.60886e+16
5.57501e+16