/*--------------------------------*- C++ -*----------------------------------*\
| =========                 |                                                 |
| \\      /  F ield         | OpenFOAM: The Open Source CFD Toolbox           |
|  \\    /   O peration     | Version:  2406                                  |
|   \\  /    A nd           | Website:  www.openfoam.com                      |
|    \\/     M anipulation  |                                                 |
\*---------------------------------------------------------------------------*/
FoamFile
{
    version     2.0;
    format      ascii;
    arch        "LSB;label=32;scalar=64";
    class       volScalarField;
    location    "0/neutroRegion";
    object      precStar7;
}
// * * * * * * * * * * * * * * * * * * * * * * * * * * * * * * * * * * * * * //

dimensions      [0 -3 0 0 0 0 0];

internalField   nonuniform List<scalar> 
8595
(
8.53833e+11
1.07301e+12
1.04624e+12
1.12407e+12
1.18614e+12
1.27654e+12
1.39542e+12
1.49262e+12
1.5571e+12
1.57633e+12
1.54755e+12
1.47714e+12
1.35894e+12
1.27411e+12
1.13081e+12
1.31018e+12
1.27963e+12
2.58379e+12
2.74043e+12
2.44165e+12
2.47608e+12
2.46338e+12
2.39869e+12
2.33082e+12
2.26675e+12
2.20293e+12
2.13921e+12
2.07624e+12
2.0143e+12
1.95355e+12
1.89411e+12
1.83611e+12
1.77961e+12
1.72467e+12
1.67131e+12
1.61955e+12
1.56938e+12
1.52078e+12
1.47374e+12
1.42823e+12
1.38421e+12
1.34168e+12
1.30059e+12
1.26095e+12
1.22273e+12
1.18597e+12
1.15071e+12
1.11705e+12
1.08513e+12
1.0554e+12
1.02767e+12
1.0062e+12
9.7678e+11
1.01824e+12
1.1017e+12
1.10976e+12
8.01948e+11
6.51725e+11
9.66535e+11
1.17256e+12
1.48868e+12
1.79549e+12
2.12233e+12
2.40998e+12
2.7252e+12
3.00729e+12
3.1781e+12
3.23449e+12
3.1782e+12
3.00974e+12
2.88955e+12
2.70921e+12
2.88489e+12
2.91993e+12
4.82731e+12
5.13274e+12
4.56694e+12
4.58288e+12
4.51977e+12
4.38004e+12
4.23587e+12
4.09831e+12
3.96395e+12
3.83336e+12
3.7077e+12
3.58717e+12
3.47159e+12
3.3607e+12
3.25423e+12
3.1519e+12
3.05344e+12
2.95858e+12
2.86711e+12
2.77881e+12
2.69349e+12
2.61096e+12
2.53105e+12
2.45358e+12
2.37838e+12
2.30526e+12
2.234e+12
2.16434e+12
2.09593e+12
2.02832e+12
1.96092e+12
1.8928e+12
1.82296e+12
1.74852e+12
1.67249e+12
1.56555e+12
1.53856e+12
1.43522e+12
1.18657e+12
7.34238e+11
6.37163e+11
9.88456e+11
1.21049e+12
1.49312e+12
1.72438e+12
2.00348e+12
2.42602e+12
2.9759e+12
3.51731e+12
3.84947e+12
4.03613e+12
4.06046e+12
3.96354e+12
3.87365e+12
3.73093e+12
3.92365e+12
3.99403e+12
5.74185e+12
6.04674e+12
5.37485e+12
5.3849e+12
5.30212e+12
5.13843e+12
4.97498e+12
4.82302e+12
4.67568e+12
4.53219e+12
4.39325e+12
4.2589e+12
4.12895e+12
4.00325e+12
3.88165e+12
3.764e+12
3.65015e+12
3.53995e+12
3.43325e+12
3.32992e+12
3.22989e+12
3.13298e+12
3.03894e+12
2.94768e+12
2.85907e+12
2.77297e+12
2.68919e+12
2.60751e+12
2.52765e+12
2.44922e+12
2.37171e+12
2.29433e+12
2.21622e+12
2.13419e+12
2.05231e+12
1.93362e+12
1.9146e+12
1.79551e+12
1.44918e+12
8.33094e+11
5.88383e+11
9.2128e+11
1.08689e+12
1.28489e+12
1.4304e+12
1.72933e+12
2.52283e+12
3.40177e+12
4.26748e+12
4.77732e+12
5.07899e+12
5.21404e+12
5.2025e+12
5.15332e+12
5.0415e+12
5.24715e+12
5.32743e+12
7.08472e+12
7.45931e+12
6.67648e+12
6.73451e+12
6.64955e+12
6.45604e+12
6.25584e+12
6.06185e+12
5.8703e+12
5.68279e+12
5.50143e+12
5.32683e+12
5.15891e+12
4.99745e+12
4.84215e+12
4.69266e+12
4.54863e+12
4.40972e+12
4.27562e+12
4.14603e+12
4.02062e+12
3.89919e+12
3.7815e+12
3.66731e+12
3.55632e+12
3.44826e+12
3.34279e+12
3.23948e+12
3.13781e+12
3.03707e+12
2.9363e+12
2.83406e+12
2.72881e+12
2.616e+12
2.50055e+12
2.33685e+12
2.29371e+12
2.13104e+12
1.67292e+12
9.14138e+11
5.41157e+11
8.41434e+11
9.3984e+11
1.03378e+12
9.82128e+11
1.50428e+12
2.84551e+12
4.01666e+12
4.97307e+12
5.67548e+12
6.12451e+12
6.36194e+12
6.42035e+12
6.40876e+12
6.32275e+12
6.53452e+12
6.58503e+12
8.24832e+12
8.68805e+12
7.73253e+12
7.79355e+12
7.6823e+12
7.44646e+12
7.21187e+12
6.98886e+12
6.77045e+12
6.55739e+12
6.35153e+12
6.1532e+12
5.96217e+12
5.77813e+12
5.60075e+12
5.42969e+12
5.26458e+12
5.10507e+12
4.95086e+12
4.80165e+12
4.65716e+12
4.51715e+12
4.38136e+12
4.24951e+12
4.12137e+12
3.99662e+12
3.8749e+12
3.75579e+12
3.63874e+12
3.52295e+12
3.40739e+12
3.29042e+12
3.17022e+12
3.04119e+12
2.9089e+12
2.7177e+12
2.66669e+12
2.46934e+12
1.90294e+12
9.98987e+11
4.88192e+11
7.62978e+11
8.07176e+11
8.3934e+11
8.15817e+11
2.04534e+12
3.56083e+12
4.96501e+12
6.10289e+12
6.93386e+12
7.4705e+12
7.76199e+12
7.85203e+12
7.84956e+12
7.76126e+12
7.95167e+12
7.92734e+12
9.45806e+12
9.97328e+12
8.82121e+12
8.90228e+12
8.78178e+12
8.51108e+12
8.24422e+12
7.98972e+12
7.73921e+12
7.49434e+12
7.25768e+12
7.02976e+12
6.81036e+12
6.59917e+12
6.39579e+12
6.19981e+12
6.01076e+12
5.82826e+12
5.6519e+12
5.48133e+12
5.31616e+12
5.1561e+12
5.00093e+12
4.85027e+12
4.70379e+12
4.56113e+12
4.42186e+12
4.28545e+12
4.15123e+12
4.01825e+12
3.88528e+12
3.75039e+12
3.61152e+12
3.46221e+12
3.30951e+12
3.08852e+12
3.03093e+12
2.80244e+12
2.13417e+12
1.08481e+12
4.44935e+11
6.83833e+11
6.88194e+11
6.71856e+11
1.62637e+12
3.32487e+12
5.08568e+12
6.61602e+12
7.81345e+12
8.6671e+12
9.20449e+12
9.48117e+12
9.54707e+12
9.50946e+12
9.37706e+12
9.50684e+12
9.35325e+12
1.07033e+13
1.12935e+13
9.90662e+12
1.00012e+13
9.86825e+12
9.55797e+12
9.25763e+12
8.97276e+12
8.69184e+12
8.41702e+12
8.15136e+12
7.89546e+12
7.64911e+12
7.41199e+12
7.18366e+12
6.96363e+12
6.75143e+12
6.54657e+12
6.34861e+12
6.15713e+12
5.97175e+12
5.79213e+12
5.61791e+12
5.44872e+12
5.2842e+12
5.12396e+12
4.9675e+12
4.81423e+12
4.66337e+12
4.51391e+12
4.36441e+12
4.21269e+12
4.05641e+12
3.8881e+12
3.71632e+12
3.46571e+12
3.40349e+12
3.14058e+12
2.37126e+12
1.17215e+12
3.897e+11
5.83126e+11
5.81213e+11
1.59829e+12
3.64161e+12
5.72594e+12
7.55641e+12
9.03433e+12
1.01411e+13
1.08978e+13
1.13421e+13
1.15307e+13
1.15128e+13
1.13908e+13
1.11664e+13
1.119e+13
1.08506e+13
1.19811e+13
1.2644e+13
1.09892e+13
1.10924e+13
1.09358e+13
1.05789e+13
1.02366e+13
9.91687e+12
9.60377e+12
9.29898e+12
9.00531e+12
8.72292e+12
8.45132e+12
8.18998e+12
7.93832e+12
7.69576e+12
7.46174e+12
7.23574e+12
7.01727e+12
6.80588e+12
6.60117e+12
6.40275e+12
6.21023e+12
6.02326e+12
5.84141e+12
5.66423e+12
5.49122e+12
5.32172e+12
5.15489e+12
4.98958e+12
4.82422e+12
4.65641e+12
4.48365e+12
4.29745e+12
4.10822e+12
3.82958e+12
3.76688e+12
3.46813e+12
2.61075e+12
1.26077e+12
4.32356e+11
5.258e+11
2.7985e+12
5.34341e+12
7.53007e+12
9.38429e+12
1.09089e+13
1.21019e+13
1.29674e+13
1.35243e+13
1.38026e+13
1.38499e+13
1.37063e+13
1.34616e+13
1.31004e+13
1.29689e+13
1.24052e+13
1.33129e+13
1.40142e+13
1.2101e+13
1.2257e+13
1.21185e+13
1.17385e+13
1.13647e+13
1.10101e+13
1.06592e+13
1.03163e+13
9.98573e+12
9.66812e+12
9.36318e+12
9.07036e+12
8.78897e+12
8.51832e+12
8.25764e+12
8.00625e+12
7.76353e+12
7.52891e+12
7.30188e+12
7.08196e+12
6.86867e+12
6.66157e+12
6.4602e+12
6.26404e+12
6.07249e+12
5.88484e+12
5.70016e+12
5.51721e+12
5.33433e+12
5.14897e+12
4.95867e+12
4.75417e+12
4.54871e+12
4.24253e+12
4.1891e+12
3.85104e+12
2.88618e+12
1.35744e+12
7.37546e+12
8.1254e+12
9.75089e+12
1.1149e+13
1.24313e+13
1.36148e+13
1.46324e+13
1.5426e+13
1.59638e+13
1.62438e+13
1.62854e+13
1.61291e+13
1.58126e+13
1.54212e+13
1.49382e+13
1.46964e+13
1.40098e+13
1.47665e+13
1.53084e+13
1.3072e+13
1.3147e+13
1.29357e+13
1.24993e+13
1.20959e+13
1.1723e+13
1.1358e+13
1.10023e+13
1.06588e+13
1.03276e+13
1.00083e+13
9.70045e+12
9.40347e+12
9.11683e+12
8.83997e+12
8.57236e+12
8.31353e+12
8.063e+12
7.8203e+12
7.58504e+12
7.35681e+12
7.13519e+12
6.91975e+12
6.71002e+12
6.50542e+12
6.30527e+12
6.10871e+12
5.91452e+12
5.72103e+12
5.5256e+12
5.32567e+12
5.11085e+12
4.89624e+12
4.56991e+12
4.52405e+12
4.16055e+12
3.15163e+12
1.48111e+12
1.50747e+12
1.36706e+12
1.27862e+12
1.20482e+12
1.13507e+12
1.07101e+12
1.01188e+12
9.62314e+11
8.94319e+11
1.03773e+12
2.91886e+12
2.65934e+12
2.39974e+12
2.19907e+12
2.00835e+12
1.8359e+12
1.67656e+12
1.53789e+12
1.37239e+12
1.47356e+12
3.53141e+12
3.29485e+12
2.97229e+12
2.7187e+12
2.45838e+12
2.21726e+12
1.98815e+12
1.78384e+12
1.58489e+12
1.45881e+12
3.82168e+12
3.5509e+12
3.19373e+12
2.90741e+12
2.6175e+12
2.35002e+12
2.09157e+12
1.85201e+12
1.66012e+12
1.31928e+12
3.78619e+12
3.53141e+12
3.19644e+12
2.91619e+12
2.6277e+12
2.3585e+12
2.09645e+12
1.83927e+12
1.66688e+12
1.26337e+12
4.01284e+12
3.74313e+12
3.3926e+12
3.09424e+12
2.78616e+12
2.49735e+12
2.2174e+12
1.92976e+12
1.76385e+12
1.30236e+12
4.15569e+12
3.88007e+12
3.52138e+12
3.21265e+12
2.89257e+12
2.59106e+12
2.30057e+12
1.99134e+12
1.83134e+12
1.33159e+12
4.30402e+12
4.02095e+12
3.65138e+12
3.33165e+12
2.99941e+12
2.68541e+12
2.38468e+12
2.05672e+12
1.89942e+12
1.36922e+12
4.44542e+12
4.15508e+12
3.77445e+12
3.44435e+12
3.1008e+12
2.77535e+12
2.46507e+12
2.12124e+12
1.96465e+12
1.40957e+12
4.58674e+12
4.28865e+12
3.89646e+12
3.55598e+12
3.20132e+12
2.86476e+12
2.545e+12
2.18692e+12
2.02962e+12
1.45278e+12
4.72934e+12
4.42304e+12
4.01893e+12
3.66797e+12
3.30221e+12
2.95469e+12
2.62538e+12
2.25401e+12
2.09506e+12
1.49823e+12
4.87464e+12
4.55971e+12
4.14331e+12
3.78165e+12
3.40467e+12
3.04612e+12
2.70708e+12
2.32286e+12
2.16166e+12
1.54571e+12
5.02348e+12
4.69955e+12
4.27047e+12
3.89781e+12
3.50939e+12
3.13963e+12
2.79063e+12
2.39364e+12
2.22986e+12
1.59508e+12
5.17646e+12
4.84317e+12
4.40101e+12
4.01703e+12
3.61688e+12
3.23563e+12
2.87643e+12
2.46651e+12
2.29997e+12
1.64625e+12
5.33399e+12
4.99103e+12
4.53535e+12
4.13968e+12
3.72749e+12
3.33442e+12
2.96474e+12
2.54158e+12
2.37221e+12
1.69921e+12
5.49637e+12
5.14341e+12
4.6738e+12
4.26602e+12
3.84148e+12
3.43619e+12
3.05576e+12
2.61895e+12
2.44673e+12
1.75394e+12
5.66383e+12
5.30055e+12
4.81659e+12
4.39629e+12
3.95903e+12
3.54113e+12
3.14965e+12
2.69869e+12
2.52369e+12
1.81045e+12
5.83656e+12
5.46262e+12
4.96389e+12
4.53064e+12
4.08029e+12
3.64935e+12
3.24653e+12
2.78091e+12
2.60319e+12
1.86879e+12
6.01473e+12
5.62973e+12
5.11585e+12
4.66918e+12
4.2054e+12
3.76098e+12
3.34651e+12
2.86566e+12
2.68533e+12
1.92897e+12
6.19845e+12
5.80198e+12
5.27261e+12
4.812e+12
4.33444e+12
3.87611e+12
3.44968e+12
2.95304e+12
2.7702e+12
1.99104e+12
6.38764e+12
5.97933e+12
5.43425e+12
4.9592e+12
4.46751e+12
3.99481e+12
3.5561e+12
3.04313e+12
2.85788e+12
2.05503e+12
6.58239e+12
6.1618e+12
5.60065e+12
5.11063e+12
4.60466e+12
4.11717e+12
3.66585e+12
3.136e+12
2.94846e+12
2.12101e+12
6.78265e+12
6.34942e+12
5.77189e+12
5.2663e+12
4.74568e+12
4.24309e+12
3.77896e+12
3.23177e+12
3.042e+12
2.18902e+12
6.98828e+12
6.54205e+12
5.94785e+12
5.42619e+12
4.89065e+12
4.37249e+12
3.89519e+12
3.33053e+12
3.13855e+12
2.25911e+12
7.19904e+12
6.73949e+12
6.12838e+12
5.59012e+12
5.03943e+12
4.5054e+12
4.01463e+12
3.432e+12
3.23815e+12
2.33139e+12
7.41456e+12
6.9414e+12
6.3132e+12
5.75781e+12
5.19179e+12
4.64165e+12
4.13718e+12
3.53618e+12
3.34074e+12
2.40591e+12
7.63428e+12
7.14722e+12
6.50187e+12
5.92884e+12
5.34741e+12
4.78101e+12
4.26263e+12
3.64301e+12
3.44633e+12
2.48265e+12
7.85739e+12
7.35616e+12
6.69371e+12
6.1026e+12
5.50575e+12
4.9231e+12
4.39067e+12
3.75233e+12
3.55507e+12
2.56139e+12
8.08273e+12
7.56703e+12
6.88777e+12
6.27819e+12
5.66605e+12
5.06736e+12
4.52085e+12
3.86392e+12
3.66692e+12
2.64208e+12
8.30861e+12
7.77814e+12
7.0826e+12
6.45433e+12
5.82721e+12
5.21294e+12
4.65248e+12
3.97739e+12
3.78175e+12
2.72462e+12
8.53277e+12
7.98715e+12
7.27619e+12
6.62921e+12
5.98766e+12
5.35863e+12
4.78463e+12
4.09221e+12
3.8994e+12
2.8089e+12
8.75204e+12
8.19075e+12
7.46562e+12
6.8003e+12
6.14518e+12
5.50269e+12
4.91591e+12
4.20756e+12
4.01955e+12
2.89476e+12
8.96135e+12
8.38354e+12
7.64607e+12
6.96339e+12
6.29608e+12
5.64211e+12
5.04395e+12
4.32192e+12
4.14136e+12
2.98169e+12
9.15227e+12
8.55684e+12
7.80976e+12
7.1119e+12
6.43475e+12
5.7724e+12
5.16524e+12
4.43306e+12
4.26362e+12
3.06898e+12
9.32045e+12
8.70626e+12
7.95264e+12
7.24236e+12
6.55806e+12
5.8912e+12
5.27858e+12
4.5415e+12
4.3885e+12
3.15879e+12
9.47544e+12
8.83609e+12
8.07656e+12
7.35499e+12
6.66483e+12
5.99691e+12
5.38297e+12
4.64794e+12
4.51841e+12
3.25345e+12
9.51111e+12
8.83204e+12
8.08081e+12
7.36648e+12
6.68593e+12
6.03153e+12
5.42821e+12
4.70856e+12
4.60845e+12
3.31703e+12
9.13184e+12
8.45929e+12
7.777e+12
7.11858e+12
6.48562e+12
5.8812e+12
5.32346e+12
4.66036e+12
4.60963e+12
3.31795e+12
1.00258e+13
9.26755e+12
8.49334e+12
7.7278e+12
7.00931e+12
6.35672e+12
5.78521e+12
5.15679e+12
5.20806e+12
3.79373e+12
9.93649e+12
8.99946e+12
8.21161e+12
7.52177e+12
6.92074e+12
6.40933e+12
5.9946e+12
5.52114e+12
5.78469e+12
4.38781e+12
6.89438e+12
5.9404e+12
5.18839e+12
4.57783e+12
4.08284e+12
3.67659e+12
3.34131e+12
2.91447e+12
2.67008e+12
1.52498e+12
4.99619e+12
4.12636e+12
3.50935e+12
3.07261e+12
2.78035e+12
2.54849e+12
2.29165e+12
2.06554e+12
2.08762e+12
1.4053e+12
2.92436e+12
2.24261e+12
1.82434e+12
1.5815e+12
1.38002e+12
1.29599e+12
1.36996e+12
1.44812e+12
1.63491e+12
1.20365e+12
1.33783e+12
9.47028e+11
7.51088e+11
6.35674e+11
6.68116e+11
7.9801e+11
9.78048e+11
1.1363e+12
1.36765e+12
1.06018e+12
4.42531e+11
3.06964e+11
2.50078e+11
2.72412e+11
3.99012e+11
5.70376e+11
7.66882e+11
9.39935e+11
1.16742e+12
9.34131e+11
1.8492e+11
1.6391e+11
1.45886e+11
2.05712e+11
3.22184e+11
4.73559e+11
6.47067e+11
8.10342e+11
9.9807e+11
8.30699e+11
1.63961e+11
1.61535e+11
1.70345e+11
2.09713e+11
2.97155e+11
4.18712e+11
5.61443e+11
7.06587e+11
8.45991e+11
7.39143e+11
1.64557e+11
1.68967e+11
1.82973e+11
2.16462e+11
2.83066e+11
3.78193e+11
4.92311e+11
6.14918e+11
7.11542e+11
6.55311e+11
1.6272e+11
1.70124e+11
1.85722e+11
2.15237e+11
2.67149e+11
3.40899e+11
4.30393e+11
5.29419e+11
5.92921e+11
5.76474e+11
1.57771e+11
1.66127e+11
1.81178e+11
2.06328e+11
2.46923e+11
3.03495e+11
3.72197e+11
4.491e+11
4.89133e+11
5.01742e+11
1.49579e+11
1.57329e+11
1.70473e+11
1.91076e+11
2.2237e+11
2.64971e+11
3.16273e+11
3.73884e+11
3.98389e+11
4.3029e+11
1.39037e+11
1.45626e+11
1.5621e+11
1.72068e+11
1.95358e+11
2.26453e+11
2.63398e+11
3.05107e+11
3.19923e+11
3.6264e+11
1.25878e+11
1.3059e+11
1.38171e+11
1.49682e+11
1.66164e+11
1.87852e+11
2.13201e+11
2.42311e+11
2.514e+11
2.97792e+11
1.11032e+11
1.14162e+11
1.19088e+11
1.26735e+11
1.375e+11
1.51653e+11
1.67942e+11
1.87438e+11
1.93168e+11
2.38034e+11
9.29085e+10
9.34433e+10
9.5449e+10
1.00223e+11
1.06494e+11
1.14873e+11
1.24382e+11
1.36723e+11
1.40595e+11
1.78713e+11
7.31087e+10
7.13906e+10
7.13145e+10
7.36802e+10
7.71017e+10
8.17111e+10
8.68091e+10
9.42021e+10
9.70399e+10
1.27442e+11
4.77496e+10
3.99139e+10
3.65841e+10
3.59416e+10
3.67813e+10
3.83398e+10
4.00719e+10
4.32874e+10
4.46637e+10
5.89162e+10
2.31156e+13
2.09852e+13
2.2379e+13
2.31815e+13
2.42161e+13
2.53089e+13
2.63992e+13
2.74357e+13
2.84276e+13
2.85035e+13
2.61653e+13
3.32398e+13
2.96901e+13
2.97824e+13
2.97711e+13
3.01627e+13
3.08074e+13
3.17058e+13
3.29133e+13
3.4546e+13
3.59343e+13
3.611e+13
3.42137e+13
3.17949e+13
3.1899e+13
3.20527e+13
3.25373e+13
3.31774e+13
3.39419e+13
3.48716e+13
3.59416e+13
3.65156e+13
3.64929e+13
3.78507e+13
3.57163e+13
3.54984e+13
3.55218e+13
3.59318e+13
3.65777e+13
3.74281e+13
3.85132e+13
3.97828e+13
4.06794e+13
4.14063e+13
4.13257e+13
3.94775e+13
3.90955e+13
3.9077e+13
3.94552e+13
4.00792e+13
4.09092e+13
4.19855e+13
4.32535e+13
4.42914e+13
4.54819e+13
4.45484e+13
4.28962e+13
4.23785e+13
4.2288e+13
4.26112e+13
4.32165e+13
4.40611e+13
4.51673e+13
4.64591e+13
4.76424e+13
4.9186e+13
4.77038e+13
4.6214e+13
4.56292e+13
4.55029e+13
4.57939e+13
4.63872e+13
4.72385e+13
4.83523e+13
4.96733e+13
5.09824e+13
5.27323e+13
5.074e+13
4.94047e+13
4.87912e+13
4.86445e+13
4.89131e+13
4.94992e+13
5.03593e+13
5.14908e+13
5.28422e+13
5.42581e+13
5.61406e+13
5.36377e+13
5.24759e+13
5.18728e+13
5.17258e+13
5.19859e+13
5.25735e+13
5.34443e+13
5.45878e+13
5.59618e+13
5.74559e+13
5.94168e+13
5.63632e+13
5.54082e+13
5.48544e+13
5.47191e+13
5.49667e+13
5.55473e+13
5.64262e+13
5.75925e+13
5.8997e+13
6.05583e+13
6.25734e+13
5.89665e+13
5.82755e+13
5.78462e+13
5.77844e+13
5.80634e+13
5.8663e+13
5.95621e+13
6.07527e+13
6.21876e+13
6.3802e+13
6.58482e+13
6.1586e+13
6.12118e+13
6.09792e+13
6.10599e+13
6.14232e+13
6.20746e+13
6.30092e+13
6.42276e+13
6.56938e+13
6.73525e+13
6.94123e+13
6.42306e+13
6.42119e+13
6.42449e+13
6.4553e+13
6.50892e+13
6.58663e+13
6.68814e+13
6.81351e+13
6.96205e+13
7.13013e+13
7.33425e+13
6.68643e+13
6.71946e+13
6.74902e+13
6.80237e+13
6.87353e+13
6.96435e+13
7.07447e+13
7.20381e+13
7.35375e+13
7.523e+13
7.72415e+13
6.90888e+13
6.97313e+13
7.02594e+13
7.09877e+13
7.18501e+13
7.28743e+13
7.4061e+13
7.54117e+13
7.69411e+13
7.86475e+13
8.06241e+13
7.08949e+13
7.18346e+13
7.25897e+13
7.35084e+13
7.45191e+13
7.5657e+13
7.69266e+13
7.8332e+13
7.98891e+13
8.16038e+13
8.35452e+13
7.22773e+13
7.3508e+13
7.44887e+13
7.55982e+13
7.67598e+13
7.80147e+13
7.93705e+13
8.08341e+13
8.24201e+13
8.41416e+13
8.60519e+13
7.32119e+13
7.47286e+13
7.59334e+13
7.72337e+13
7.8547e+13
7.99201e+13
8.13634e+13
8.28858e+13
8.45005e+13
8.62275e+13
8.8107e+13
7.36835e+13
7.54796e+13
7.69039e+13
7.83935e+13
7.9858e+13
8.13493e+13
8.28797e+13
8.44609e+13
8.60989e+13
8.78289e+13
8.96782e+13
7.36747e+13
7.57364e+13
7.73668e+13
7.90382e+13
8.06488e+13
8.22539e+13
8.38676e+13
8.55043e+13
8.71719e+13
8.89019e+13
9.07204e+13
7.3181e+13
7.54845e+13
7.72937e+13
7.91301e+13
8.08766e+13
8.25908e+13
8.42848e+13
8.59732e+13
8.76655e+13
8.93906e+13
9.1175e+13
7.22266e+13
7.47428e+13
7.66808e+13
7.86338e+13
8.04724e+13
8.2262e+13
8.40137e+13
8.57421e+13
8.74559e+13
8.91744e+13
9.09234e+13
7.08699e+13
7.36106e+13
7.56651e+13
7.77098e+13
7.96045e+13
8.14299e+13
8.32004e+13
8.49345e+13
8.66426e+13
8.83375e+13
9.00421e+13
6.895e+13
7.19498e+13
7.41529e+13
7.63149e+13
7.82829e+13
8.01529e+13
8.19428e+13
8.36759e+13
8.53657e+13
8.70246e+13
8.86763e+13
6.66126e+13
6.98345e+13
7.21702e+13
7.44384e+13
7.64753e+13
7.83904e+13
8.02039e+13
8.1943e+13
8.36232e+13
8.52543e+13
8.68596e+13
6.41087e+13
6.75116e+13
6.99458e+13
7.22958e+13
7.43852e+13
7.63333e+13
7.81614e+13
7.98988e+13
8.15628e+13
8.31635e+13
8.47256e+13
6.1456e+13
6.50083e+13
6.74939e+13
6.98904e+13
7.20043e+13
7.39644e+13
7.57922e+13
7.75176e+13
7.91582e+13
8.07234e+13
8.2239e+13
5.8592e+13
6.22786e+13
6.47736e+13
6.71807e+13
6.92826e+13
7.12207e+13
7.3018e+13
7.47069e+13
7.63056e+13
7.7822e+13
7.92826e+13
5.53016e+13
5.91137e+13
6.15941e+13
6.39979e+13
6.60756e+13
6.79807e+13
6.97365e+13
7.13769e+13
7.29217e+13
7.43768e+13
7.57708e+13
5.14878e+13
5.53799e+13
5.77991e+13
6.01656e+13
6.21926e+13
6.40435e+13
6.57417e+13
6.7322e+13
6.88036e+13
7.01945e+13
7.15117e+13
4.71061e+13
5.09939e+13
5.32837e+13
5.55627e+13
5.74944e+13
5.92475e+13
6.08472e+13
6.23318e+13
6.37242e+13
6.50382e+13
6.62654e+13
4.21261e+13
4.58213e+13
4.78606e+13
5.00097e+13
5.18643e+13
5.35704e+13
5.51317e+13
5.65717e+13
5.79047e+13
5.91376e+13
6.02639e+13
3.69469e+13
4.00931e+13
4.13861e+13
4.28581e+13
4.4091e+13
4.52453e+13
4.63336e+13
4.7383e+13
4.84099e+13
4.9418e+13
5.03546e+13
3.11431e+13
3.45671e+13
3.60588e+13
3.78004e+13
3.92925e+13
4.06774e+13
4.19576e+13
4.3155e+13
4.42852e+13
4.53511e+13
4.63281e+13
2.28939e+13
2.35305e+13
2.29554e+13
2.30858e+13
2.32573e+13
2.35271e+13
2.38541e+13
2.42298e+13
2.46484e+13
2.50992e+13
2.555e+13
1.55668e+12
1.73566e+12
1.95028e+12
2.16183e+12
2.3757e+12
2.5975e+12
2.82749e+12
3.06325e+12
3.3041e+12
3.56462e+12
3.85608e+12
4.18611e+12
4.52947e+12
4.83078e+12
5.08372e+12
5.27191e+12
5.39215e+12
5.45206e+12
5.41534e+12
5.36338e+12
5.11531e+12
4.78976e+12
4.47399e+12
4.11573e+12
3.79071e+12
3.4983e+12
3.23545e+12
2.98511e+12
2.74227e+12
2.50681e+12
2.28003e+12
2.06379e+12
1.8482e+12
1.6675e+12
1.54985e+12
3.18154e+12
3.25973e+12
3.39336e+12
3.54453e+12
3.71298e+12
3.89647e+12
4.09091e+12
4.29001e+12
4.49066e+12
4.70158e+12
4.92412e+12
5.15402e+12
5.36248e+12
5.52222e+12
5.63743e+12
5.69723e+12
5.70687e+12
5.6748e+12
5.58407e+12
5.48517e+12
5.2856e+12
5.07718e+12
4.87087e+12
4.62997e+12
4.39408e+12
4.16833e+12
3.95961e+12
3.76097e+12
3.57087e+12
3.39331e+12
3.23453e+12
3.10204e+12
2.98632e+12
2.90929e+12
2.90476e+12
4.29275e+12
4.56052e+12
4.78977e+12
5.01225e+12
5.22869e+12
5.4264e+12
5.60195e+12
5.75287e+12
5.8804e+12
5.98508e+12
6.05816e+12
6.1021e+12
6.12481e+12
6.14226e+12
6.14873e+12
6.12607e+12
6.07586e+12
5.99925e+12
5.89082e+12
5.77909e+12
5.64139e+12
5.49978e+12
5.37931e+12
5.27209e+12
5.17077e+12
5.0578e+12
4.93482e+12
4.80484e+12
4.66603e+12
4.51539e+12
4.35281e+12
4.19332e+12
4.00774e+12
3.79343e+12
3.61379e+12
4.62751e+12
4.85396e+12
5.07805e+12
5.2982e+12
5.50207e+12
5.6824e+12
5.8413e+12
5.97846e+12
6.09801e+12
6.2097e+12
6.31378e+12
6.40975e+12
6.48499e+12
6.53116e+12
6.55176e+12
6.54337e+12
6.51103e+12
6.45723e+12
6.38229e+12
6.29041e+12
6.15511e+12
5.99275e+12
5.83418e+12
5.67712e+12
5.52459e+12
5.37338e+12
5.22495e+12
5.07501e+12
4.91926e+12
4.75811e+12
4.5902e+12
4.42058e+12
4.22621e+12
4.02737e+12
3.88532e+12
4.6941e+12
4.94006e+12
5.15496e+12
5.35351e+12
5.52492e+12
5.67007e+12
5.79518e+12
5.90125e+12
5.99091e+12
6.06869e+12
6.13425e+12
6.19024e+12
6.23289e+12
6.25891e+12
6.26437e+12
6.24539e+12
6.20539e+12
6.14585e+12
6.06713e+12
5.97114e+12
5.85162e+12
5.71221e+12
5.5765e+12
5.45224e+12
5.33378e+12
5.21484e+12
5.09242e+12
4.96639e+12
4.8346e+12
4.69793e+12
4.55636e+12
4.42255e+12
4.28132e+12
4.10018e+12
3.9064e+12
5.03166e+12
5.2944e+12
5.5181e+12
5.71179e+12
5.87212e+12
6.00749e+12
6.12448e+12
6.22309e+12
6.30487e+12
6.37441e+12
6.43306e+12
6.48327e+12
6.521e+12
6.5409e+12
6.53874e+12
6.51347e+12
6.46811e+12
6.40427e+12
6.32293e+12
6.22438e+12
6.10723e+12
5.96868e+12
5.83192e+12
5.70854e+12
5.5911e+12
5.47395e+12
5.35212e+12
5.22598e+12
5.09356e+12
4.95558e+12
4.81096e+12
4.67537e+12
4.55123e+12
4.39111e+12
4.18206e+12
5.26058e+12
5.53528e+12
5.75859e+12
5.94222e+12
6.09259e+12
6.22133e+12
6.33311e+12
6.42686e+12
6.50317e+12
6.56659e+12
6.62014e+12
6.66621e+12
6.70129e+12
6.71809e+12
6.71186e+12
6.68344e+12
6.63539e+12
6.56938e+12
6.48637e+12
6.38623e+12
6.26933e+12
6.13128e+12
5.99304e+12
5.8694e+12
5.75255e+12
5.63676e+12
5.51526e+12
5.38892e+12
5.25615e+12
5.11767e+12
4.97048e+12
4.83046e+12
4.71827e+12
4.58584e+12
4.37944e+12
5.4908e+12
5.77613e+12
5.99957e+12
6.17626e+12
6.32225e+12
6.44901e+12
6.55909e+12
6.65065e+12
6.72389e+12
6.78371e+12
6.83456e+12
6.87826e+12
6.91151e+12
6.92558e+12
6.91562e+12
6.88401e+12
6.83293e+12
6.76419e+12
6.67862e+12
6.57623e+12
6.45707e+12
6.31849e+12
6.17803e+12
6.05274e+12
5.93473e+12
5.81837e+12
5.69552e+12
5.56742e+12
5.43266e+12
5.2922e+12
5.14142e+12
4.99442e+12
4.8844e+12
4.77067e+12
4.57758e+12
5.70618e+12
6.00004e+12
6.22357e+12
6.3958e+12
6.54075e+12
6.66773e+12
6.77777e+12
6.86864e+12
6.9403e+12
6.9982e+12
7.04782e+12
7.09042e+12
7.12284e+12
7.13516e+12
7.1225e+12
7.08841e+12
7.0347e+12
6.96338e+12
6.87516e+12
6.77005e+12
6.64792e+12
6.50677e+12
6.36397e+12
6.23614e+12
6.11589e+12
5.99777e+12
5.87262e+12
5.74195e+12
5.60437e+12
5.46117e+12
5.30666e+12
5.15308e+12
5.04147e+12
4.93814e+12
4.75986e+12
5.91623e+12
6.21783e+12
6.44265e+12
6.61297e+12
6.75914e+12
6.8877e+12
6.99881e+12
7.09001e+12
7.16114e+12
7.21818e+12
7.26746e+12
7.30966e+12
7.34174e+12
7.35278e+12
7.33791e+12
7.30158e+12
7.24537e+12
7.1714e+12
7.08031e+12
6.97209e+12
6.84663e+12
6.70171e+12
6.55589e+12
6.42526e+12
6.30216e+12
6.18145e+12
6.05337e+12
5.91952e+12
5.77854e+12
5.63196e+12
5.47338e+12
5.31377e+12
5.19911e+12
5.10025e+12
4.93297e+12
6.12305e+12
6.43236e+12
6.65972e+12
6.83011e+12
6.97887e+12
7.10983e+12
7.22275e+12
7.315e+12
7.38637e+12
7.44331e+12
7.49284e+12
7.53512e+12
7.56722e+12
7.57737e+12
7.56068e+12
7.52233e+12
7.46372e+12
7.38705e+12
7.29295e+12
7.18139e+12
7.05226e+12
6.90317e+12
6.75333e+12
6.61959e+12
6.49339e+12
6.36959e+12
6.23811e+12
6.10067e+12
5.95589e+12
5.80545e+12
5.64246e+12
5.47722e+12
5.35909e+12
5.26135e+12
5.1001e+12
6.3292e+12
6.64673e+12
6.87784e+12
7.04979e+12
7.20199e+12
7.33591e+12
7.45117e+12
7.54502e+12
7.61717e+12
7.67455e+12
7.72473e+12
7.76742e+12
7.79978e+12
7.8093e+12
7.79106e+12
7.75084e+12
7.68986e+12
7.61045e+12
7.51323e+12
7.39815e+12
7.26507e+12
7.11151e+12
6.95735e+12
6.81979e+12
6.69016e+12
6.56309e+12
6.42791e+12
6.28657e+12
6.13765e+12
5.98299e+12
5.81533e+12
5.64462e+12
5.5229e+12
5.4245e+12
5.26506e+12
6.53647e+12
6.863e+12
7.09882e+12
7.27345e+12
7.42965e+12
7.56696e+12
7.68497e+12
7.7808e+12
7.85418e+12
7.91237e+12
7.96344e+12
8.00682e+12
8.03962e+12
8.04872e+12
8.02911e+12
7.9871e+12
7.92376e+12
7.8416e+12
7.74115e+12
7.62238e+12
7.48514e+12
7.32687e+12
7.16812e+12
7.02653e+12
6.89306e+12
6.76227e+12
6.62327e+12
6.47786e+12
6.32455e+12
6.1654e+12
5.99278e+12
5.81662e+12
5.69125e+12
5.59125e+12
5.43069e+12
6.74628e+12
7.08266e+12
7.32399e+12
7.50216e+12
7.66274e+12
7.80377e+12
7.92485e+12
8.023e+12
8.09791e+12
8.15719e+12
8.20938e+12
8.2536e+12
8.287e+12
8.29582e+12
8.27498e+12
8.23122e+12
8.16554e+12
8.08056e+12
7.97678e+12
7.85419e+12
7.71265e+12
7.54944e+12
7.38586e+12
7.24004e+12
7.10257e+12
6.96785e+12
6.82463e+12
6.6749e+12
6.51712e+12
6.35323e+12
6.17541e+12
5.99373e+12
5.86463e+12
5.76252e+12
5.59908e+12
6.95978e+12
7.30683e+12
7.55433e+12
7.73668e+12
7.90194e+12
8.04697e+12
8.17139e+12
8.27213e+12
8.34879e+12
8.4094e+12
8.46286e+12
8.50806e+12
8.54216e+12
8.55083e+12
8.52885e+12
8.48336e+12
8.41533e+12
8.32746e+12
8.22027e+12
8.09374e+12
7.94771e+12
7.77939e+12
7.61078e+12
7.46053e+12
7.31888e+12
7.18007e+12
7.03247e+12
6.87819e+12
6.71565e+12
6.54689e+12
6.36367e+12
6.1763e+12
6.04339e+12
5.93888e+12
5.77162e+12
7.17788e+12
7.53641e+12
7.79056e+12
7.97763e+12
8.14781e+12
8.29708e+12
8.42506e+12
8.52858e+12
8.60723e+12
8.66934e+12
8.72417e+12
8.77049e+12
8.80536e+12
8.81397e+12
8.79091e+12
8.74371e+12
8.67329e+12
8.58247e+12
8.47177e+12
8.3412e+12
8.19052e+12
8.0169e+12
7.84307e+12
7.68823e+12
7.54222e+12
7.39917e+12
7.24703e+12
7.08803e+12
6.92052e+12
6.74668e+12
6.55787e+12
6.3646e+12
6.2278e+12
6.12071e+12
5.94922e+12
7.40133e+12
7.77208e+12
8.03329e+12
8.22553e+12
8.40083e+12
8.55456e+12
8.68631e+12
8.79279e+12
8.87357e+12
8.93732e+12
8.99365e+12
9.04118e+12
9.07691e+12
9.08548e+12
9.06137e+12
9.01245e+12
8.93961e+12
8.84579e+12
8.73147e+12
8.59671e+12
8.44126e+12
8.26216e+12
8.0829e+12
7.92331e+12
7.77279e+12
7.62534e+12
7.4685e+12
7.30461e+12
7.13199e+12
6.95285e+12
6.75825e+12
6.55889e+12
6.41804e+12
6.30825e+12
6.13241e+12
7.63077e+12
8.01445e+12
8.28305e+12
8.48082e+12
8.66143e+12
8.81985e+12
8.95552e+12
9.06514e+12
9.14817e+12
9.21368e+12
9.27158e+12
9.32039e+12
9.35706e+12
9.36564e+12
9.34052e+12
9.28982e+12
9.21452e+12
9.1176e+12
8.99958e+12
8.86049e+12
8.70011e+12
8.51534e+12
8.33046e+12
8.16593e+12
8.01076e+12
7.85877e+12
7.69705e+12
7.5281e+12
7.35023e+12
7.16559e+12
6.96498e+12
6.75934e+12
6.61431e+12
6.50168e+12
6.32146e+12
7.86684e+12
8.26412e+12
8.54033e+12
8.74395e+12
8.93004e+12
9.09332e+12
9.23308e+12
9.34597e+12
9.43138e+12
9.49875e+12
9.55828e+12
9.60847e+12
9.64609e+12
9.65472e+12
9.62857e+12
9.57608e+12
9.49823e+12
9.39812e+12
9.27627e+12
9.13273e+12
8.96724e+12
8.77661e+12
8.58591e+12
8.41628e+12
8.25631e+12
8.0996e+12
7.93286e+12
7.75867e+12
7.57531e+12
7.38503e+12
7.17824e+12
6.96614e+12
6.81677e+12
6.70113e+12
6.51648e+12
8.1101e+12
8.52164e+12
8.80559e+12
9.0153e+12
9.20708e+12
9.37537e+12
9.51939e+12
9.63564e+12
9.72353e+12
9.79284e+12
9.85408e+12
9.90569e+12
9.9443e+12
9.95301e+12
9.92579e+12
9.87145e+12
9.79097e+12
9.68755e+12
9.56174e+12
9.41359e+12
9.24281e+12
9.04614e+12
8.84942e+12
8.67452e+12
8.50956e+12
8.34797e+12
8.17606e+12
7.99644e+12
7.80739e+12
7.61126e+12
7.39808e+12
7.17935e+12
7.02549e+12
6.90664e+12
6.71729e+12
8.36113e+12
8.7876e+12
9.07927e+12
9.29531e+12
9.49294e+12
9.66642e+12
9.81481e+12
9.93454e+12
1.0025e+13
1.00963e+13
1.01593e+13
1.02124e+13
1.0252e+13
1.02608e+13
1.02324e+13
1.01762e+13
1.0093e+13
9.9861e+12
9.8562e+12
9.70326e+12
9.52701e+12
9.32407e+12
9.12113e+12
8.94076e+12
8.77065e+12
8.60401e+12
8.42673e+12
8.24149e+12
8.0466e+12
7.84441e+12
7.62461e+12
7.39906e+12
7.24053e+12
7.11825e+12
6.92417e+12
8.62055e+12
9.06264e+12
9.36191e+12
9.58444e+12
9.78807e+12
9.9669e+12
1.01198e+13
1.02431e+13
1.03361e+13
1.04094e+13
1.04742e+13
1.05288e+13
1.05695e+13
1.05783e+13
1.05488e+13
1.04905e+13
1.04044e+13
1.0294e+13
1.01598e+13
1.00019e+13
9.81997e+12
9.61054e+12
9.40115e+12
9.21512e+12
9.03965e+12
8.86778e+12
8.68494e+12
8.49387e+12
8.29295e+12
8.08449e+12
7.85785e+12
7.62529e+12
7.46194e+12
7.33606e+12
7.13731e+12
8.88907e+12
9.34742e+12
9.65398e+12
9.88312e+12
1.00929e+13
1.02773e+13
1.04348e+13
1.05616e+13
1.06572e+13
1.07326e+13
1.07993e+13
1.08554e+13
1.08972e+13
1.09059e+13
1.08751e+13
1.08146e+13
1.07256e+13
1.06114e+13
1.04728e+13
1.03097e+13
1.01218e+13
9.90563e+12
9.68955e+12
9.49762e+12
9.3166e+12
9.1393e+12
8.9507e+12
8.7536e+12
8.54643e+12
8.33147e+12
8.09778e+12
7.858e+12
7.68966e+12
7.56004e+12
7.35666e+12
9.16742e+12
9.64272e+12
9.95604e+12
1.01919e+13
1.0408e+13
1.05979e+13
1.07602e+13
1.08906e+13
1.09887e+13
1.10662e+13
1.11347e+13
1.11924e+13
1.12352e+13
1.12438e+13
1.12117e+13
1.11488e+13
1.10566e+13
1.09385e+13
1.07952e+13
1.06267e+13
1.04326e+13
1.02094e+13
9.98634e+12
9.78829e+12
9.60149e+12
9.41853e+12
9.22394e+12
9.02059e+12
8.80694e+12
8.58527e+12
8.34428e+12
8.09709e+12
7.9236e+12
7.79004e+12
7.58208e+12
9.45649e+12
9.94945e+12
1.02687e+13
1.05112e+13
1.07338e+13
1.09295e+13
1.10965e+13
1.12304e+13
1.13311e+13
1.14106e+13
1.14809e+13
1.15403e+13
1.15841e+13
1.15924e+13
1.15587e+13
1.14933e+13
1.13977e+13
1.12755e+13
1.11272e+13
1.09531e+13
1.07524e+13
1.05218e+13
1.02915e+13
1.00871e+13
9.89422e+12
9.70536e+12
9.50453e+12
9.29468e+12
9.07432e+12
8.84568e+12
8.59713e+12
8.34233e+12
8.16355e+12
8.02586e+12
7.81331e+12
9.75732e+12
1.02686e+13
1.05925e+13
1.08416e+13
1.1071e+13
1.12725e+13
1.14442e+13
1.15816e+13
1.16847e+13
1.17661e+13
1.18383e+13
1.18992e+13
1.1944e+13
1.1952e+13
1.19164e+13
1.18482e+13
1.1749e+13
1.16223e+13
1.14688e+13
1.12886e+13
1.10812e+13
1.08428e+13
1.06048e+13
1.03938e+13
1.01946e+13
9.99952e+12
9.79219e+12
9.57555e+12
9.34823e+12
9.11237e+12
8.85596e+12
8.59336e+12
8.40912e+12
8.26712e+12
8.04999e+12
1.00711e+13
1.06012e+13
1.09281e+13
1.11839e+13
1.14201e+13
1.16274e+13
1.18039e+13
1.19447e+13
1.20499e+13
1.21332e+13
1.22072e+13