/*--------------------------------*- C++ -*----------------------------------*\
| =========                 |                                                 |
| \\      /  F ield         | OpenFOAM: The Open Source CFD Toolbox           |
|  \\    /   O peration     | Version:  2406                                  |
|   \\  /    A nd           | Website:  www.openfoam.com                      |
|    \\/     M anipulation  |                                                 |
\*---------------------------------------------------------------------------*/
FoamFile
{
    version     2.0;
    format      ascii;
    arch        "LSB;label=32;scalar=64";
    class       volScalarField;
    location    "0/neutroRegion";
    object      precStar4;
}
// * * * * * * * * * * * * * * * * * * * * * * * * * * * * * * * * * * * * * //

dimensions      [0 -3 0 0 0 0 0];

internalField   nonuniform List<scalar> 
8595
(
2.74251e+16
2.44511e+16
1.99333e+16
1.90307e+16
1.81884e+16
1.79109e+16
1.79567e+16
1.80143e+16
1.80481e+16
1.80442e+16
1.79728e+16
1.78917e+16
1.73222e+16
1.87323e+16
1.66749e+16
1.93544e+16
1.61434e+16
2.19426e+16
2.13179e+16
1.90202e+16
1.96066e+16
1.99578e+16
1.99591e+16
1.99392e+16
1.99371e+16
1.99236e+16
1.98966e+16
1.98613e+16
1.98199e+16
1.97734e+16
1.97227e+16
1.96689e+16
1.96128e+16
1.95549e+16
1.94958e+16
1.9436e+16
1.93758e+16
1.93155e+16
1.92555e+16
1.9196e+16
1.91373e+16
1.90799e+16
1.90242e+16
1.8971e+16
1.89213e+16
1.88766e+16
1.88393e+16
1.8813e+16
1.88029e+16
1.88206e+16
1.88681e+16
1.90358e+16
1.90577e+16
2.05706e+16
2.32186e+16
2.69193e+16
2.47156e+16
2.03554e+16
2.0123e+16
1.92822e+16
2.08419e+16
2.19775e+16
2.30897e+16
2.34774e+16
2.39177e+16
2.43065e+16
2.45446e+16
2.45926e+16
2.47926e+16
2.43978e+16
2.47789e+16
2.38549e+16
2.51878e+16
2.30542e+16
2.9251e+16
2.87921e+16
2.5516e+16
2.59813e+16
2.61932e+16
2.60531e+16
2.59078e+16
2.57838e+16
2.56566e+16
2.55275e+16
2.54035e+16
2.52864e+16
2.51759e+16
2.50715e+16
2.49726e+16
2.48783e+16
2.47879e+16
2.47008e+16
2.46161e+16
2.45335e+16
2.44524e+16
2.43721e+16
2.42923e+16
2.42123e+16
2.41316e+16
2.40494e+16
2.39648e+16
2.38762e+16
2.37817e+16
2.36785e+16
2.35623e+16
2.34262e+16
2.3264e+16
2.30469e+16
2.28319e+16
2.22265e+16
2.29253e+16
2.30196e+16
2.30825e+16
1.91859e+16
2.0297e+16
2.06823e+16
2.01052e+16
2.10174e+16
2.08747e+16
2.09031e+16
2.14439e+16
2.21837e+16
2.2863e+16
2.32403e+16
2.34426e+16
2.3639e+16
2.34623e+16
2.36369e+16
2.3171e+16
2.40868e+16
2.27042e+16
2.68578e+16
2.64557e+16
2.33916e+16
2.37724e+16
2.39213e+16
2.3788e+16
2.36854e+16
2.36362e+16
2.35954e+16
2.35525e+16
2.35079e+16
2.34608e+16
2.34105e+16
2.3357e+16
2.33005e+16
2.32414e+16
2.31803e+16
2.31175e+16
2.30534e+16
2.29884e+16
2.29228e+16
2.28571e+16
2.27913e+16
2.27257e+16
2.26607e+16
2.25969e+16
2.25347e+16
2.24747e+16
2.24181e+16
2.23661e+16
2.23205e+16
2.22831e+16
2.22594e+16
2.22364e+16
2.22871e+16
2.20327e+16
2.31765e+16
2.37518e+16
2.3896e+16
1.89757e+16
1.97464e+16
2.03361e+16
1.96299e+16
2.02549e+16
1.99158e+16
2.03492e+16
2.15749e+16
2.27214e+16
2.37481e+16
2.43213e+16
2.4617e+16
2.48199e+16
2.48033e+16
2.49394e+16
2.46331e+16
2.52995e+16
2.41203e+16
2.75235e+16
2.73434e+16
2.43279e+16
2.48852e+16
2.5106e+16
2.50055e+16
2.49118e+16
2.48382e+16
2.47578e+16
2.46706e+16
2.45828e+16
2.44964e+16
2.44117e+16
2.43286e+16
2.42473e+16
2.41676e+16
2.40894e+16
2.40126e+16
2.39368e+16
2.3862e+16
2.37877e+16
2.3714e+16
2.36407e+16
2.35676e+16
2.34943e+16
2.34207e+16
2.33464e+16
2.32707e+16
2.31931e+16
2.31127e+16
2.30283e+16
2.29378e+16
2.28428e+16
2.27256e+16
2.26648e+16
2.22773e+16
2.33481e+16
2.38924e+16
2.39847e+16
1.85897e+16
1.96047e+16
2.00941e+16
1.91971e+16
1.96739e+16
1.8512e+16
1.94524e+16
2.15716e+16
2.30471e+16
2.40604e+16
2.47196e+16
2.50891e+16
2.5309e+16
2.53371e+16
2.54326e+16
2.51994e+16
2.57058e+16
2.46104e+16
2.72933e+16
2.73401e+16
2.42035e+16
2.4744e+16
2.49254e+16
2.4787e+16
2.46767e+16
2.46068e+16
2.45391e+16
2.44685e+16
2.43982e+16
2.43286e+16
2.42588e+16
2.41888e+16
2.41186e+16
2.40483e+16
2.39777e+16
2.39071e+16
2.38363e+16
2.37656e+16
2.36949e+16
2.36242e+16
2.35537e+16
2.34833e+16
2.34132e+16
2.33433e+16
2.32738e+16
2.32046e+16
2.3136e+16
2.30679e+16
2.30003e+16
2.29324e+16
2.28667e+16
2.27846e+16
2.27648e+16
2.24022e+16
2.3526e+16
2.40538e+16
2.41555e+16
1.84085e+16
1.94903e+16
1.99404e+16
1.87535e+16
1.92841e+16
1.83613e+16
2.02417e+16
2.2264e+16
2.38105e+16
2.48424e+16
2.54677e+16
2.57941e+16
2.59556e+16
2.59567e+16
2.59876e+16
2.57593e+16
2.61132e+16
2.50118e+16
2.71154e+16
2.73972e+16
2.41438e+16
2.47307e+16
2.4941e+16
2.48066e+16
2.47018e+16
2.4635e+16
2.45662e+16
2.44925e+16
2.44186e+16
2.43451e+16
2.42716e+16
2.41982e+16
2.41248e+16
2.40517e+16
2.39786e+16
2.39059e+16
2.38333e+16
2.37611e+16
2.3689e+16
2.36172e+16
2.35457e+16
2.34744e+16
2.34034e+16
2.33326e+16
2.32619e+16
2.31916e+16
2.31214e+16
2.30513e+16
2.29817e+16
2.29116e+16
2.28446e+16
2.27628e+16
2.27519e+16
2.23964e+16
2.3573e+16
2.4115e+16
2.43006e+16
1.82932e+16
1.95852e+16
1.98236e+16
1.85063e+16
1.86843e+16
1.98412e+16
2.20618e+16
2.39519e+16
2.52496e+16
2.60217e+16
2.64214e+16
2.65724e+16
2.65935e+16
2.65025e+16
2.64378e+16
2.61666e+16
2.63687e+16
2.52156e+16
2.68343e+16
2.73374e+16
2.39565e+16
2.45731e+16
2.48046e+16
2.46673e+16
2.4566e+16
2.45067e+16
2.44438e+16
2.4375e+16
2.4305e+16
2.42346e+16
2.41636e+16
2.40922e+16
2.40204e+16
2.39486e+16
2.38767e+16
2.38049e+16
2.37332e+16
2.36617e+16
2.35903e+16
2.35192e+16
2.34485e+16
2.33779e+16
2.33077e+16
2.3238e+16
2.31687e+16
2.31e+16
2.3032e+16
2.2965e+16
2.28994e+16
2.28347e+16
2.2775e+16
2.27022e+16
2.2707e+16
2.23601e+16
2.35912e+16
2.41326e+16
2.44348e+16
1.82023e+16
1.887e+16
1.92066e+16
1.85102e+16
2.01508e+16
2.27621e+16
2.48899e+16
2.6241e+16
2.69619e+16
2.72528e+16
2.72876e+16
2.71791e+16
2.70151e+16
2.68031e+16
2.66345e+16
2.63026e+16
2.63664e+16
2.51571e+16
2.64002e+16
2.71153e+16
2.36299e+16
2.42699e+16
2.45022e+16
2.43342e+16
2.42191e+16
2.41567e+16
2.40949e+16
2.40299e+16
2.39653e+16
2.39008e+16
2.38355e+16
2.37692e+16
2.37021e+16
2.36342e+16
2.35657e+16
2.34967e+16
2.34273e+16
2.33577e+16
2.32881e+16
2.32185e+16
2.3149e+16
2.30798e+16
2.3011e+16
2.29428e+16
2.28753e+16
2.28088e+16
2.27436e+16
2.26803e+16
2.26196e+16
2.25618e+16
2.25117e+16
2.24512e+16
2.24764e+16
2.2146e+16
2.34387e+16
2.39744e+16
2.45017e+16
1.81012e+16
2.33156e+16
2.13812e+16
2.35235e+16
2.60486e+16
2.75064e+16
2.82115e+16
2.83963e+16
2.82679e+16
2.79785e+16
2.76317e+16
2.72835e+16
2.69721e+16
2.66777e+16
2.64442e+16
2.60704e+16
2.60229e+16
2.48121e+16
2.58449e+16
2.67122e+16
2.32332e+16
2.3986e+16
2.43111e+16
2.41916e+16
2.41047e+16
2.40544e+16
2.39939e+16
2.39249e+16
2.38543e+16
2.3783e+16
2.37112e+16
2.36391e+16
2.3567e+16
2.34951e+16
2.34234e+16
2.3352e+16
2.32808e+16
2.32099e+16
2.31394e+16
2.30694e+16
2.29998e+16
2.29307e+16
2.28622e+16
2.27945e+16
2.27278e+16
2.26624e+16
2.25988e+16
2.25376e+16
2.24801e+16
2.24274e+16
2.23863e+16
2.234e+16
2.23943e+16
2.20908e+16
2.34944e+16
2.40393e+16
2.47364e+16
1.80371e+16
3.79246e+16
3.15289e+16
3.14923e+16
3.1147e+16
3.04959e+16
2.97419e+16
2.89591e+16
2.82068e+16
2.75218e+16
2.69245e+16
2.64184e+16
2.60073e+16
2.56641e+16
2.5418e+16
2.51104e+16
2.51293e+16
2.41961e+16
2.5286e+16
2.60102e+16
2.24935e+16
2.31128e+16
2.33265e+16
2.3173e+16
2.30965e+16
2.30725e+16
2.30451e+16
2.30105e+16
2.29715e+16
2.29278e+16
2.28793e+16
2.28265e+16
2.27701e+16
2.27108e+16
2.26491e+16
2.25855e+16
2.25208e+16
2.24551e+16
2.23889e+16
2.23225e+16
2.22563e+16
2.21906e+16
2.21257e+16
2.20622e+16
2.20006e+16
2.19417e+16
2.18865e+16
2.18365e+16
2.17935e+16
2.17593e+16
2.17412e+16
2.17216e+16
2.18074e+16
2.15326e+16
2.29687e+16
2.3545e+16
2.47484e+16
1.82156e+16
8.12151e+15
7.85662e+15
7.8228e+15
7.83428e+15
7.85506e+15
7.91332e+15
8.03219e+15
8.29257e+15
8.52211e+15
1.12134e+16
1.1622e+16
1.12477e+16
1.08098e+16
1.05661e+16
1.03337e+16
1.01678e+16
1.00701e+16
1.01217e+16
1.00411e+16
1.23874e+16
1.15393e+16
1.14022e+16
1.09378e+16
1.0681e+16
1.03672e+16
1.01057e+16
9.89016e+15
9.82458e+15
9.82324e+15
1.06463e+16
1.17749e+16
1.15536e+16
1.10231e+16
1.06955e+16
1.03202e+16
9.99878e+15
9.6966e+15
9.51289e+15
9.66695e+15
9.22935e+15
1.11666e+16
1.09772e+16
1.05243e+16
1.02255e+16
9.87145e+15
9.56202e+15
9.26324e+15
9.01109e+15
9.31369e+15
8.54051e+15
1.14266e+16
1.12199e+16
1.07605e+16
1.04458e+16
1.00739e+16
9.74531e+15
9.43226e+15
9.09985e+15
9.52327e+15
8.53958e+15
1.14617e+16
1.12566e+16
1.0803e+16
1.04865e+16
1.01105e+16
9.77478e+15
9.46288e+15
9.07622e+15
9.58021e+15
8.47477e+15
1.15233e+16
1.13186e+16
1.08645e+16
1.0545e+16
1.01646e+16
9.8221e+15
9.51175e+15
9.08641e+15
9.64459e+15
8.4637e+15
1.15676e+16
1.13644e+16
1.09094e+16
1.05883e+16
1.02053e+16
9.85819e+15
9.54982e+15
9.09895e+15
9.69243e+15
8.4652e+15
1.16085e+16
1.14064e+16
1.095e+16
1.06275e+16
1.02426e+16
9.89202e+15
9.58508e+15
9.11722e+15
9.73413e+15
8.47789e+15
1.16464e+16
1.1445e+16
1.09871e+16
1.06634e+16
1.0277e+16
9.92375e+15
9.61778e+15
9.13839e+15
9.77138e+15
8.49653e+15
1.16828e+16
1.14817e+16
1.10223e+16
1.06976e+16
1.031e+16
9.95448e+15
9.64911e+15
9.16148e+15
9.80623e+15
8.51887e+15
1.17184e+16
1.15175e+16
1.10566e+16
1.07308e+16
1.03422e+16
9.98463e+15
9.67969e+15
9.18563e+15
9.83979e+15
8.54336e+15
1.17536e+16
1.15528e+16
1.10904e+16
1.07635e+16
1.0374e+16
1.00145e+16
9.70993e+15
9.21034e+15
9.87278e+15
8.56905e+15
1.17886e+16
1.15879e+16
1.1124e+16
1.07959e+16
1.04056e+16
1.00443e+16
9.7401e+15
9.23532e+15
9.90561e+15
8.59538e+15
1.18237e+16
1.1623e+16
1.11577e+16
1.08283e+16
1.04374e+16
1.0074e+16
9.77032e+15
9.26037e+15
9.93854e+15
8.622e+15
1.18588e+16
1.16581e+16
1.11914e+16
1.08608e+16
1.04692e+16
1.01038e+16
9.80067e+15
9.28537e+15
9.97177e+15
8.64868e+15
1.18939e+16
1.16932e+16
1.12253e+16
1.08932e+16
1.05011e+16
1.01336e+16
9.83119e+15
9.31027e+15
1.00054e+16
8.67527e+15
1.19292e+16
1.17284e+16
1.12593e+16
1.09257e+16
1.05331e+16
1.01635e+16
9.86189e+15
9.33507e+15
1.00393e+16
8.70169e+15
1.19645e+16
1.17634e+16
1.12935e+16
1.09581e+16
1.05653e+16
1.01935e+16
9.89273e+15
9.35976e+15
1.00737e+16
8.72788e+15
1.19997e+16
1.17981e+16
1.13278e+16
1.09905e+16
1.05976e+16
1.02235e+16
9.92368e+15
9.3844e+15
1.01085e+16
8.75379e+15
1.20345e+16
1.18325e+16
1.1362e+16
1.10226e+16
1.06298e+16
1.02536e+16
9.95466e+15
9.40903e+15
1.01436e+16
8.77941e+15
1.20689e+16
1.18664e+16
1.13961e+16
1.10542e+16
1.06618e+16
1.02834e+16
9.98559e+15
9.43378e+15
1.0179e+16
8.80472e+15
1.21026e+16
1.18997e+16
1.14298e+16
1.10853e+16
1.06935e+16
1.03131e+16
1.00161e+16
9.45879e+15
1.02146e+16
8.82972e+15
1.21353e+16
1.19321e+16
1.14629e+16
1.11157e+16
1.07246e+16
1.03423e+16
1.00464e+16
9.48385e+15
1.02501e+16
8.85445e+15
1.21665e+16
1.19632e+16
1.14951e+16
1.11451e+16
1.0755e+16
1.03711e+16
1.00761e+16
9.50877e+15
1.02857e+16
8.87895e+15
1.21957e+16
1.19926e+16
1.15262e+16
1.1173e+16
1.07843e+16
1.03991e+16
1.01051e+16
9.5333e+15
1.03217e+16
8.90303e+15
1.22225e+16
1.20196e+16
1.15556e+16
1.11991e+16
1.08121e+16
1.0426e+16
1.0133e+16
9.55729e+15
1.03584e+16
8.92639e+15
1.22458e+16
1.20433e+16
1.15826e+16
1.12227e+16
1.08377e+16
1.04515e+16
1.01595e+16
9.58058e+15
1.03958e+16
8.94898e+15
1.22648e+16
1.20627e+16
1.16063e+16
1.12429e+16
1.08604e+16
1.04749e+16
1.0184e+16
9.60299e+15
1.04339e+16
8.97076e+15
1.22781e+16
1.20764e+16
1.16256e+16
1.12588e+16
1.08793e+16
1.04955e+16
1.02058e+16
9.62425e+15
1.04731e+16
8.99179e+15
1.22841e+16
1.20825e+16
1.16389e+16
1.1269e+16
1.0893e+16
1.05122e+16
1.02242e+16
9.64403e+15
1.05135e+16
9.01217e+15
1.22802e+16
1.20776e+16
1.16432e+16
1.12708e+16
1.08989e+16
1.0523e+16
1.02372e+16
9.66112e+15
1.05546e+16
9.03125e+15
1.22609e+16
1.20559e+16
1.16329e+16
1.12596e+16
1.08932e+16
1.05244e+16
1.02423e+16
9.67404e+15
1.05959e+16
9.04839e+15
1.22296e+16
1.20206e+16
1.16113e+16
1.1239e+16
1.08788e+16
1.05197e+16
1.02433e+16
9.68873e+15
1.06463e+16
9.07175e+15
1.22108e+16
1.19907e+16
1.15942e+16
1.12219e+16
1.08659e+16
1.0517e+16
1.0248e+16
9.71399e+15
1.07171e+16
9.11036e+15
1.20887e+16
1.18327e+16
1.14582e+16
1.11012e+16
1.07608e+16
1.04324e+16
1.01772e+16
9.67219e+15
1.07146e+16
9.07209e+15
1.15245e+16
1.12674e+16
1.09686e+16
1.06691e+16
1.03743e+16
1.00968e+16
9.88636e+15
9.45654e+15
1.05472e+16
8.88772e+15
1.26816e+16
1.23999e+16
1.20523e+16
1.16626e+16
1.12865e+16
1.09673e+16
1.07609e+16
1.04288e+16
1.18009e+16
9.98106e+15
1.29252e+16
1.24496e+16
1.20937e+16
1.18081e+16
1.16007e+16
1.15012e+16
1.15634e+16
1.15229e+16
1.34224e+16
1.16874e+16
1.00437e+16
9.41156e+15
8.92493e+15
8.53343e+15
8.22946e+15
7.99575e+15
7.81144e+15
7.39278e+15
7.63133e+15
5.13473e+15
8.63743e+15
7.98401e+15
7.55072e+15
7.28991e+15
7.20203e+15
7.22441e+15
7.25867e+15
7.16002e+15
7.72076e+15
5.6402e+15
6.69752e+15
6.01719e+15
5.62872e+15
5.46378e+15
5.34719e+15
5.40839e+15
5.8183e+15
6.23199e+15
7.18923e+15
5.54566e+15
4.90289e+15
4.36274e+15
4.13477e+15
4.07101e+15
4.2667e+15
4.68762e+15
5.29822e+15
5.87399e+15
6.9782e+15
5.53037e+15
3.56121e+15
3.18496e+15
3.00324e+15
3.10715e+15
3.63044e+15
4.29851e+15
5.03846e+15
5.68963e+15
6.81771e+15
5.47918e+15
3.04755e+15
2.75754e+15
2.31012e+15
2.90433e+15
3.57565e+15
4.26383e+15
4.99095e+15
5.67231e+15
6.63241e+15
5.47624e+15
3.02119e+15
2.79724e+15
2.80097e+15
3.1454e+15
3.71636e+15
4.34458e+15
5.01281e+15
5.69607e+15
6.39714e+15
5.49599e+15
3.20168e+15
3.12854e+15
3.19595e+15
3.45719e+15
3.92283e+15
4.4726e+15
5.06931e+15
5.71356e+15
6.1488e+15
5.53293e+15
3.39659e+15
3.40388e+15
3.50694e+15
3.73999e+15
4.12751e+15
4.60221e+15
5.12369e+15
5.69563e+15
5.89856e+15
5.57891e+15
3.5701e+15
3.64051e+15
3.7675e+15
3.98057e+15
4.30896e+15
4.71434e+15
5.15742e+15
5.63826e+15
5.65955e+15
5.63389e+15
3.6954e+15
3.81233e+15
3.9589e+15
4.161e+15
4.44419e+15
4.78656e+15
5.15046e+15
5.53682e+15
5.43213e+15
5.69255e+15
3.77981e+15
3.9425e+15
4.1071e+15
4.29392e+15
4.53639e+15
4.81924e+15
5.10564e+15
5.40651e+15
5.22915e+15
5.76511e+15
3.80083e+15
3.98141e+15
4.15336e+15
4.33779e+15
4.54883e+15
4.78048e+15
4.99845e+15
5.23417e+15
5.0361e+15
5.83594e+15
3.80736e+15
4.01341e+15
4.1917e+15
4.35744e+15
4.53372e+15
4.71864e+15
4.87954e+15
5.07634e+15
4.90225e+15
5.97007e+15
3.74318e+15
3.91174e+15
4.05669e+15
4.22312e+15
4.37952e+15
4.53613e+15
4.6643e+15
4.85911e+15
4.7594e+15
6.06486e+15
3.75798e+15
3.97153e+15
4.11835e+15
4.26865e+15
4.40361e+15
4.55085e+15
4.68308e+15
4.92893e+15
4.96136e+15
6.64445e+15
3.56903e+15
3.65102e+15
3.78879e+15
3.92996e+15
4.07112e+15
4.2334e+15
4.38333e+15
4.71034e+15
4.85426e+15
6.61888e+15
9.2301e+15
8.45149e+15
8.93868e+15
9.07982e+15
9.24759e+15
9.38698e+15
9.48884e+15
9.55467e+15
9.60509e+15
9.36146e+15
8.37728e+15
1.22624e+16
1.10726e+16
1.10642e+16
1.09053e+16
1.08327e+16
1.0806e+16
1.08336e+16
1.09449e+16
1.11864e+16
1.13422e+16
1.11371e+16
1.1844e+16
1.11246e+16
1.11397e+16
1.10704e+16
1.10538e+16
1.10434e+16
1.1038e+16
1.10557e+16
1.11011e+16
1.09811e+16
1.06928e+16
1.24229e+16
1.18159e+16
1.17146e+16
1.16005e+16
1.15534e+16
1.1538e+16
1.15522e+16
1.16083e+16
1.16974e+16
1.16578e+16
1.15652e+16
1.29301e+16
1.24229e+16
1.22722e+16
1.21519e+16
1.20965e+16
1.20714e+16
1.20722e+16
1.21123e+16
1.21819e+16
1.21632e+16
1.21678e+16
1.3416e+16
1.29539e+16
1.2754e+16
1.2611e+16
1.25369e+16
1.25023e+16
1.25008e+16
1.25401e+16
1.26022e+16
1.26085e+16
1.26831e+16
1.39343e+16
1.34916e+16
1.32562e+16
1.3095e+16
1.30048e+16
1.29597e+16
1.2952e+16
1.2985e+16
1.30432e+16
1.30708e+16
1.31799e+16
1.44653e+16
1.40285e+16
1.37628e+16
1.35836e+16
1.34779e+16
1.34225e+16
1.34088e+16
1.34376e+16
1.3494e+16
1.35393e+16
1.36684e+16
1.50052e+16
1.45694e+16
1.42771e+16
1.40807e+16
1.39613e+16
1.3897e+16
1.38776e+16
1.39011e+16
1.39548e+16
1.40119e+16
1.41511e+16
1.55495e+16
1.51149e+16
1.47975e+16
1.45798e+16
1.44414e+16
1.43646e+16
1.43388e+16
1.43603e+16
1.44146e+16
1.44821e+16
1.46287e+16
1.61159e+16
1.56919e+16
1.53606e+16
1.51279e+16
1.49732e+16
1.48839e+16
1.48507e+16
1.48693e+16
1.49246e+16
1.50008e+16
1.51533e+16
1.67417e+16
1.63375e+16
1.60045e+16
1.57669e+16
1.5602e+16
1.55025e+16
1.54616e+16
1.54759e+16
1.5532e+16
1.56154e+16
1.57713e+16
1.74455e+16
1.70677e+16
1.67463e+16
1.65196e+16
1.63603e+16
1.62625e+16
1.62198e+16
1.62283e+16
1.6281e+16
1.6366e+16
1.65192e+16
1.82487e+16
1.78904e+16
1.75766e+16
1.73587e+16
1.72049e+16
1.71097e+16
1.70657e+16
1.70684e+16
1.71157e+16
1.71998e+16
1.73479e+16
1.90678e+16
1.87184e+16
1.84037e+16
1.81866e+16
1.80321e+16
1.79361e+16
1.7891e+16
1.78921e+16
1.79382e+16
1.80226e+16
1.81655e+16
1.98996e+16
1.95565e+16
1.92402e+16
1.9023e+16
1.88672e+16
1.87695e+16
1.87224e+16
1.87211e+16
1.87652e+16
1.88484e+16
1.89853e+16
2.07457e+16
2.04088e+16
2.00909e+16
1.98742e+16
1.97179e+16
1.96194e+16
1.95711e+16
1.95681e+16
1.961e+16
1.96912e+16
1.98225e+16
2.16055e+16
2.12756e+16
2.09568e+16
2.07414e+16
2.05854e+16
2.04868e+16
2.04378e+16
2.04334e+16
2.04733e+16
2.05523e+16
2.06778e+16
2.24816e+16
2.21612e+16
2.18426e+16
2.16302e+16
2.14759e+16
2.13784e+16
2.13298e+16
2.13249e+16
2.13598e+16
2.14363e+16
2.15565e+16
2.33732e+16
2.30661e+16
2.27488e+16
2.25411e+16
2.23894e+16
2.22939e+16
2.22461e+16
2.22412e+16
2.2275e+16
2.23494e+16
2.24648e+16
2.42811e+16
2.39925e+16
2.36784e+16
2.34789e+16
2.3333e+16
2.3242e+16
2.31972e+16
2.31935e+16
2.32268e+16
2.32992e+16
2.34102e+16
2.52097e+16
2.49439e+16
2.46327e+16
2.44428e+16
2.43029e+16
2.42168e+16
2.41756e+16
2.41747e+16
2.421e+16
2.42824e+16
2.43907e+16
2.61762e+16
2.5937e+16
2.56318e+16
2.54588e+16
2.53324e+16
2.52577e+16
2.52242e+16
2.52271e+16
2.52618e+16
2.53314e+16
2.54352e+16
2.71598e+16
2.69362e+16
2.66246e+16
2.64594e+16
2.6338e+16
2.62678e+16
2.62363e+16
2.62385e+16
2.62701e+16
2.63347e+16
2.64327e+16
2.80456e+16
2.78276e+16
2.75005e+16
2.73352e+16
2.72134e+16
2.7145e+16
2.71156e+16
2.71199e+16
2.71531e+16
2.72169e+16
2.73115e+16
2.8867e+16
2.8662e+16
2.8318e+16
2.8151e+16
2.80268e+16
2.79585e+16
2.793e+16
2.79359e+16
2.79707e+16
2.80347e+16
2.81275e+16
2.96557e+16
2.94846e+16
2.91256e+16
2.89589e+16
2.88316e+16
2.87618e+16
2.87327e+16
2.8739e+16
2.87752e+16
2.88402e+16
2.89318e+16
3.04444e+16
3.0339e+16
2.99723e+16
2.98161e+16
2.96923e+16
2.96256e+16
2.95983e+16
2.96057e+16
2.96422e+16
2.97066e+16
2.97962e+16
3.12572e+16
3.12532e+16
3.08846e+16
3.07487e+16
3.06347e+16
3.05754e+16
3.05522e+16
3.05613e+16
3.05975e+16
3.06598e+16
3.07463e+16
3.20667e+16
3.22034e+16
3.18373e+16
3.17319e+16
3.1634e+16
3.1587e+16
3.15722e+16
3.15868e+16
3.16256e+16
3.16856e+16
3.17684e+16
3.28659e+16
3.31886e+16
3.28285e+16
3.27671e+16
3.26919e+16
3.26577e+16
3.26477e+16
3.2663e+16
3.27014e+16
3.27598e+16
3.28391e+16
3.36642e+16
3.41946e+16
3.38162e+16
3.38252e+16
3.38274e+16
3.38765e+16
3.39412e+16
3.40142e+16
3.40884e+16
3.41571e+16
3.42316e+16
3.48133e+16
3.55726e+16
3.49185e+16
3.46725e+16
3.43924e+16
3.41818e+16
3.40276e+16
3.39338e+16
3.38988e+16
3.39141e+16
3.39614e+16
3.54434e+16
3.77287e+16
3.80317e+16
3.87356e+16
3.92378e+16
3.96688e+16
4.00189e+16
4.03032e+16
4.05322e+16
4.07058e+16
4.08107e+16
3.3146e+16
3.28946e+16
3.10991e+16
3.04227e+16
2.98724e+16
2.94974e+16
2.9225e+16
2.90319e+16
2.8902e+16
2.88161e+16
2.87333e+16
1.85209e+16
1.93662e+16
2.02591e+16
2.08576e+16
2.12553e+16
2.15353e+16
2.17141e+16
2.17892e+16
2.17729e+16
2.16673e+16
2.145e+16
2.10939e+16
2.05608e+16
1.99386e+16
1.92786e+16
1.85809e+16
1.78758e+16
1.7208e+16
1.64653e+16
1.58889e+16
1.49496e+16
1.41276e+16
1.35148e+16
1.28887e+16
1.23801e+16
1.195e+16
1.15752e+16
1.12172e+16
1.08525e+16
1.04677e+16
1.00559e+16
9.61677e+15
9.09135e+15
8.54738e+15
8.17889e+15
2.4308e+16
2.37334e+16
2.34259e+16
2.31285e+16
2.28339e+16
2.25435e+16
2.22479e+16
2.19314e+16
2.15972e+16
2.12267e+16
2.07847e+16
2.02411e+16
1.95739e+16
1.89027e+16
1.82661e+16
1.76393e+16
1.70354e+16
1.64661e+16
1.58644e+16
1.53578e+16
1.46929e+16
1.41655e+16
1.37468e+16
1.33074e+16
1.29155e+16
1.25639e+16
1.22609e+16
1.19942e+16
1.17555e+16
1.15501e+16
1.1392e+16
1.13031e+16
1.12451e+16
1.12291e+16
1.14106e+16
2.35323e+16
2.3673e+16
2.34344e+16
2.30991e+16
2.27296e+16
2.23201e+16
2.18833e+16
2.14243e+16
2.09569e+16
2.04437e+16
1.98419e+16
1.91674e+16
1.84913e+16
1.79419e+16
1.74767e+16
1.70235e+16
1.6573e+16
1.61195e+16
1.56441e+16
1.52212e+16
1.47872e+16
1.44134e+16
1.41466e+16
1.39508e+16
1.37961e+16
1.36313e+16
1.34572e+16
1.32861e+16
1.31135e+16
1.29304e+16
1.27365e+16
1.25782e+16
1.23653e+16
1.19951e+16
1.16418e+16
2.27183e+16
2.24717e+16
2.21118e+16
2.17768e+16
2.14598e+16
2.11452e+16
2.08308e+16
2.05079e+16
2.01902e+16
1.98747e+16
1.95429e+16
1.91842e+16
1.87871e+16
1.84019e+16
1.80303e+16
1.76539e+16
1.72781e+16
1.69048e+16
1.65328e+16
1.61726e+16
1.57553e+16
1.5333e+16
1.49684e+16
1.46364e+16
1.43335e+16
1.4048e+16
1.37825e+16
1.35285e+16
1.32742e+16
1.30194e+16
1.27605e+16
1.25174e+16
1.22419e+16
1.19484e+16
1.17767e+16
2.13485e+16
2.11098e+16
2.071e+16
2.03727e+16
2.00595e+16
1.97484e+16
1.94358e+16
1.91179e+16
1.88067e+16
1.84893e+16
1.81473e+16
1.77776e+16
1.73884e+16
1.7032e+16
1.66895e+16
1.63426e+16
1.5994e+16
1.56446e+16
1.52942e+16
1.49478e+16
1.45891e+16
1.42322e+16
1.39263e+16
1.36734e+16
1.34494e+16
1.3236e+16
1.3026e+16
1.2821e+16
1.26153e+16
1.24096e+16
1.22016e+16
1.2025e+16
1.18521e+16
1.15899e+16
1.12957e+16
2.1572e+16
2.12625e+16
2.08679e+16
2.05483e+16
2.02427e+16
1.99338e+16
1.9619e+16
1.93002e+16
1.89912e+16
1.86798e+16
1.83496e+16
1.79935e+16
1.76176e+16
1.72669e+16
1.69233e+16
1.65765e+16
1.62287e+16
1.58812e+16
1.55361e+16
1.51938e+16
1.48511e+16
1.45028e+16
1.41995e+16
1.39521e+16
1.37326e+16
1.35249e+16
1.3318e+16
1.31148e+16
1.29101e+16
1.27045e+16
1.24926e+16
1.231e+16
1.2162e+16
1.19357e+16
1.16218e+16
2.14496e+16
2.11057e+16
2.07303e+16
2.04246e+16
2.01232e+16
1.98152e+16
1.94996e+16
1.9184e+16
1.88814e+16
1.85776e+16
1.82582e+16
1.79146e+16
1.75539e+16
1.72149e+16
1.68785e+16
1.65395e+16
1.61992e+16
1.58595e+16
1.55223e+16
1.51872e+16
1.48552e+16
1.45161e+16
1.42156e+16
1.39719e+16
1.37574e+16
1.35557e+16
1.33526e+16
1.31521e+16
1.29502e+16
1.27477e+16
1.25352e+16
1.23469e+16
1.22212e+16
1.20455e+16
1.17338e+16
2.14297e+16
2.10733e+16
2.07232e+16
2.04242e+16
2.0123e+16
1.9813e+16
1.94948e+16
1.91802e+16
1.88806e+16
1.85804e+16
1.82668e+16
1.79293e+16
1.75759e+16
1.72413e+16
1.69065e+16
1.65701e+16
1.62326e+16
1.58962e+16
1.55626e+16
1.52316e+16
1.49036e+16
1.45721e+16
1.42738e+16
1.40322e+16
1.38202e+16
1.3622e+16
1.3421e+16
1.32218e+16
1.30211e+16
1.28204e+16
1.2607e+16
1.24107e+16
1.22915e+16
1.2152e+16
1.18599e+16
2.14134e+16
2.10587e+16
2.07296e+16
2.04314e+16
2.01293e+16
1.9817e+16
1.94967e+16
1.91832e+16
1.8886e+16
1.85883e+16
1.82788e+16
1.79454e+16
1.75971e+16
1.72656e+16
1.69319e+16
1.65975e+16
1.62618e+16
1.59277e+16
1.55965e+16
1.5268e+16
1.4942e+16
1.46139e+16
1.43184e+16
1.40778e+16
1.38669e+16
1.36704e+16
1.34704e+16
1.32719e+16
1.30716e+16
1.28721e+16
1.26585e+16
1.24565e+16
1.23382e+16
1.22218e+16
1.19524e+16
2.14191e+16
2.10727e+16
2.07589e+16
2.04585e+16
2.01555e+16
1.98409e+16
1.95187e+16
1.92057e+16
1.89097e+16
1.86134e+16
1.83064e+16
1.79753e+16
1.76298e+16
1.72998e+16
1.69663e+16
1.66327e+16
1.62978e+16
1.59648e+16
1.56347e+16
1.53074e+16
1.49827e+16
1.46554e+16
1.43619e+16
1.41224e+16
1.39119e+16
1.37162e+16
1.35166e+16
1.33183e+16
1.31181e+16
1.2919e+16
1.27053e+16
1.24995e+16
1.23804e+16
1.2277e+16
1.20259e+16
2.14397e+16
2.11029e+16
2.07995e+16
2.04959e+16
2.0192e+16
1.98753e+16
1.95514e+16
1.92386e+16
1.89433e+16
1.86475e+16
1.8342e+16
1.8012e+16
1.76682e+16
1.73388e+16
1.7005e+16
1.66716e+16
1.6337e+16
1.60043e+16
1.56746e+16
1.53477e+16
1.50235e+16
1.46965e+16
1.44033e+16
1.41647e+16
1.39546e+16
1.37591e+16
1.35595e+16
1.33611e+16
1.31608e+16
1.29618e+16
1.27479e+16
1.25397e+16
1.24196e+16
1.23233e+16
1.20841e+16
2.14727e+16
2.11446e+16
2.08478e+16
2.0541e+16
2.02363e+16
1.99178e+16
1.95923e+16
1.92794e+16
1.89841e+16
1.86885e+16
1.83836e+16
1.80541e+16
1.7711e+16
1.73817e+16
1.70474e+16
1.67137e+16
1.63788e+16
1.6046e+16
1.57163e+16
1.53894e+16
1.50651e+16
1.47379e+16
1.44447e+16
1.4206e+16
1.39961e+16
1.38008e+16
1.3601e+16
1.34023e+16
1.32017e+16
1.30026e+16
1.27883e+16
1.25786e+16
1.24576e+16
1.23654e+16
1.21328e+16
2.1515e+16
2.11937e+16
2.09011e+16
2.05913e+16
2.02859e+16
1.99657e+16
1.96389e+16
1.93255e+16
1.90301e+16
1.87342e+16
1.84295e+16
1.80999e+16
1.7757e+16
1.74274e+16
1.70922e+16
1.67581e+16
1.64226e+16
1.60895e+16
1.57594e+16
1.54321e+16
1.51074e+16
1.47798e+16
1.44864e+16
1.42475e+16
1.40371e+16
1.38415e+16
1.36417e+16
1.34428e+16
1.32417e+16
1.30423e+16
1.28275e+16
1.26167e+16
1.24952e+16
1.24053e+16
1.21758e+16
2.15644e+16
2.12478e+16
2.09577e+16
2.06455e+16
2.03393e+16
2.00175e+16
1.96894e+16
1.93754e+16
1.90796e+16
1.87831e+16
1.84783e+16
1.81484e+16
1.78053e+16
1.74751e+16
1.71391e+16
1.68042e+16
1.64681e+16
1.61343e+16
1.58036e+16
1.54757e+16
1.51505e+16
1.48223e+16
1.45284e+16
1.42891e+16
1.40784e+16
1.38824e+16
1.36821e+16
1.34828e+16
1.32814e+16
1.30816e+16
1.28663e+16
1.26545e+16
1.25327e+16
1.24443e+16
1.22157e+16
2.16189e+16
2.13052e+16
2.10167e+16
2.07023e+16
2.03952e+16
2.00722e+16
1.97427e+16
1.94281e+16
1.91316e+16
1.88345e+16
1.85292e+16
1.81988e+16
1.78552e+16
1.75243e+16
1.71873e+16
1.68516e+16
1.65147e+16
1.61802e+16
1.58487e+16
1.55202e+16
1.51942e+16
1.48653e+16
1.45708e+16
1.43311e+16
1.41199e+16
1.39235e+16
1.37226e+16
1.35228e+16
1.3321e+16
1.31208e+16
1.29049e+16
1.26923e+16
1.25702e+16
1.24828e+16
1.22544e+16
2.16771e+16
2.13652e+16
2.10772e+16
2.0761e+16
2.04531e+16
2.01287e+16
1.9798e+16
1.94826e+16
1.91854e+16
1.88876e+16
1.85817e+16
1.82505e+16
1.79062e+16
1.75746e+16
1.72366e+16
1.69001e+16
1.65623e+16
1.62269e+16
1.58946e+16
1.55653e+16
1.52386e+16
1.49088e+16
1.46136e+16
1.43734e+16
1.41617e+16
1.39648e+16
1.37633e+16
1.35631e+16
1.33607e+16
1.31601e+16
1.29436e+16
1.27301e+16
1.26079e+16
1.25213e+16
1.22927e+16
2.17378e+16
2.14268e+16
2.11388e+16
2.08212e+16
2.05122e+16
2.01866e+16
1.98548e+16
1.95384e+16
1.92404e+16
1.89418e+16
1.86352e+16
1.83032e+16
1.79582e+16
1.76257e+16
1.72867e+16
1.69492e+16
1.66105e+16
1.62742e+16
1.59411e+16
1.56109e+16
1.52833e+16
1.49527e+16
1.46568e+16
1.4416e+16
1.42037e+16
1.40063e+16
1.38043e+16
1.36035e+16
1.34006e+16
1.31995e+16
1.29824e+16
1.2768e+16
1.26456e+16
1.25598e+16
1.23311e+16
2.18002e+16
2.14895e+16
2.12011e+16
2.08822e+16
2.05722e+16
2.02455e+16
1.99124e+16
1.95951e+16
1.92963e+16
1.89968e+16
1.86894e+16
1.83566e+16
1.80107e+16
1.76773e+16
1.73373e+16
1.69988e+16
1.66592e+16
1.6322e+16
1.5988e+16
1.56569e+16
1.53284e+16
1.49969e+16
1.47002e+16
1.44588e+16
1.4246e+16
1.4048e+16
1.38455e+16
1.36441e+16
1.34407e+16
1.32391e+16
1.30213e+16
1.2806e+16
1.26834e+16
1.25983e+16
1.23697e+16
2.18635e+16
2.1553e+16
2.12639e+16
2.09438e+16
2.06327e+16
2.03049e+16
1.99705e+16
1.96523e+16
1.93526e+16
1.90523e+16
1.8744e+16
1.84103e+16
1.80634e+16
1.77292e+16
1.73882e+16
1.70487e+16
1.67081e+16
1.637e+16
1.6035e+16
1.57031e+16
1.53737e+16
1.50412e+16
1.47437e+16
1.45017e+16
1.42884e+16
1.40899e+16
1.38867e+16
1.36847e+16
1.34808e+16
1.32787e+16
1.30603e+16
1.28442e+16
1.27214e+16
1.26367e+16
1.24086e+16
2.19269e+16
2.1617e+16
2.13267e+16
2.10057e+16
2.06934e+16
2.03644e+16
2.00288e+16
1.97096e+16
1.9409e+16
1.91078e+16
1.87988e+16
1.84641e+16
1.81163e+16
1.77811e+16
1.74391e+16
1.70986e+16
1.6757e+16
1.6418e+16
1.60821e+16
1.57492e+16
1.54189e+16
1.50855e+16
1.47872e+16
1.45446e+16
1.43307e+16
1.41316e+16
1.39279e+16
1.37253e+16
1.35209e+16
1.33182e+16
1.30992e+16
1.28824e+16
1.27592e+16
1.26748e+16
1.24473e+16
2.199e+16
2.16812e+16
2.13893e+16
2.10674e+16
2.07539e+16
2.04237e+16
2.00868e+16
1.97666e+16
1.94652e+16
1.91632e+16
1.88533e+16
1.85177e+16
1.8169e+16
1.78329e+16
1.74898e+16
1.71483e+16
1.68057e+16
1.64657e+16
1.61289e+16
1.57951e+16
1.54639e+16
1.51296e+16
1.48305e+16
1.45873e+16
1.43728e+16
1.41732e+16
1.39689e+16
1.37657e+16
1.35607e+16
1.33575e+16
1.31379e+16
1.29203e+16
1.27969e+16
1.27125e+16
1.24859e+16
2.20519e+16
2.17453e+16
2.14516e+16
2.11289e+16
2.0814e+16
2.04826e+16
2.01444e+16
1.98231e+16
1.95208e+16
1.9218e+16
1.89073e+16
1.85709e+16
1.82212e+16
1.78842e+16
1.75401e+16
1.71976e+16
1.6854e+16
1.6513e+16
1.61752e+16
1.58406e+16
1.55085e+16
1.51732e+16
1.48733e+16
1.46296e+16
1.44145e+16
1.42144e+16
1.40095e+16
1.38057e+16
1.36002e+16
1.33965e+16
1.31762e+16
1.2958e+16
1.28342e+16
1.27498e+16
1.25244e+16
2.21121e+16
2.18091e+16
2.15131e+16
2.11896e+16
2.08734e+16
2.05406e+16
2.0201e+16
1.98787e+16
1.95755e+16
1.9272e+16
1.89605e+16
1.86233e+16
1.82728e+16
1.79348e+16
1.75896e+16
1.7246e+16
1.69015e+16
1.65595e+16
1.62208e+16
1.58853e+16
1.55522e+16
1.52161e+16
1.49155e+16
1.46712e+16
1.44556e+16
1.42549e+16
1.40495e+16
1.38451e+16
1.36391e+16
1.34348e+16
1.32139e+16
1.29952e+16
1.2871e+16
1.27865e+16
1.25627e+16
2.21696e+16
2.18724e+16
2.15735e+16
2.12492e+16
2.09316e+16
2.05973e+16
2.02562e+16
1.99328e+16
1.96289e+16
1.93247e+16
1.90125e+16
1.86747e+16
1.83233e+16
1.79844e+16
1.76381e+16
1.72934e+16
1.69478e+16
1.66049e+16
1.62652e+16
1.59288e+16
1.55949e+16
1.5258e+16
1.49566e+16
1.47118e+16
1.44956e+16
1.42944e+16
1.40884e+16
1.38834e+16
1.3677e+16
1.34722e+16
1.32507e+16
1.30315e+16
1.2907e+16
1.28223e+16
1.26003e+16
2.22237e+16
2.19348e+16
2.16324e+16
2.13073e+16
2.09883e+16
2.06523e+16
2.03095e+16
1.99851e+16
1.96804e+16
1.93758e+16
1.9063e+16
1.87245e+16
1.83724e+16
1.80325e+16
1.76851e+16
1.73393e+16
1.69926e+16
1.66487e+16
1.63082e+16
1.59709e+16
1.56361e+16
1.52984e+16
1.49963e+16
1.4751e+16
1.45343e+16
1.43325e+16
1.4126e+16
1.39205e+16
1.37136e+16
1.35083e+16
1.32862e+16
1.30666e+16
1.2942e+16
1.28569e+16
1.26368e+16
2.22734e+16
2.19961e+16
2.16895e+16
2.13635e+16
2.10429e+16
2.0705e+16
2.03605e+16
2.0035e+16
1.97297e+16
1.94246e+16
1.91113e+16
1.87725e+16
1.84196e+16
1.80788e+16
1.77302e+16
1.73831e+16
1.70354e+16
1.66905e+16
1.6349e+16
1.60109e+16
1.56753e+16
1.53367e+16
1.50341e+16
1.47884e+16
1.45712e+16
1.43688e+16
1.41618e+16
1.39557e+16
1.37483e+16
1.35426e+16
1.33199e+16
1.31001e+16
1.29753e+16
1.28899e+16
1.2672e+16
2.23174e+16
2.20562e+16
2.17442e+16
2.14173e+16
2.1095e+16
2.07548e+16
2.04083e+16
2.00818e+16
1.9776e+16