/*--------------------------------*- C++ -*----------------------------------*\
| =========                 |                                                 |
| \\      /  F ield         | OpenFOAM: The Open Source CFD Toolbox           |
|  \\    /   O peration     | Version:  2406                                  |
|   \\  /    A nd           | Website:  www.openfoam.com                      |
|    \\/     M anipulation  |                                                 |
\*---------------------------------------------------------------------------*/
FoamFile
{
    version     2.0;
    format      ascii;
    arch        "LSB;label=32;scalar=64";
    class       volScalarField;
    location    "0/neutroRegion";
    object      rhoCool;
}
// * * * * * * * * * * * * * * * * * * * * * * * * * * * * * * * * * * * * * //

dimensions      [1 -3 0 0 0 0 0];

internalField   nonuniform List<scalar> 
8595
(
3979.72
3979.73
3979.73
3979.77
3979.81
3979.87
3979.96
3980.08
3980.25
3980.44
3980.63
3980.84
3981.05
3981.28
3981.48
3981.7
3981.98
3982.42
3984.01
3985.25
3986.42
3987.53
3988.63
3989.72
3990.79
3991.86
3992.93
3993.98
3995.04
3996.09
3997.13
3998.17
3999.2
4000.22
4001.23
4002.24
4003.24
4004.22
4005.2
4006.18
4007.14
4008.1
4009.04
4009.98
4010.91
4011.84
4012.77
4013.68
4014.6
4015.51
4016.43
4017.36
4018.31
4019.31
4020.38
4020.36
4020.32
3979.69
3979.67
3979.64
3979.62
3979.62
3979.65
3979.73
3979.87
3980.06
3980.29
3980.53
3980.79
3981.04
3981.28
3981.52
3981.78
3982.11
3982.65
3984.13
3985.39
3986.54
3987.65
3988.73
3989.8
3990.86
3991.91
3992.95
3993.99
3995.02
3996.05
3997.07
3998.08
3999.09
4000.09
4001.08
4002.06
4003.04
4004.01
4004.96
4005.92
4006.86
4007.8
4008.72
4009.65
4010.56
4011.48
4012.39
4013.29
4014.19
4015.09
4016.01
4016.93
4017.89
4018.89
4019.99
4020.11
4020.2
3979.68
3979.63
3979.57
3979.52
3979.49
3979.48
3979.54
3979.69
3979.92
3980.19
3980.49
3980.77
3981.05
3981.32
3981.59
3981.89
3982.28
3982.89
3984.32
3985.58
3986.74
3987.84
3988.92
3989.98
3991.03
3992.07
3993.11
3994.14
3995.16
3996.18
3997.18
3998.19
3999.19
4000.17
4001.15
4002.12
4003.09
4004.05
4005
4005.94
4006.88
4007.8
4008.72
4009.63
4010.54
4011.44
4012.34
4013.23
4014.12
4015.01
4015.91
4016.82
4017.75
4018.72
4019.8
4019.94
4020.1
3979.67
3979.6
3979.52
3979.43
3979.35
3979.31
3979.37
3979.54
3979.82
3980.13
3980.46
3980.79
3981.1
3981.4
3981.71
3982.06
3982.51
3983.2
3984.61
3985.86
3987.01
3988.11
3989.17
3990.23
3991.28
3992.31
3993.34
3994.36
3995.38
3996.39
3997.39
3998.39
3999.38
4000.36
4001.34
4002.31
4003.26
4004.22
4005.16
4006.1
4007.03
4007.96
4008.87
4009.78
4010.68
4011.58
4012.46
4013.35
4014.24
4015.11
4015.99
4016.88
4017.79
4018.73
4019.74
4019.85
4020.04
3979.66
3979.59
3979.47
3979.35
3979.23
3979.16
3979.23
3979.44
3979.75
3980.11
3980.5
3980.87
3981.23
3981.57
3981.92
3982.32
3982.83
3983.6
3985.01
3986.25
3987.38
3988.46
3989.53
3990.57
3991.6
3992.63
3993.65
3994.67
3995.67
3996.68
3997.68
3998.67
3999.66
4000.63
4001.6
4002.57
4003.53
4004.48
4005.42
4006.35
4007.28
4008.2
4009.11
4010.01
4010.91
4011.8
4012.68
4013.57
4014.44
4015.31
4016.18
4017.05
4017.92
4018.83
4019.78
4019.83
4019.99
3979.65
3979.57
3979.42
3979.26
3979.08
3979.01
3979.12
3979.38
3979.76
3980.19
3980.64
3981.07
3981.47
3981.86
3982.26
3982.7
3983.28
3984.14
3985.53
3986.76
3987.88
3988.94
3989.98
3991.01
3992.03
3993.04
3994.06
3995.06
3996.06
3997.06
3998.06
3999.04
4000.02
4000.99
4001.96
4002.92
4003.87
4004.82
4005.75
4006.69
4007.61
4008.53
4009.43
4010.33
4011.22
4012.12
4012.99
4013.86
4014.73
4015.59
4016.44
4017.29
4018.14
4019
4019.89
4019.85
4019.96
3979.63
3979.52
3979.33
3979.09
3978.88
3978.86
3979.05
3979.42
3979.91
3980.44
3980.96
3981.46
3981.91
3982.34
3982.77
3983.27
3983.89
3984.82
3986.2
3987.41
3988.5
3989.54
3990.57
3991.57
3992.58
3993.58
3994.58
3995.57
3996.56
3997.55
3998.54
3999.52
4000.49
4001.46
4002.41
4003.37
4004.32
4005.26
4006.19
4007.12
4008.04
4008.95
4009.85
4010.75
4011.64
4012.52
4013.39
4014.25
4015.11
4015.95
4016.78
4017.61
4018.43
4019.24
4020.06
4019.91
4019.96
3979.5
3979.36
3979.07
3978.73
3978.59
3978.73
3979.11
3979.66
3980.3
3980.96
3981.57
3982.14
3982.65
3983.1
3983.55
3984.07
3984.73
3985.69
3987.05
3988.22
3989.28
3990.3
3991.3
3992.29
3993.27
3994.25
3995.24
3996.22
3997.2
3998.17
3999.15
4000.11
4001.08
4002.04
4002.99
4003.94
4004.88
4005.81
4006.74
4007.66
4008.58
4009.48
4010.38
4011.27
4012.15
4013.02
4013.89
4014.74
4015.58
4016.41
4017.22
4018.01
4018.79
4019.55
4020.29
4020.02
4019.97
3978.87
3978.71
3978.21
3978.07
3978.27
3978.77
3979.46
3980.28
3981.13
3981.94
3982.66
3983.29
3983.81
3984.27
3984.72
3985.22
3985.86
3986.78
3988.1
3989.21
3990.24
3991.22
3992.2
3993.16
3994.12
3995.09
3996.04
3997.01
3997.97
3998.93
3999.9
4000.85
4001.81
4002.76
4003.7
4004.64
4005.57
4006.51
4007.42
4008.34
4009.24
4010.14
4011.03
4011.92
4012.79
4013.65
4014.51
4015.35
4016.17
4016.98
4017.77
4018.53
4019.25
4019.94
4020.59
4020.16
4019.99
3976.57
3976.57
3976.94
3977.56
3978.39
3979.39
3980.48
3981.59
3982.65
3983.59
3984.39
3985.04
3985.55
3985.97
3986.35
3986.78
3987.31
3988.11
3989.34
3990.38
3991.37
3992.34
3993.28
3994.21
3995.14
3996.08
3997.02
3997.96
3998.9
3999.85
4000.79
4001.74
4002.68
4003.62
4004.55
4005.48
4006.41
4007.32
4008.24
4009.15
4010.04
4010.94
4011.81
4012.68
4013.55
4014.41
4015.25
4016.08
4016.88
4017.67
4018.42
4019.14
4019.8
4020.42
4020.97
4020.35
4020.04
4047.64
4047.91
4048.14
4048.34
4048.52
4048.69
4048.85
4049
4049.16
4049.3
4046.28
4046.81
4047.24
4047.61
4047.94
4048.23
4048.51
4048.79
4049.08
4049.37
4045
4045.79
4046.44
4046.98
4047.43
4047.82
4048.19
4048.55
4048.97
4049.41
4043.92
4044.78
4045.49
4046.08
4046.57
4046.99
4047.36
4047.73
4048.17
4048.67
4043.03
4043.92
4044.67
4045.3
4045.82
4046.25
4046.63
4047.01
4047.46
4047.99
4042.22
4043.14
4043.92
4044.57
4045.11
4045.56
4045.95
4046.34
4046.79
4047.33
4041.48
4042.42
4043.21
4043.88
4044.44
4044.89
4045.29
4045.68
4046.14
4046.69
4040.77
4041.72
4042.53
4043.21
4043.78
4044.25
4044.65
4045.04
4045.5
4046.05
4040.07
4041.05
4041.86
4042.56
4043.13
4043.61
4044.01
4044.41
4044.86
4045.41
4039.4
4040.37
4041.2
4041.91
4042.48
4042.97
4043.38
4043.77
4044.23
4044.77
4038.72
4039.71
4040.54
4041.25
4041.84
4042.33
4042.74
4043.14
4043.59
4044.13
4038.05
4039.04
4039.88
4040.6
4041.2
4041.68
4042.1
4042.5
4042.94
4043.48
4037.38
4038.38
4039.22
4039.94
4040.54
4041.04
4041.46
4041.86
4042.29
4042.83
4036.69
4037.7
4038.56
4039.28
4039.89
4040.39
4040.81
4041.2
4041.65
4042.17
4036.01
4037.02
4037.89
4038.62
4039.23
4039.74
4040.17
4040.55
4040.99
4041.51
4035.32
4036.34
4037.21
4037.95
4038.56
4039.08
4039.51
4039.9
4040.33
4040.85
4034.63
4035.65
4036.54
4037.28
4037.9
4038.42
4038.85
4039.24
4039.67
4040.17
4033.93
4034.96
4035.85
4036.6
4037.23
4037.74
4038.18
4038.57
4039
4039.51
4033.22
4034.26
4035.16
4035.92
4036.55
4037.07
4037.51
4037.9
4038.33
4038.82
4032.51
4033.56
4034.46
4035.22
4035.87
4036.4
4036.83
4037.24
4037.65
4038.14
4031.8
4032.85
4033.76
4034.53
4035.17
4035.71
4036.16
4036.55
4036.97
4037.45
4031.08
4032.14
4033.05
4033.83
4034.48
4035.02
4035.47
4035.88
4036.28
4036.76
4030.36
4031.42
4032.34
4033.13
4033.79
4034.32
4034.78
4035.18
4035.59
4036.06
4029.63
4030.69
4031.62
4032.42
4033.09
4033.63
4034.08
4034.49
4034.89
4035.36
4028.9
4029.97
4030.9
4031.7
4032.38
4032.93
4033.39
4033.8
4034.2
4034.65
4028.16
4029.23
4030.17
4030.98
4031.66
4032.22
4032.69
4033.1
4033.49
4033.94
4027.43
4028.5
4029.45
4030.27
4030.94
4031.51
4031.98
4032.39
4032.78
4033.23
4026.69
4027.77
4028.71
4029.53
4030.22
4030.79
4031.26
4031.68
4032.07
4032.5
4025.96
4027.03
4027.98
4028.8
4029.5
4030.08
4030.55
4030.96
4031.35
4031.78
4025.22
4026.3
4027.25
4028.07
4028.77
4029.35
4029.83
4030.24
4030.63
4031.04
4024.5
4025.57
4026.52
4027.34
4028.04
4028.62
4029.1
4029.51
4029.89
4030.31
4023.79
4024.85
4025.79
4026.6
4027.3
4027.88
4028.37
4028.77
4029.15
4029.56
4023.09
4024.14
4025.06
4025.88
4026.57
4027.15
4027.63
4028.03
4028.41
4028.8
4022.41
4023.44
4024.35
4025.15
4025.83
4026.4
4026.87
4027.28
4027.64
4028.02
4021.77
4022.77
4023.65
4024.42
4025.09
4025.65
4026.12
4026.51
4026.87
4027.22
4021.17
4022.13
4022.98
4023.72
4024.36
4024.89
4025.35
4025.72
4026.06
4026.4
4020.65
4021.55
4022.34
4023.03
4023.62
4024.13
4024.55
4024.9
4025.22
4025.53
4020.2
4021.03
4021.73
4022.36
4022.89
4023.34
4023.72
4024.04
4024.32
4024.59
4019.85
4020.57
4021.19
4021.72
4022.16
4022.52
4022.82
4023.07
4023.29
4023.53
4019.71
4020.3
4020.78
4021.16
4021.45
4021.69
4021.85
4021.97
4022.04
4022.05
4021.6
4021.95
4022.18
4022.33
4022.41
4022.44
4022.45
4022.45
4022.45
4022.44
4023.15
4023.3
4023.36
4023.35
4023.29
4023.22
4023.14
4023.03
4022.9
4022.72
4024.16
4024.17
4024.1
4024
4023.87
4023.71
4023.54
4023.37
4023.19
4022.96
4024.73
4024.63
4024.5
4024.33
4024.16
4023.96
4023.77
4023.58
4023.38
4023.13
4024.99
4024.84
4024.66
4024.47
4024.28
4024.09
4023.9
4023.71
4023.52
4023.27
4025.09
4024.89
4024.7
4024.51
4024.33
4024.15
4023.98
4023.81
4023.62
4023.38
4025.09
4024.87
4024.67
4024.5
4024.33
4024.18
4024.02
4023.86
4023.7
4023.48
4025.08
4024.84
4024.65
4024.48
4024.33
4024.18
4024.04
4023.91
4023.76
4023.57
4025.05
4024.8
4024.61
4024.46
4024.32
4024.18
4024.06
4023.95
4023.81
4023.64
4025.02
4024.76
4024.57
4024.42
4024.3
4024.18
4024.07
4023.96
4023.85
4023.71
4024.97
4024.7
4024.52
4024.38
4024.27
4024.17
4024.08
4023.98
4023.88
4023.76
4024.89
4024.62
4024.45
4024.33
4024.23
4024.14
4024.07
4023.99
4023.9
4023.8
4024.8
4024.52
4024.37
4024.26
4024.18
4024.11
4024.05
4023.99
4023.92
4023.84
4024.68
4024.39
4024.26
4024.18
4024.12
4024.07
4024.03
4023.98
4023.93
4023.86
4024.56
4024.26
4024.15
4024.09
4024.06
4024.03
4024
4023.96
4023.92
4023.88
4024.49
4024.14
4024.04
4024.01
4024
4023.98
4023.95
4023.94
4023.91
4023.89
4024.75
4024.14
4023.99
4023.95
4023.95
4023.94
4023.93
4023.92
4023.91
4023.9
4031.29
4031.5
4031.63
4031.7
4031.77
4031.81
4031.85
4031.87
4031.9
4031.92
4031.96
4030.83
4031.14
4031.32
4031.44
4031.52
4031.58
4031.62
4031.64
4031.67
4031.68
4031.68
4030.31
4030.7
4030.93
4031.08
4031.18
4031.25
4031.3
4031.33
4031.35
4031.35
4031.36
4029.66
4030.16
4030.45
4030.64
4030.76
4030.85
4030.91
4030.95
4030.97
4030.97
4030.97
4028.86
4029.48
4029.87
4030.11
4030.27
4030.39
4030.46
4030.5
4030.53
4030.53
4030.51
4027.95
4028.71
4029.2
4029.51
4029.72
4029.86
4029.95
4030.01
4030.03
4030.02
4029.97
4026.9
4027.82
4028.43
4028.82
4029.08
4029.25
4029.37
4029.42
4029.44
4029.41
4029.33
4025.69
4026.78
4027.52
4028
4028.33
4028.54
4028.67
4028.74
4028.75
4028.7
4028.58
4024.33
4025.57
4026.45
4027.05
4027.44
4027.7
4027.86
4027.92
4027.92
4027.86
4027.7
4022.81
4024.19
4025.21
4025.91
4026.39
4026.7
4026.88
4026.97
4026.95
4026.86
4026.66
4021.09
4022.58
4023.73
4024.54
4025.1
4025.46
4025.68
4025.77
4025.74
4025.62
4025.39
4019.09
4020.65
4021.9
4022.8
4023.44
4023.86
4024.12
4024.22
4024.18
4024.04
4023.77
4016.67
4018.29
4019.61
4020.59
4021.28
4021.76
4022.04
4022.16
4022.12
4021.97
4021.69
4013.74
4015.41
4016.79
4017.84
4018.61
4019.14
4019.46
4019.61
4019.61
4019.47
4019.18
4010.54
4012.23
4013.67
4014.78
4015.61
4016.2
4016.59
4016.78
4016.81
4016.69
4016.41
4007.26
4008.95
4010.41
4011.56
4012.45
4013.09
4013.52
4013.77
4013.83
4013.74
4013.49
4003.95
4005.59
4007.05
4008.22
4009.14
4009.81
4010.28
4010.57
4010.67
4010.62
4010.42
4000.62
4002.2
4003.63
4004.79
4005.71
4006.4
4006.89
4007.21
4007.35
4007.32
4007.16
3997.31
3998.8
4000.17
4001.29
4002.18
4002.87
4003.36
4003.68
4003.85
4003.86
4003.72
3994.02
3995.42
3996.7
3997.75
3998.6
3999.25
3999.72
4000.05
4000.22
4000.24
4000.11
3990.79
3992.07
3993.25
3994.21
3994.99
3995.58
3996.02
3996.32
3996.47
3996.49
3996.37
3987.63
3988.78
3989.84
3990.71
3991.39
3991.91
3992.29
3992.54
3992.67
3992.66
3992.54
3984.56
3985.59
3986.52
3987.26
3987.84
3988.26
3988.57
3988.76
3988.84
3988.82
3988.68
3981.69
3982.61
3983.43
3984.07
3984.54
3984.89
3985.12
3985.25
3985.29
3985.24
3985.07
3979.22
3980.07
3980.79
3981.34
3981.75
3982.02
3982.19
3982.28
3982.28
3982.18
3981.99
3977.11
3977.89
3978.55
3979.02
3979.35
3979.58
3979.69
3979.73
3979.68
3979.55
3979.35
3975.21
3975.95
3976.53
3976.95
3977.22
3977.38
3977.46
3977.44
3977.36
3977.2
3976.97
3973.4
3974.08
3974.6
3974.96
3975.17
3975.29
3975.31
3975.26
3975.14
3974.96
3974.71
3971.57
3972.21
3972.67
3972.97
3973.13
3973.19
3973.18
3973.08
3972.94
3972.72
3972.46
3969.68
3970.29
3970.7
3970.93
3971.05
3971.07
3971.01
3970.89
3970.71
3970.48
3970.19
3967.66
3968.24
3968.6
3968.8
3968.88
3968.86
3968.77
3968.61
3968.41
3968.17
3967.87
3965.47
3965.99
3966.3
3966.45
3966.49
3966.44
3966.34
3966.16
3965.95
3965.68
3965.38
3963.04
3963.41
3963.61
3963.7
3963.69
3963.61
3963.47
3963.29
3963.07
3962.8
3962.5
3960.42
3960.47
3960.45
3960.37
3960.25
3960.08
3959.88
3959.66
3959.41
3959.13
3958.84
3958.22
3957.96
3957.7
3957.43
3957.14
3956.84
3956.53
3956.21
3955.88
3955.55
3955.2
4020.06
4020.11
4020.18
4020.27
4020.41
4020.58
4020.79
4021.05
4021.36
4021.77
4022.31
4023.06
4024.06
4025.2
4026.45
4027.82
4029.24
4030.73
4032.25
4033.9
4036.25
4038.08
4039.77
4041.3
4042.53
4043.52
4044.33
4045.03
4045.64
4046.17
4046.61
4046.97
4047.27
4047.45
4047.57
4020.42
4020.55
4020.73
4020.93
4021.19
4021.49
4021.83
4022.24
4022.69
4023.24
4023.91
4024.78
4025.83
4026.95
4028.11
4029.31
4030.52
4031.74
4032.97
4034.31
4035.92
4037.28
4038.58
4039.8
4040.83
4041.72
4042.49
4043.19
4043.82
4044.39
4044.89
4045.33
4045.7
4045.96
4046.14
4021.12
4021.39
4021.73
4022.12
4022.56
4023.04
4023.55
4024.09
4024.66
4025.28
4025.99
4026.82
4027.74
4028.68
4029.62
4030.57
4031.53
4032.49
4033.47
4034.45
4035.52
4036.52
4037.45
4038.29
4039.04
4039.73
4040.37
4041
4041.63
4042.24
4042.86
4043.45
4044.03
4044.47
4044.78
4020.63
4021
4021.42
4021.88
4022.37
4022.88
4023.41
4023.95
4024.52
4025.12
4025.79
4026.56
4027.44
4028.33
4029.23
4030.14
4031.06
4031.98
4032.92
4033.87
4034.89
4035.84
4036.72
4037.51
4038.19
4038.81
4039.39
4039.96
4040.52
4041.08
4041.64
4042.2
4042.77
4043.24
4043.61
4020.07
4020.5
4020.98
4021.47
4021.98
4022.52
4023.05
4023.61
4024.16
4024.75
4025.41
4026.16
4027.01
4027.87
4028.76
4029.64
4030.53
4031.43
4032.34
4033.24
4034.2
4035.12
4035.98
4036.73
4037.38
4037.97
4038.52
4039.07
4039.61
4040.15
4040.68
4041.21
4041.76
4042.24
4042.64
4019.47
4019.93
4020.42
4020.94
4021.47
4022.02
4022.57
4023.12
4023.67
4024.26
4024.9
4025.65
4026.48
4027.34
4028.19
4029.07
4029.94
4030.83
4031.71
4032.61
4033.52
4034.41
4035.26
4035.99
4036.63
4037.2
4037.73
4038.27
4038.8
4039.32
4039.85
4040.37
4040.87
4041.33
4041.75
4018.81
4019.28
4019.8
4020.32
4020.87
4021.42
4021.97
4022.53
4023.09
4023.67
4024.31
4025.04
4025.88
4026.73
4027.58
4028.44
4029.31
4030.18
4031.06
4031.94
4032.82
4033.71
4034.55
4035.27
4035.89
4036.45
4036.99
4037.51
4038.04
4038.56
4039.08
4039.6
4040.09
4040.52
4040.92
4018.1
4018.57
4019.09
4019.63
4020.19
4020.75
4021.31
4021.87
4022.43
4023.01
4023.66
4024.38
4025.22
4026.07
4026.92
4027.78
4028.65
4029.51
4030.39
4031.26
4032.14
4033.01
4033.84
4034.56
4035.18
4035.74
4036.26
4036.79
4037.31
4037.84
4038.36
4038.88
4039.36
4039.77
4040.15
4017.36
4017.82
4018.35
4018.91
4019.47
4020.04
4020.6
4021.16
4021.73
4022.31
4022.95
4023.68
4024.52
4025.37
4026.23
4027.09
4027.96
4028.82
4029.69
4030.57
4031.44
4032.31
4033.14
4033.85
4034.47
4035.03
4035.55
4036.08
4036.6
4037.13
4037.65
4038.18
4038.66
4039.06
4039.41
4016.59
4017.04
4017.58
4018.14
4018.71
4019.28
4019.85
4020.41
4020.98
4021.57
4022.21
4022.96
4023.79
4024.65
4025.51
4026.37
4027.24
4028.1
4028.98
4029.86
4030.74
4031.6
4032.43
4033.14
4033.76
4034.32
4034.85
4035.38
4035.91
4036.43
4036.96
4037.48
4037.96
4038.36
4038.7
4015.79
4016.24
4016.78
4017.35
4017.92
4018.5
4019.07
4019.65
4020.22
4020.81
4021.45
4022.2
4023.04
4023.9
4024.77
4025.64
4026.5
4027.38
4028.26
4029.13
4030.02
4030.89
4031.72
4032.43
4033.05
4033.61
4034.14
4034.68
4035.21
4035.74
4036.26
4036.79
4037.28
4037.67
4038
4014.97
4015.41
4015.96
4016.53
4017.11
4017.7
4018.28
4018.86
4019.43
4020.03
4020.68
4021.42
4022.27
4023.15
4024.01
4024.89
4025.76
4026.64
4027.52
4028.41
4029.29
4030.17
4031
4031.72
4032.34
4032.91
4033.44
4033.97
4034.51
4035.04
4035.57
4036.11
4036.59
4036.99
4037.32
4014.14
4014.57
4015.13
4015.7
4016.29
4016.88
4017.47
4018.05
4018.63
4019.23
4019.89
4020.64
4021.49
4022.37
4023.24
4024.12
4025
4025.88
4026.78
4027.67
4028.56
4029.44
4030.27
4031
4031.63
4032.19
4032.73
4033.27
4033.8
4034.34
4034.88
4035.41
4035.9
4036.3
4036.63
4013.29
4013.72
4014.28
4014.86
4015.46
4016.05
4016.64
4017.23
4017.82
4018.42
4019.08
4019.84
4020.7
4021.58
4022.47
4023.35
4024.23
4025.13
4026.02
4026.92
4027.82
4028.7
4029.54
4030.27
4030.9
4031.47
4032.01
4032.55
4033.1
4033.63
4034.18
4034.71
4035.21
4035.61
4035.94
4012.42
4012.86
4013.42
4014.01
4014.61
4015.22
4015.81
4016.4
4016.99
4017.59
4018.26
4019.02
4019.89
4020.79
4021.68
4022.57
4023.46
4024.35
4025.26
4026.16
4027.06
4027.96
4028.8
4029.54
4030.17
4030.74
4031.3
4031.84
4032.39
4032.92
4033.47
4034.01
4034.51
4034.91
4035.25
4011.55
4011.98
4012.56
4013.15
4013.76
4014.37
4014.96
4015.56
4016.15
4016.77
4017.44
4018.2
4019.08
4019.98
4020.88
4021.77
4022.67
4023.57
4024.48
4025.39
4026.31
4027.2
4028.05
4028.8
4029.44
4030.02
4030.56
4031.11
4031.66
4032.21
4032.76
4033.3
4033.8
4034.21
4034.55
4010.66
4011.1
4011.69
4012.29
4012.9
4013.51
4014.11
4014.71
4015.31
4015.93
4016.6
4017.38
4018.25
4019.16
4020.07
4020.97
4021.88
4022.79
4023.71
4024.62
4025.54
4026.45
4027.3
4028.05
4028.7
4029.28
4029.83
4030.38
4030.94
4031.49
4032.04
4032.59
4033.1
4033.51
4033.85
4009.77
4010.22
4010.8
4011.41
4012.02
4012.64
4013.25
4013.86
4014.46
4015.08
4015.76
4016.54
4017.43
4018.34
4019.25
4020.16
4021.07
4021.99
4022.91
4023.84
4024.76
4025.68
4026.54
4027.3
4027.95
4028.53
4029.09
4029.65
4030.21
4030.76
4031.32
4031.87
4032.38
4032.79
4033.14
4008.87
4009.32
4009.91
4010.53
4011.15
4011.77
4012.38
4012.99
4013.6
4014.23
4014.91
4015.7
4016.59
4017.51
4018.43
4019.35
4020.27
4021.19
4022.12
4023.05
4023.99
4024.91
4025.78
4026.54
4027.2
4027.78
4028.34
4028.91
4029.47
4030.03
4030.59
4031.15
4031.66
4032.07
4032.42
4007.97
4008.42
4009.02
4009.64
4010.27
4010.89
4011.5
4012.12
4012.73
4013.36
4014.05
4014.85
4015.75
4016.68
4017.6
4018.53
4019.45
4020.39
4021.32
4022.26
4023.2
4024.14
4025.01
4025.78
4026.43
4027.03
4027.59
4028.16
4028.73
4029.29
4029.85
4030.41
4030.93
4031.35
4031.7
4007.05
4007.51
4008.11
4008.74
4009.38
4010
4010.63
4011.24
4011.86
4012.49
4013.2
4014
4014.9
4015.84
4016.77
4017.7
4018.63
4019.57
4020.52
4021.46
4022.41
4023.35
4024.23
4025
4025.67
4026.26
4026.84
4027.41
4027.98
4028.55
4029.12
4029.68
4030.2
4030.62
4030.97
4006.13
4006.6
4007.21
4007.84
4008.48
4009.11
4009.74
4010.37
4010.99
4011.63
4012.33
4013.14
4014.05
4014.99
4015.93
4016.87
4017.81
4018.76
4019.71
4020.66
4021.62
4022.57
4023.46
4024.23
4024.89
4025.5
4026.08
4026.65
4027.23
4027.81
4028.38
4028.95
4029.46
4029.89
4030.24
4005.2
4005.68
4006.3
4006.94
4007.58
4008.22
4008.85
4009.48
4010.1
4010.75
4011.46
4012.27
4013.2
4014.14
4015.09
4016.03
4016.98
4017.94
4018.9
4019.86
4020.82
4021.78
4022.68
4023.45
4024.13
4024.73
4025.32
4025.89
4026.48
4027.06
4027.63
4028.19
4028.71
4029.14
4029.51
4004.27
4004.76
4005.38
4006.03
4006.68
4007.32
4007.96
4008.59
4009.22
4009.87
4010.59
4011.41
4012.33
4013.29
4014.24
4015.19
4016.15
4017.11
4018.08
4019.05
4020.02
4020.98
4021.88
4022.67
4023.34
4023.96
4024.55
4025.13
4025.72
4026.3
4026.87
4027.45
4027.97
4028.4
4028.76
4003.34
4003.83
4004.47
4005.12
4005.77
4006.42
4007.07
4007.7
4008.34
4008.99
4009.71
4010.54
4011.47
4012.44
4013.39
4014.35
4015.32
4016.29
4017.26
4018.24
4019.22
4020.18
4021.1
4021.88
4022.57
4023.19
4023.78
4024.37
4024.95
4025.54
4026.12
4026.7
4027.22
4027.65
4028.02
4002.4
4002.91
4003.55
4004.21
4004.86
4005.52
4006.17
4006.81
4007.45
4008.11
4008.84
4009.66
4010.61
4011.58
4012.54
4013.51
4014.48
4015.46
4016.45
4017.43
4018.42
4019.39
4020.31
4021.1
4021.78
4022.41
4023.01
4023.6
4024.19
4024.79
4025.36
4025.95
4026.47
4026.9
4027.28
4001.46
4001.98
4002.63
4003.3
4003.96
4004.62
4005.28
4005.92
4006.56
4007.23
4007.97
4008.8
4009.75
4010.72
4011.69
4012.68
4013.65
4014.64
4015.63
4016.62
4017.61
4018.6
4019.52
4020.32
4021.01
4021.64
4022.24
4022.83
4023.43
4024.03
4024.61
4025.19
4025.72
4026.15
4026.53
4000.52
4001.05
4001.71
4002.39
4003.06
4003.72
4004.38
4005.03
4005.68
4006.35
4007.09
4007.93
4008.89
4009.87
4010.85
4011.83
4012.82
4013.81
4014.81
4015.81
4016.82
4017.81
4018.74
4019.54
4020.23
4020.87
4021.47
4022.07
4022.68
4023.27
4023.86
4024.44
4024.96
4025.4
4025.78
3999.59
4000.14
4000.8
4001.48
4002.16
4002.83
4003.49
4004.15
4004.8
4005.47
4006.22
4007.07
4008.04
4009.03
4010.01
4011.01
4012
4013.01
4014.01
4015.02
4016.03
4017.02
4017.96
4018.76
4019.47
4020.1
4020.71
4021.31
4021.92
4022.52
4023.11
4023.7
4024.22
4024.66
4025.03
3998.66
3999.21
3999.9
4000.58
4001.27
4001.94
4002.61
4003.27
4003.93
4004.62
4005.36
4006.22
4007.19
4008.19
4009.19
4010.18
4011.19
4012.2
4013.21
4014.23
4015.25
4016.26
4017.2
4018.01
4018.71
4019.35
4019.96
4020.57
4021.17
4021.78
4022.37
4022.96
4023.48
4023.91
4024.29
3997.74
3998.3
3998.99
3999.69
4000.38
4001.07
4001.74
4002.41
4003.07
4003.76
4004.51
4005.38
4006.36
4007.36
4008.37
4009.38
4010.39
4011.41
4012.44
4013.46
4014.48
4015.5
4016.45
4017.26
4017.96
4018.61
4019.23
4019.84
4020.45
4021.05
4021.64
4022.23
4022.74
4023.18
4023.56
3996.82
3997.41
3998.1
3998.81
3999.51
4000.19
4000.88
4001.56
4002.22
4002.92
4003.68
4004.55
4005.54
4006.55
4007.57
4008.59
4009.62
4010.65
4011.68
4012.71
4013.75
4014.77
4015.73
4016.54
4017.25
4017.89
4018.51
4019.13
4019.73
4020.34
4020.93
4021.52
4022.02
4022.46
4022.84
3995.91
3996.51
3997.22
3997.93
3998.64
3999.34
4000.04
4000.71
4001.39
4002.09
4002.86
4003.74
4004.74
4005.77
4006.8
4007.83
4008.86
4009.91
4010.95
4012
4013.04
4014.07
4015.04
4015.85
4016.56
4017.21
4017.82
4018.44
4019.05
4019.66
4020.25
4020.83
4021.34
4021.76
4022.14
3995.02
3995.62
3996.35
3997.08
3997.79
3998.5
3999.2
3999.89
4000.57
4001.28
4002.06
4002.95
4003.96
4005.01
4006.06
4007.11
4008.16
4009.21
4010.27
4011.32
4012.37
4013.42
4014.38
4015.21
4015.92
4016.56
4017.19
4017.8
4018.41
4019.01
4019.61
4020.18
4020.68
4021.09
4021.46
3994.14
3994.75
3995.48
3996.23
3996.96
3997.68
3998.39
3999.09
3999.78
4000.5
4001.29
4002.2
4003.23
4004.29
4005.35
4006.42
4007.49
4008.56
4009.63
4010.7
4011.77
4012.82
4013.8
4014.62
4015.34
4015.98
4016.6
4017.22
4017.82
4018.42
4019
4019.57
4020.06
4020.47
4020.84
3993.26
3993.87
3994.63
3995.38
3996.13
3996.87
3997.6
3998.3
3999.01
3999.74
4000.55
4001.47
4002.52
4003.61
4004.7
4005.79
4006.88
4007.97
4009.07
4010.16
4011.24
4012.3
4013.29
4014.12
4014.84
4015.48
4016.1
4016.71
4017.31
4017.91
4018.48
4019.04
4019.51
4019.9
4020.26
3992.36
3992.98
3993.76
3994.53
3995.3
3996.06
3996.81
3997.55
3998.27
3999.01
3999.84
4000.79
4001.87
4002.99
4004.11
4005.23
4006.36
4007.48
4008.59
4009.71
4010.8
4011.88
4012.88
4013.72
4014.44
4015.09
4015.7
4016.31
4016.91
4017.49
4018.05
4018.59
4019.05
4019.42
4019.76
3991.45
3992.09
3992.88
3993.67
3994.47
3995.26
3996.04
3996.8
3997.55
3998.32
3999.17
4000.15
4001.27
4002.43
4003.6
4004.76
4005.93
4007.08
4008.24
4009.38
4010.51
4011.61
4012.62
4013.46
4014.19
4014.83
4015.45
4016.05
4016.63
4017.2
4017.74
4018.26
4018.7
4019.05
4019.38
3990.47
3991.13
3991.95
3992.79
3993.62
3994.45
3995.29
3996.07
3996.85
3997.65
3998.54
3999.57
4000.75
4001.98
4003.21
4004.43
4005.66
4006.87
4008.06
4009.25
4010.42
4011.55
4012.59
4013.46
4014.19
4014.83
4015.43
4016.02
4016.57
4017.11
4017.63
4018.1
4018.5
4018.82
4019.1
3989.33
3990.05
3990.96
3991.87
3992.77
3993.66
3994.53
3995.38
3996.21
3997.07
3998.02
3999.11
4000.36
4001.66
4002.97
4004.26
4005.55
4006.83
4008.09
4009.33
4010.55
4011.72
4012.78
4013.66
4014.4
4015.04
4015.64
4016.22
4016.75
4017.27
4017.75
4018.2
4018.56
4018.85
4019.09
3988.63
3989.46
3990.5
3991.53
3992.55
3993.55
3994.51
3995.45
3996.38
3997.35
3998.41
3999.64
4001.06
4002.55
4004.02
4005.5
4006.97
4008.42
4009.85
4011.26
4012.63
4013.94
4015.12
4016.08
4016.86
4017.54
4018.15
4018.71
4019.23
4019.7
4020.12
4020.5
4020.79
4021.01
4021.18
3988.19
3989.1
3990.23
3991.35
3992.45
3993.52
3994.55
3995.57
3996.6
3997.65
3998.82
4000.19
4001.75
4003.4
4005.06
4006.71
4008.35
4009.97
4011.57
4013.13
4014.64
4016.08
4017.35
4018.37
4019.18
4019.85
4020.44
4020.96
4021.42
4021.82
4022.16
4022.44
4022.66
4022.8
4022.91
3987.86
3988.83
3990.03
3991.2
3992.35
3993.48
3994.58
3995.67
3996.77
3997.91
3999.17
4000.64
4002.35
4004.15
4005.97
4007.78
4009.57
4011.34
4013.08
4014.78
4016.42
4017.96
4019.31
4020.35
4021.15
4021.78
4022.31
4022.75
4023.12
4023.42
4023.65
4023.83
4023.95
4024.03
4024.08
3987.58
3988.6
3989.84
3991.05
3992.23
3993.4
3994.55
3995.71
3996.87
3998.08
3999.43
4000.99
4002.81
4004.76
4006.7
4008.64
4010.57
4012.48
4014.35
4016.17
4017.92
4019.56
4020.93
4021.97
4022.72
4023.29
4023.71
4024.05
4024.31
4024.5
4024.62
4024.7
4024.74
4024.75
4024.75
3987.26
3988.31
3989.58
3990.83
3992.04
3993.25
3994.44
3995.65
3996.87
3998.15
3999.56
4001.2
4003.12
4005.19
4007.26
4009.31
4011.36
4013.38
4015.36
4017.29
4019.13
4020.82
4022.22
4023.22
4023.9
4024.37
4024.7
4024.93
4025.08
4025.16
4025.19
4025.18
4025.16
4025.13
4025.08
3986.84
3987.92
3989.21
3990.49
3991.74
3992.98
3994.23
3995.49
3996.76
3998.09
3999.57
4001.27
4003.27
4005.44
4007.61
4009.76
4011.91
4014.03
4016.11
4018.12
4020.03
4021.77
4023.18
4024.15
4024.76
4025.14
4025.37
4025.5
4025.55
4025.55
4025.5
4025.42
4025.35
4025.28
4025.22
3986.27
3987.37
3988.69
3989.99
3991.28
3992.57
3993.87
3995.19
3996.52
3997.91
3999.43
4001.21
4003.28
4005.52
4007.76
4010
4012.23
4014.44
4016.59
4018.67
4020.64
4022.42
4023.86
4024.81
4025.37
4025.68
4025.83
4025.88
4025.85
4025.78
4025.66
4025.54
4025.42
4025.33
4025.26
3985.53
3986.64
3987.98
3989.33
3990.67
3992
3993.35
3994.72
3996.1
3997.55
3999.15
4000.98
4003.11
4005.43
4007.76
4010.08
4012.37
4014.62
4016.83
4018.96
4020.98
4022.81
4024.29
4025.27
4025.81
4026.09
4026.2
4026.18
4026.09
4025.94
4025.78
4025.6
4025.46
4025.35
4025.26
3984.61
3985.72
3987.12
3988.5
3989.89
3991.27
3992.67
3994.09
3995.53
3997.03
3998.68
4000.58
4002.78
4005.18
4007.59
4009.97
4012.33
4014.65
4016.9
4019.08
4021.13
4023
4024.53
4025.56
4026.14
4026.43
4026.51
4026.46
4026.31
4026.12
4025.89
4025.67
4025.49
4025.36
4025.26
3983.54
3984.65
3986.09
3987.54
3988.97
3990.4
3991.85
3993.32
3994.82
3996.37
3998.07
4000.03
4002.31
4004.77
4007.25
4009.71
4012.13
4014.51
4016.81
4019.03
4021.12
4023.05
4024.65
4025.77
4026.42
4026.75
4026.85
4026.78
4026.59
4026.32
4026.03
4025.75
4025.53
4025.36
4025.25
3982.32
3983.44
3984.95
3986.45
3987.93
3989.42
3990.92
3992.44
3993.98
3995.59
3997.35
3999.37
4001.71
4004.25
4006.79
4009.33
4011.81
4014.24
4016.6
4018.86
4021
4022.98
4024.66
4025.88
4026.64
4027.06
4027.2
4027.14
4026.92
4026.59
4026.22
4025.86
4025.57
4025.37
4025.23
3981.02
3982.13
3983.72
3985.29
3986.83
3988.36
3989.91
3991.49
3993.08
3994.73
3996.54
3998.62
4001.03
4003.64
4006.26
4008.85
4011.4
4013.88
4016.29
4018.6
4020.79
4022.82
4024.58
4025.93
4026.8
4027.31
4027.55
4027.54
4027.32
4026.94
4026.48
4026.01
4025.63
4025.37
4025.2
3979.69
3980.77
3982.45
3984.1
3985.69
3987.28
3988.88
3990.5
3992.13
3993.83
3995.7
3997.83
4000.3
4002.97
4005.66
4008.31
4010.92
4013.46
4015.93
4018.28
4020.51
4022.59
4024.43
4025.87
4026.86
4027.5
4027.86
4027.95
4027.78
4027.39
4026.85
4026.25
4025.73
4025.39
4025.16
3978.36
3979.43
3981.2
3982.92
3984.57
3986.21
3987.85
3989.52
3991.19
3992.93
3994.84
3997.03
3999.55
4002.29
4005.02
4007.73
4010.4
4013
4015.51
4017.91
4020.19
4022.32
4024.22
4025.74
4026.83
4027.59
4028.08
4028.31
4028.27
4027.96
4027.38
4026.63
4025.93
4025.44
4025.12
3977.06
3978.12
3980.01
3981.79
3983.49
3985.17
3986.86
3988.56
3990.28
3992.05
3994
3996.23
3998.8
4001.59
4004.38
4007.14
4009.85
4012.49
4015.06
4017.51
4019.83
4022
4023.95
4025.53
4026.71
4027.58
4028.19
4028.57
4028.71
4028.57
4028.08
4027.26
4026.32
4025.6
4025.13
3975.68
3976.88
3978.88
3980.72
3982.46
3984.2
3985.92
3987.65
3989.39
3991.2
3993.17
3995.44
3998.06
4000.88
4003.71
4006.51
4009.27
4011.96
4014.57
4017.06
4019.42
4021.64
4023.63
4025.27
4026.51
4027.45
4028.16
4028.69
4029.03
4029.12
4028.88
4028.2
4027.11
4026.07
4025.29
3974.15
3975.72
3977.83
3979.73
3981.52
3983.28
3985.03
3986.79
3988.55
3990.38
3992.38
3994.67
3997.31
4000.16
4003.02
4005.85
4008.65
4011.38
4014.02
4016.55
4018.96
4021.22
4023.26
4024.95
4026.25
4027.24
4028.01
4028.64
4029.13
4029.47
4029.61
4029.41
4028.66
4027.5
4026.23
4021.44
4021.54
4021.64
4021.76
4021.89
4022.04
4022.22
4022.42
4022.66
4022.94
4023.3
4023.8
4024.49
4025.44
4026.63
4028.05
4029.6
4031.24
4032.95
4034.7
4036.48
4038.21
4039.85
4041.25
4042.37
4043.24
4043.96
4044.56
4045.06
4045.48
4045.83
4046.11
4046.31
4046.42
4046.51
4021.42
4021.52
4021.63
4021.74
4021.87
4022.02
4022.2
4022.4
4022.64
4022.93
4023.3
4023.81
4024.51
4025.47
4026.69
4028.12
4029.69
4031.35
4033.07
4034.85
4036.64
4038.4
4040.07
4041.49
4042.6
4043.46
4044.15
4044.73
4045.21
4045.62
4045.95
4046.21
4046.38
4046.49
4046.56
4021.4
4021.5
4021.6
4021.71
4021.84
4021.99
4022.17
4022.38
4022.62
4022.91
4023.29
4023.8
4024.52
4025.5
4026.72
4028.15
4029.72
4031.38
4033.13
4034.93
4036.74
4038.51
4040.19
4041.65
4042.75
4043.6
4044.28
4044.85
4045.32
4045.71
4046.02
4046.28
4046.44
4046.54
4046.6
4021.38
4021.47
4021.57
4021.69
4021.81
4021.96
4022.13
4022.34
4022.58
4022.87
4023.25
4023.76
4024.48
4025.47
4026.69
4028.12
4029.69
4031.36
4033.11
4034.93
4036.74
4038.52
4040.23
4041.71
4042.82
4043.67
4044.35
4044.91
4045.37
4045.76
4046.07
4046.32
4046.49
4046.58
4046.63
4021.36
4021.45
4021.55
4021.65
4021.77
4021.92
4022.09
4022.29
4022.53
4022.82
4023.19
4023.7
4024.41
4025.39
4026.6
4028.01
4029.58
4031.25
4033.01
4034.84
4036.67
4038.47
4040.2
4041.69