/*--------------------------------*- C++ -*----------------------------------*\
| =========                 |                                                 |
| \\      /  F ield         | OpenFOAM: The Open Source CFD Toolbox           |
|  \\    /   O peration     | Version:  2406                                  |
|   \\  /    A nd           | Website:  www.openfoam.com                      |
|    \\/     M anipulation  |                                                 |
\*---------------------------------------------------------------------------*/
FoamFile
{
    version     2.0;
    format      ascii;
    arch        "LSB;label=32;scalar=64";
    class       volScalarField;
    location    "0/neutroRegion";
    object      TCool;
}
// * * * * * * * * * * * * * * * * * * * * * * * * * * * * * * * * * * * * * //

dimensions      [0 0 0 1 0 0 0];

internalField   nonuniform List<scalar> 
8595
(
1076.1
1076.09
1076.08
1076.04
1075.99
1075.92
1075.81
1075.66
1075.46
1075.23
1074.99
1074.74
1074.49
1074.21
1073.96
1073.7
1073.36
1072.82
1070.9
1069.39
1067.98
1066.63
1065.3
1063.98
1062.68
1061.38
1060.09
1058.81
1057.53
1056.25
1054.99
1053.73
1052.49
1051.25
1050.02
1048.8
1047.59
1046.4
1045.21
1044.03
1042.86
1041.7
1040.56
1039.42
1038.29
1037.16
1036.04
1034.93
1033.82
1032.72
1031.6
1030.47
1029.32
1028.11
1026.81
1026.84
1026.88
1076.13
1076.16
1076.19
1076.22
1076.22
1076.18
1076.09
1075.92
1075.68
1075.41
1075.11
1074.8
1074.5
1074.21
1073.92
1073.6
1073.2
1072.55
1070.75
1069.23
1067.83
1066.49
1065.17
1063.88
1062.6
1061.32
1060.06
1058.8
1057.55
1056.3
1055.07
1053.84
1052.62
1051.41
1050.21
1049.02
1047.83
1046.66
1045.5
1044.34
1043.2
1042.06
1040.94
1039.82
1038.71
1037.6
1036.5
1035.41
1034.31
1033.22
1032.11
1030.99
1029.83
1028.62
1027.28
1027.14
1027.03
1076.15
1076.21
1076.28
1076.34
1076.38
1076.39
1076.31
1076.13
1075.85
1075.53
1075.16
1074.82
1074.49
1074.16
1073.83
1073.47
1073
1072.26
1070.52
1068.99
1067.59
1066.26
1064.95
1063.66
1062.39
1061.13
1059.87
1058.62
1057.38
1056.15
1054.93
1053.71
1052.5
1051.31
1050.12
1048.94
1047.77
1046.61
1045.46
1044.32
1043.18
1042.06
1040.94
1039.84
1038.74
1037.65
1036.56
1035.48
1034.4
1033.32
1032.23
1031.13
1030
1028.82
1027.52
1027.34
1027.15
1076.16
1076.24
1076.34
1076.45
1076.54
1076.59
1076.52
1076.31
1075.97
1075.6
1075.2
1074.8
1074.42
1074.06
1073.68
1073.26
1072.72
1071.88
1070.17
1068.65
1067.26
1065.93
1064.64
1063.36
1062.09
1060.84
1059.59
1058.35
1057.12
1055.89
1054.68
1053.47
1052.27
1051.08
1049.89
1048.72
1047.56
1046.4
1045.26
1044.12
1042.99
1041.87
1040.76
1039.66
1038.57
1037.48
1036.41
1035.33
1034.26
1033.2
1032.13
1031.05
1029.95
1028.81
1027.59
1027.45
1027.23
1076.17
1076.26
1076.4
1076.55
1076.69
1076.78
1076.69
1076.44
1076.06
1075.62
1075.15
1074.7
1074.27
1073.85
1073.43
1072.95
1072.33
1071.39
1069.69
1068.18
1066.81
1065.5
1064.21
1062.95
1061.7
1060.45
1059.21
1057.98
1056.76
1055.54
1054.33
1053.13
1051.93
1050.75
1049.57
1048.4
1047.24
1046.09
1044.95
1043.82
1042.69
1041.58
1040.47
1039.38
1038.29
1037.21
1036.14
1035.07
1034.01
1032.96
1031.9
1030.85
1029.79
1028.69
1027.54
1027.48
1027.28
1076.18
1076.28
1076.46
1076.66
1076.87
1076.96
1076.83
1076.51
1076.05
1075.53
1074.98
1074.46
1073.97
1073.5
1073.02
1072.48
1071.78
1070.74
1069.05
1067.56
1066.21
1064.92
1063.66
1062.41
1061.18
1059.95
1058.72
1057.5
1056.29
1055.08
1053.87
1052.68
1051.49
1050.31
1049.14
1047.97
1046.82
1045.67
1044.54
1043.41
1042.29
1041.18
1040.08
1038.99
1037.91
1036.83
1035.77
1034.71
1033.66
1032.62
1031.59
1030.56
1029.53
1028.49
1027.41
1027.45
1027.32
1076.21
1076.34
1076.57
1076.86
1077.12
1077.14
1076.91
1076.46
1075.87
1075.23
1074.59
1073.99
1073.44
1072.92
1072.4
1071.8
1071.04
1069.91
1068.24
1066.77
1065.45
1064.19
1062.95
1061.73
1060.51
1059.3
1058.09
1056.88
1055.68
1054.48
1053.29
1052.1
1050.92
1049.75
1048.59
1047.43
1046.28
1045.14
1044.01
1042.89
1041.77
1040.67
1039.57
1038.49
1037.41
1036.34
1035.29
1034.24
1033.2
1032.18
1031.17
1030.17
1029.18
1028.2
1027.2
1027.38
1027.32
1076.36
1076.53
1076.89
1077.3
1077.47
1077.3
1076.84
1076.17
1075.4
1074.6
1073.85
1073.16
1072.55
1072
1071.45
1070.82
1070.02
1068.86
1067.21
1065.79
1064.51
1063.27
1062.06
1060.86
1059.67
1058.48
1057.29
1056.1
1054.91
1053.73
1052.55
1051.38
1050.21
1049.04
1047.89
1046.74
1045.6
1044.47
1043.34
1042.23
1041.12
1040.02
1038.93
1037.86
1036.79
1035.73
1034.68
1033.65
1032.63
1031.62
1030.64
1029.68
1028.74
1027.82
1026.92
1027.25
1027.31
1077.13
1077.32
1077.93
1078.1
1077.85
1077.25
1076.41
1075.42
1074.39
1073.41
1072.53
1071.77
1071.14
1070.58
1070.04
1069.43
1068.66
1067.54
1065.94
1064.6
1063.35
1062.16
1060.97
1059.8
1058.64
1057.47
1056.31
1055.14
1053.97
1052.81
1051.64
1050.48
1049.32
1048.17
1047.03
1045.89
1044.76
1043.63
1042.52
1041.41
1040.31
1039.22
1038.14
1037.07
1036.01
1034.97
1033.93
1032.91
1031.91
1030.93
1029.98
1029.06
1028.18
1027.35
1026.56
1027.08
1027.28
1079.92
1079.92
1079.47
1078.72
1077.71
1076.5
1075.18
1073.83
1072.55
1071.41
1070.44
1069.65
1069.03
1068.52
1068.06
1067.54
1066.9
1065.93
1064.44
1063.18
1061.97
1060.8
1059.66
1058.53
1057.4
1056.27
1055.13
1053.99
1052.85
1051.7
1050.56
1049.41
1048.27
1047.13
1046
1044.87
1043.75
1042.64
1041.53
1040.43
1039.34
1038.26
1037.2
1036.14
1035.09
1034.05
1033.03
1032.03
1031.05
1030.1
1029.19
1028.32
1027.51
1026.76
1026.1
1026.85
1027.22
993.77
993.44
993.161
992.921
992.705
992.503
992.309
992.117
991.932
991.752
995.419
994.781
994.249
993.801
993.412
993.059
992.72
992.377
992.02
991.672
996.967
996.013
995.221
994.567
994.02
993.546
993.108
992.661
992.163
991.629
998.275
997.239
996.372
995.655
995.063
994.562
994.113
993.659
993.13
992.517
999.359
998.278
997.366
996.607
995.98
995.456
994.992
994.53
993.985
993.346
1000.34
999.221
998.278
997.489
996.836
996.293
995.818
995.351
994.798
994.143
1001.24
1000.1
999.135
998.325
997.654
997.097
996.613
996.142
995.586
994.924
1002.1
1000.94
999.961
999.135
998.45
997.883
997.393
996.919
996.363
995.699
1002.94
1001.76
1000.77
999.931
999.236
998.66
998.165
997.69
997.136
996.473
1003.76
1002.58
1001.57
1000.72
1000.02
999.435
998.935
998.459
997.909
997.249
1004.58
1003.38
1002.37
1001.51
1000.8
1000.21
999.707
999.23
998.684
998.029
1005.39
1004.19
1003.17
1002.3
1001.58
1000.99
1000.48
1000
999.462
998.813
1006.21
1005
1003.97
1003.1
1002.37
1001.77
1001.26
1000.78
1000.25
999.602
1007.04
1005.82
1004.78
1003.9
1003.16
1002.56
1002.05
1001.57
1001.03
1000.4
1007.87
1006.64
1005.59
1004.7
1003.96
1003.35
1002.83
1002.36
1001.83
1001.2
1008.7
1007.47
1006.41
1005.51
1004.77
1004.15
1003.63
1003.15
1002.63
1002
1009.54
1008.3
1007.23
1006.33
1005.58
1004.95
1004.43
1003.95
1003.43
1002.82
1010.39
1009.14
1008.06
1007.15
1006.39
1005.77
1005.24
1004.76
1004.24
1003.63
1011.25
1009.99
1008.9
1007.98
1007.21
1006.58
1006.05
1005.57
1005.06
1004.46
1012.11
1010.84
1009.75
1008.82
1008.04
1007.4
1006.87
1006.38
1005.88
1005.29
1012.97
1011.7
1010.6
1009.66
1008.88
1008.23
1007.69
1007.21
1006.7
1006.12
1013.84
1012.56
1011.45
1010.51
1009.72
1009.07
1008.52
1008.03
1007.54
1006.96
1014.72
1013.43
1012.32
1011.36
1010.56
1009.91
1009.36
1008.87
1008.37
1007.81
1015.6
1014.31
1013.19
1012.22
1011.41
1010.75
1010.2
1009.71
1009.22
1008.66
1016.49
1015.19
1014.06
1013.09
1012.27
1011.6
1011.04
1010.55
1010.06
1009.51
1017.38
1016.08
1014.94
1013.96
1013.14
1012.46
1011.89
1011.4
1010.92
1010.37
1018.27
1016.97
1015.82
1014.83
1014.01
1013.32
1012.75
1012.26
1011.78
1011.24
1019.16
1017.86
1016.71
1015.72
1014.88
1014.19
1013.62
1013.12
1012.64
1012.12
1020.05
1018.75
1017.6
1016.6
1015.76
1015.06
1014.49
1013.99
1013.51
1013
1020.94
1019.64
1018.49
1017.49
1016.64
1015.94
1015.36
1014.86
1014.39
1013.89
1021.82
1020.52
1019.37
1018.38
1017.53
1016.83
1016.24
1015.74
1015.28
1014.78
1022.68
1021.4
1020.26
1019.27
1018.42
1017.72
1017.13
1016.64
1016.18
1015.69
1023.53
1022.26
1021.14
1020.15
1019.31
1018.61
1018.03
1017.54
1017.08
1016.61
1024.35
1023.1
1022
1021.03
1020.21
1019.52
1018.94
1018.45
1018.01
1017.55
1025.13
1023.92
1022.85
1021.91
1021.1
1020.42
1019.86
1019.38
1018.95
1018.52
1025.85
1024.69
1023.66
1022.76
1021.99
1021.34
1020.79
1020.34
1019.93
1019.52
1026.49
1025.4
1024.44
1023.6
1022.88
1022.27
1021.76
1021.33
1020.95
1020.57
1027.03
1026.03
1025.17
1024.41
1023.77
1023.22
1022.76
1022.38
1022.04
1021.71
1027.46
1026.58
1025.83
1025.19
1024.66
1024.22
1023.85
1023.55
1023.28
1023
1027.62
1026.91
1026.33
1025.87
1025.51
1025.23
1025.03
1024.88
1024.8
1024.79
1025.33
1024.91
1024.63
1024.45
1024.35
1024.31
1024.3
1024.3
1024.3
1024.31
1023.46
1023.27
1023.2
1023.21
1023.28
1023.37
1023.47
1023.6
1023.76
1023.97
1022.23
1022.22
1022.3
1022.43
1022.58
1022.77
1022.98
1023.19
1023.41
1023.69
1021.54
1021.66
1021.82
1022.02
1022.23
1022.47
1022.7
1022.93
1023.17
1023.48
1021.22
1021.41
1021.63
1021.85
1022.08
1022.31
1022.54
1022.77
1023.01
1023.31
1021.1
1021.35
1021.58
1021.81
1022.03
1022.24
1022.45
1022.66
1022.89
1023.17
1021.1
1021.37
1021.61
1021.82
1022.02
1022.21
1022.4
1022.59
1022.79
1023.05
1021.12
1021.41
1021.64
1021.84
1022.03
1022.2
1022.37
1022.53
1022.72
1022.95
1021.15
1021.45
1021.68
1021.87
1022.04
1022.2
1022.35
1022.49
1022.65
1022.86
1021.19
1021.5
1021.73
1021.91
1022.06
1022.2
1022.34
1022.47
1022.61
1022.78
1021.25
1021.57
1021.79
1021.96
1022.1
1022.22
1022.33
1022.45
1022.57
1022.72
1021.34
1021.67
1021.88
1022.03
1022.14
1022.25
1022.34
1022.44
1022.54
1022.67
1021.46
1021.8
1021.98
1022.11
1022.2
1022.29
1022.36
1022.44
1022.52
1022.62
1021.6
1021.95
1022.11
1022.21
1022.28
1022.34
1022.39
1022.45
1022.51
1022.59
1021.75
1022.11
1022.24
1022.31
1022.35
1022.39
1022.43
1022.47
1022.52
1022.57
1021.83
1022.25
1022.37
1022.41
1022.43
1022.45
1022.48
1022.5
1022.53
1022.56
1021.51
1022.26
1022.44
1022.48
1022.49
1022.5
1022.51
1022.52
1022.53
1022.55
1013.59
1013.33
1013.18
1013.09
1013.01
1012.96
1012.91
1012.88
1012.85
1012.82
1012.78
1014.14
1013.77
1013.55
1013.41
1013.31
1013.24
1013.19
1013.16
1013.13
1013.12
1013.11
1014.78
1014.3
1014.02
1013.84
1013.72
1013.64
1013.58
1013.54
1013.52
1013.51
1013.5
1015.56
1014.96
1014.6
1014.38
1014.23
1014.12
1014.05
1014
1013.98
1013.97
1013.97
1016.53
1015.78
1015.31
1015.02
1014.82
1014.68
1014.59
1014.54
1014.51
1014.51
1014.53
1017.64
1016.72
1016.12
1015.74
1015.49
1015.32
1015.21
1015.14
1015.12
1015.13
1015.19
1018.91
1017.8
1017.06
1016.58
1016.27
1016.06
1015.92
1015.85
1015.83
1015.87
1015.96
1020.37
1019.06
1018.16
1017.57
1017.18
1016.92
1016.76
1016.68
1016.67
1016.73
1016.87
1022.02
1020.52
1019.45
1018.73
1018.25
1017.94
1017.75
1017.67
1017.67
1017.75
1017.94
1023.87
1022.19
1020.96
1020.11
1019.53
1019.15
1018.93
1018.83
1018.85
1018.96
1019.2
1025.95
1024.14
1022.75
1021.77
1021.09
1020.65
1020.39
1020.28
1020.31
1020.46
1020.74
1028.38
1026.48
1024.97
1023.88
1023.1
1022.59
1022.28
1022.16
1022.2
1022.37
1022.7
1031.31
1029.34
1027.75
1026.56
1025.72
1025.14
1024.8
1024.66
1024.7
1024.88
1025.22
1034.86
1032.84
1031.16
1029.89
1028.96
1028.32
1027.93
1027.74
1027.75
1027.92
1028.27
1038.74
1036.69
1034.95
1033.6
1032.59
1031.88
1031.41
1031.17
1031.14
1031.29
1031.63
1042.71
1040.67
1038.9
1037.5
1036.43
1035.65
1035.13
1034.83
1034.75
1034.86
1035.16
1046.73
1044.74
1042.97
1041.55
1040.44
1039.62
1039.05
1038.7
1038.58
1038.64
1038.89
1050.76
1048.85
1047.12
1045.71
1044.6
1043.76
1043.16
1042.78
1042.61
1042.64
1042.84
1054.78
1052.97
1051.31
1049.95
1048.87
1048.04
1047.44
1047.05
1046.85
1046.84
1047.01
1058.76
1057.07
1055.52
1054.24
1053.21
1052.42
1051.85
1051.46
1051.25
1051.23
1051.38
1062.68
1061.13
1059.7
1058.53
1057.59
1056.87
1056.34
1055.98
1055.79
1055.77
1055.92
1066.51
1065.11
1063.83
1062.78
1061.95
1061.32
1060.86
1060.56
1060.4
1060.41
1060.56
1070.23
1068.98
1067.86
1066.96
1066.26
1065.74
1065.37
1065.14
1065.04
1065.07
1065.24
1073.71
1072.59
1071.6
1070.83
1070.25
1069.83
1069.55
1069.39
1069.34
1069.41
1069.61
1076.7
1075.67
1074.8
1074.13
1073.64
1073.31
1073.1
1073
1073
1073.12
1073.34
1079.26
1078.31
1077.52
1076.94
1076.54
1076.27
1076.13
1076.09
1076.14
1076.3
1076.55
1081.56
1080.67
1079.96
1079.46
1079.13
1078.93
1078.84
1078.86
1078.96
1079.15
1079.43
1083.76
1082.93
1082.3
1081.87
1081.61
1081.47
1081.44
1081.5
1081.65
1081.87
1082.17
1085.98
1085.2
1084.64
1084.28
1084.09
1084.01
1084.03
1084.14
1084.32
1084.58
1084.9
1088.27
1087.53
1087.03
1086.75
1086.61
1086.58
1086.65
1086.8
1087.02
1087.3
1087.65
1090.71
1090.01
1089.57
1089.33
1089.24
1089.26
1089.37
1089.56
1089.8
1090.1
1090.46
1093.37
1092.74
1092.36
1092.18
1092.13
1092.19
1092.32
1092.53
1092.79
1093.11
1093.48
1096.32
1095.87
1095.62
1095.52
1095.53
1095.62
1095.79
1096.01
1096.28
1096.6
1096.97
1099.49
1099.43
1099.45
1099.55
1099.7
1099.9
1100.14
1100.41
1100.72
1101.05
1101.41
1102.16
1102.47
1102.79
1103.12
1103.47
1103.83
1104.21
1104.59
1104.99
1105.4
1105.82
1027.2
1027.14
1027.06
1026.94
1026.78
1026.57
1026.32
1026
1025.62
1025.13
1024.47
1023.56
1022.35
1020.97
1019.45
1017.8
1016.07
1014.27
1012.42
1010.42
1007.58
1005.36
1003.31
1001.46
999.968
998.768
997.785
996.933
996.192
995.557
995.02
994.576
994.221
993.995
993.858
1026.76
1026.6
1026.39
1026.14
1025.83
1025.47
1025.05
1024.56
1024.01
1023.35
1022.53
1021.48
1020.21
1018.85
1017.44
1015.99
1014.52
1013.04
1011.55
1009.93
1007.97
1006.33
1004.75
1003.27
1002.02
1000.94
1000.01
999.167
998.398
997.707
997.098
996.567
996.116
995.805
995.591
1025.92
1025.59
1025.17
1024.7
1024.17
1023.59
1022.97
1022.32
1021.63
1020.87
1020.01
1019.01
1017.89
1016.75
1015.61
1014.46
1013.3
1012.13
1010.95
1009.76
1008.46
1007.25
1006.12
1005.1
1004.19
1003.36
1002.58
1001.82
1001.06
1000.31
999.569
998.843
998.143
997.612
997.242
1026.51
1026.06
1025.55
1024.99
1024.4
1023.78
1023.14
1022.48
1021.8
1021.07
1020.26
1019.32
1018.26
1017.18
1016.08
1014.98
1013.87
1012.75
1011.61
1010.46
1009.23
1008.07
1007
1006.05
1005.22
1004.47
1003.77
1003.08
1002.4
1001.72
1001.04
1000.36
999.676
999.1
998.649
1027.19
1026.67
1026.09
1025.49
1024.87
1024.22
1023.57
1022.9
1022.23
1021.51
1020.71
1019.8
1018.78
1017.73
1016.66
1015.59
1014.51
1013.42
1012.32
1011.22
1010.06
1008.94
1007.9
1006.99
1006.2
1005.49
1004.82
1004.16
1003.5
1002.85
1002.2
1001.56
1000.9
1000.32
999.826
1027.92
1027.36
1026.76
1026.13
1025.49
1024.83
1024.16
1023.49
1022.82
1022.11
1021.33
1020.43
1019.42
1018.38
1017.34
1016.28
1015.22
1014.15
1013.08
1011.99
1010.89
1009.8
1008.78
1007.89
1007.12
1006.43
1005.78
1005.13
1004.49
1003.85
1003.21
1002.58
1001.97
1001.42
1000.91
1028.72
1028.14
1027.52
1026.88
1026.22
1025.55
1024.88
1024.21
1023.53
1022.83
1022.05
1021.16
1020.15
1019.12
1018.08
1017.04
1015.99
1014.93
1013.87
1012.8
1011.73
1010.65
1009.64
1008.76
1008.01
1007.33
1006.68
1006.05
1005.41
1004.77
1004.14
1003.51
1002.92
1002.4
1001.91
1029.57
1029
1028.37
1027.72
1027.04
1026.36
1025.69
1025.01
1024.33
1023.62
1022.84
1021.96
1020.95
1019.92
1018.88
1017.84
1016.79
1015.74
1014.68
1013.62
1012.56
1011.5
1010.5
1009.62
1008.87
1008.2
1007.56
1006.92
1006.29
1005.65
1005.02
1004.39
1003.8
1003.31
1002.85
1030.47
1029.91
1029.27
1028.6
1027.92
1027.23
1026.55
1025.87
1025.18
1024.47
1023.7
1022.81
1021.8
1020.76
1019.72
1018.68
1017.63
1016.58
1015.53
1014.46
1013.4
1012.35
1011.35
1010.48
1009.73
1009.06
1008.42
1007.78
1007.15
1006.51
1005.88
1005.24
1004.66
1004.17
1003.74
1031.41
1030.86
1030.21
1029.53
1028.84
1028.15
1027.46
1026.77
1026.08
1025.37
1024.59
1023.69
1022.68
1021.64
1020.59
1019.55
1018.5
1017.45
1016.39
1015.32
1014.26
1013.21
1012.21
1011.34
1010.59
1009.92
1009.27
1008.63
1007.99
1007.36
1006.72
1006.08
1005.5
1005.02
1004.6
1032.38
1031.83
1031.18
1030.49
1029.79
1029.09
1028.4
1027.7
1027.01
1026.29
1025.51
1024.61
1023.59
1022.54
1021.49
1020.44
1019.39
1018.33
1017.26
1016.2
1015.13
1014.07
1013.07
1012.2
1011.45
1010.77
1010.13
1009.48
1008.84
1008.2
1007.56
1006.92
1006.33
1005.85
1005.45
1033.37
1032.84
1032.17
1031.48
1030.77
1030.06
1029.36
1028.66
1027.96
1027.24
1026.45
1025.55
1024.52
1023.46
1022.41
1021.35
1020.29
1019.23
1018.16
1017.08
1016.01
1014.95
1013.94
1013.07
1012.31
1011.63
1010.98
1010.34
1009.69
1009.04
1008.4
1007.75
1007.16
1006.68
1006.28
1034.38
1033.85
1033.18
1032.48
1031.77
1031.05
1030.34
1029.64
1028.93
1028.21
1027.41
1026.5
1025.47
1024.4
1023.34
1022.28
1021.21
1020.14
1019.06
1017.98
1016.9
1015.83
1014.82
1013.94
1013.18
1012.5
1011.84
1011.19
1010.54
1009.89
1009.24
1008.59
1008
1007.52
1007.12
1035.41
1034.89
1034.21
1033.5
1032.78
1032.06
1031.34
1030.63
1029.92
1029.19
1028.39
1027.47
1026.43
1025.36
1024.28
1023.21
1022.14
1021.06
1019.98
1018.89
1017.8
1016.73
1015.71
1014.82
1014.06
1013.37
1012.71
1012.06
1011.4
1010.75
1010.09
1009.44
1008.84
1008.35
1007.95
1036.46
1035.93
1035.25
1034.53
1033.8
1033.07
1032.35
1031.64
1030.92
1030.19
1029.38
1028.46
1027.41
1026.32
1025.24
1024.16
1023.08
1022
1020.9
1019.81
1018.71
1017.63
1016.6
1015.71
1014.94
1014.25
1013.58
1012.92
1012.26
1011.61
1010.95
1010.29
1009.69
1009.2
1008.79
1037.52
1036.99
1036.29
1035.57
1034.84
1034.1
1033.38
1032.66
1031.94
1031.19
1030.38
1029.45
1028.39
1027.3
1026.21
1025.13
1024.04
1022.94
1021.84
1020.74
1019.63
1018.54
1017.51
1016.61
1015.83
1015.13
1014.47
1013.8
1013.14
1012.47
1011.81
1011.15
1010.54
1010.05
1009.64
1038.59
1038.06
1037.35
1036.62
1035.88
1035.14
1034.41
1033.68
1032.96
1032.21
1031.39
1030.45
1029.39
1028.29
1027.19
1026.1
1025
1023.89
1022.78
1021.67
1020.56
1019.46
1018.42
1017.51
1016.73
1016.03
1015.36
1014.69
1014.01
1013.35
1012.68
1012.01
1011.4
1010.9
1010.49
1039.67
1039.13
1038.42
1037.68
1036.94
1036.19
1035.46
1034.72
1033.99
1033.24
1032.41
1031.47
1030.39
1029.28
1028.18
1027.08
1025.97
1024.86
1023.74
1022.62
1021.5
1020.39
1019.34
1018.43
1017.64
1016.93
1016.25
1015.58
1014.9
1014.23
1013.55
1012.88
1012.27
1011.77
1011.35
1040.76
1040.22
1039.5
1038.75
1038
1037.25
1036.51
1035.77
1035.03
1034.27
1033.44
1032.49
1031.41
1030.29
1029.18
1028.06
1026.95
1025.83
1024.7
1023.57
1022.44
1021.32
1020.27
1019.35
1018.55
1017.84
1017.16
1016.47
1015.79
1015.11
1014.44
1013.76
1013.14
1012.64
1012.22
1041.86
1041.31
1040.58
1039.83
1039.07
1038.32
1037.57
1036.82
1036.08
1035.32
1034.48
1033.52
1032.43
1031.3
1030.18
1029.06
1027.94
1026.8
1025.67
1024.53
1023.39
1022.26
1021.2
1020.27
1019.48
1018.75
1018.07
1017.38
1016.69
1016.01
1015.33
1014.65
1014.03
1013.52
1013.09
1042.97
1042.41
1041.68
1040.92
1040.15
1039.39
1038.63
1037.89
1037.14
1036.37
1035.52
1034.55
1033.45
1032.32
1031.19
1030.06
1028.93
1027.79
1026.64
1025.5
1024.35
1023.21
1022.14
1021.21
1020.4
1019.68
1018.98
1018.29
1017.6
1016.91
1016.22
1015.54
1014.91
1014.4
1013.97
1044.09
1043.52
1042.78
1042.01
1041.24
1040.47
1039.71
1038.95
1038.2
1037.42
1036.57
1035.59
1034.49
1033.34
1032.21
1031.07
1029.93
1028.78
1027.63
1026.47
1025.31
1024.16
1023.08
1022.15
1021.34
1020.6
1019.9
1019.21
1018.51
1017.81
1017.12
1016.43
1015.81
1015.29
1014.86
1045.21
1044.63
1043.88
1043.1
1042.33
1041.55
1040.79
1040.03
1039.27
1038.48
1037.62
1036.64
1035.52
1034.37
1033.23
1032.08
1030.93
1029.77
1028.61
1027.44
1026.28
1025.12
1024.03
1023.09
1022.27
1021.54
1020.83
1020.13
1019.42
1018.72
1018.03
1017.34
1016.71
1016.19
1015.75
1046.34
1045.75
1044.99
1044.21
1043.42
1042.64
1041.87
1041.1
1040.34
1039.55
1038.68
1037.69
1036.57
1035.41
1034.25
1033.1
1031.94
1030.77
1029.6
1028.43
1027.25
1026.08
1024.99
1024.04
1023.22
1022.47
1021.76
1021.05
1020.34
1019.64
1018.94
1018.24
1017.61
1017.09
1016.65
1047.47
1046.87
1046.1
1045.31
1044.52
1043.73
1042.95
1042.18
1041.41
1040.62
1039.74
1038.74
1037.61
1036.44
1035.28
1034.12
1032.95
1031.77
1030.59
1029.41
1028.22
1027.05
1025.94
1024.99
1024.16
1023.41
1022.69
1021.98
1021.27
1020.56
1019.85
1019.15
1018.52
1018
1017.55
1048.61
1047.99
1047.21
1046.41
1045.62
1044.82
1044.04
1043.26
1042.49
1041.69
1040.8
1039.8
1038.66
1037.48
1036.31
1035.14
1033.96
1032.77
1031.58
1030.39
1029.19
1028.01
1026.9
1025.94
1025.11
1024.35
1023.63
1022.91
1022.19
1021.47
1020.77
1020.06
1019.43
1018.91
1018.45
1049.74
1049.11
1048.33
1047.52
1046.71
1045.91
1045.12
1044.34
1043.56
1042.75
1041.86
1040.85
1039.7
1038.52
1037.34
1036.15
1034.97
1033.77
1032.57
1031.37
1030.17
1028.97
1027.85
1026.89
1026.05
1025.29
1024.56
1023.84
1023.11
1022.39
1021.68
1020.98
1020.34
1019.82
1019.36
1050.88
1050.24
1049.44
1048.62
1047.81
1047
1046.2
1045.42
1044.63
1043.82
1042.92
1041.9
1040.74
1039.55
1038.36
1037.17
1035.97
1034.77
1033.56
1032.35
1031.13
1029.93
1028.8
1027.83
1026.99
1026.22
1025.49
1024.76
1024.03
1023.31
1022.59
1021.89
1021.26
1020.73
1020.27
1052.01
1051.35
1050.54
1049.72
1048.9
1048.08
1047.28
1046.49
1045.7
1044.88
1043.97
1042.94
1041.77
1040.57
1039.38
1038.17
1036.97
1035.75
1034.53
1033.31
1032.09
1030.88
1029.74
1028.77
1027.92
1027.15
1026.41
1025.68
1024.95
1024.22
1023.5
1022.79
1022.16
1021.63
1021.17
1053.14
1052.47
1051.64
1050.81
1049.98
1049.16
1048.35
1047.55
1046.75
1045.92
1045.02
1043.98
1042.8
1041.59
1040.38
1039.17
1037.95
1036.73
1035.5
1034.27
1033.03
1031.81
1030.67
1029.69
1028.84
1028.06
1027.32
1026.58
1025.85
1025.12
1024.4
1023.69
1023.06
1022.53
1022.07
1054.26
1053.57
1052.74
1051.89
1051.05
1050.22
1049.41
1048.6
1047.8
1046.96
1046.05
1045
1043.81
1042.59
1041.37
1040.14
1038.92
1037.68
1036.44
1035.2
1033.96
1032.73
1031.58
1030.59
1029.74
1028.96
1028.21
1027.47
1026.73
1026
1025.28
1024.57
1023.95
1023.42
1022.96
1055.37
1054.66
1053.82
1052.96
1052.11
1051.28
1050.45
1049.63
1048.82
1047.98
1047.06
1046
1044.8
1043.57
1042.34
1041.1
1039.86
1038.61
1037.36
1036.11
1034.85
1033.61
1032.45
1031.47
1030.61
1029.83
1029.08
1028.33
1027.6
1026.86
1026.14
1025.43
1024.82
1024.29
1023.83
1056.47
1055.75
1054.88
1054.02
1053.16
1052.31
1051.47
1050.65
1049.83
1048.98
1048.05
1046.98
1045.77
1044.52
1043.27
1042.02
1040.77
1039.5
1038.24
1036.97
1035.71
1034.46
1033.29
1032.3
1031.44
1030.66
1029.91
1029.16
1028.42
1027.69
1026.97
1026.27
1025.65
1025.14
1024.68
1057.55
1056.82
1055.94
1055.06
1054.19
1053.33
1052.48
1051.65
1050.82
1049.96
1049.02
1047.94
1046.71
1045.44
1044.17
1042.9
1041.63
1040.35
1039.07
1037.79
1036.52
1035.25
1034.08
1033.08
1032.22
1031.44
1030.68
1029.94
1029.2
1028.47
1027.75
1027.06
1026.45
1025.95
1025.5
1058.62
1057.88
1056.99
1056.09
1055.2
1054.33
1053.47
1052.62
1051.78
1050.91
1049.95
1048.85
1047.6
1046.32
1045.03
1043.73
1042.44
1041.14
1039.84
1038.54
1037.25
1035.98
1034.79
1033.79
1032.92
1032.14
1031.39
1030.64
1029.91
1029.19
1028.48
1027.79
1027.2
1026.7
1026.26
1059.69
1058.94
1058.03
1057.12
1056.21
1055.31
1054.43
1053.57
1052.71
1051.83
1050.85
1049.73
1048.46
1047.14
1045.82
1044.5
1043.17
1041.85
1040.52
1039.2
1037.89
1036.6
1035.41
1034.4
1033.53
1032.75
1032
1031.26
1030.53
1029.81
1029.11
1028.44
1027.87
1027.39
1026.96
1060.78
1060.02
1059.08
1058.15
1057.21
1056.29
1055.38
1054.49
1053.61
1052.71
1051.71
1050.56
1049.25
1047.89
1046.53
1045.17
1043.81
1042.45
1041.1
1039.75
1038.42
1037.11
1035.9
1034.88
1034.01
1033.23
1032.48
1031.74
1031.02
1030.32
1029.64
1028.98
1028.43
1027.97
1027.56
1061.88
1061.1
1060.15
1059.19
1058.22
1057.26
1056.31
1055.39
1054.48
1053.55
1052.52
1051.33
1049.97
1048.57
1047.15
1045.74
1044.33
1042.93
1041.53
1040.14
1038.78
1037.44
1036.22
1035.2
1034.32
1033.54
1032.79
1032.06
1031.36
1030.67
1030.01
1029.38
1028.85
1028.42
1028.03
1063.07
1062.27
1061.27
1060.25
1059.25
1058.24
1057.23
1056.28
1055.33
1054.36
1053.28
1052.04
1050.61
1049.12
1047.63
1046.14
1044.66
1043.19
1041.74
1040.3
1038.88
1037.51
1036.25
1035.2
1034.32
1033.54
1032.81
1032.1
1031.43
1030.77
1030.15
1029.57
1029.09
1028.7
1028.36
1064.45
1063.57
1062.47
1061.37
1060.28
1059.2
1058.14
1057.12
1056.11
1055.07
1053.92
1052.6
1051.08
1049.5
1047.92
1046.35
1044.79
1043.24
1041.71
1040.2
1038.73
1037.31
1036.02
1034.96
1034.06
1033.28
1032.56
1031.86
1031.21
1030.58
1030
1029.46
1029.02
1028.67
1028.37
1065.3
1064.29
1063.03
1061.78
1060.54
1059.33
1058.17
1057.03
1055.9
1054.73
1053.44
1051.95
1050.23
1048.43
1046.64
1044.85
1043.07
1041.31
1039.57
1037.87
1036.21
1034.62
1033.19
1032.03
1031.08
1030.26
1029.52
1028.84
1028.21
1027.64
1027.13
1026.67
1026.32
1026.05
1025.84
1065.83
1064.73
1063.36
1062
1060.67
1059.37
1058.12
1056.88
1055.64
1054.36
1052.94
1051.29
1049.39
1047.39
1045.38
1043.38
1041.39
1039.43
1037.49
1035.6
1033.77
1032.03
1030.49
1029.25
1028.27
1027.45
1026.74
1026.11
1025.55
1025.07
1024.66
1024.31
1024.05
1023.88
1023.74
1066.23
1065.05
1063.6
1062.18
1060.79
1059.42
1058.09
1056.76
1055.43
1054.05
1052.52
1050.74
1048.67
1046.48
1044.28
1042.09
1039.92
1037.77
1035.66
1033.6
1031.61
1029.74
1028.11
1026.85
1025.88
1025.11
1024.47
1023.94
1023.49
1023.13
1022.85
1022.63
1022.48
1022.39
1022.33
1066.57
1065.33
1063.83
1062.36
1060.93
1059.52
1058.12
1056.72
1055.31
1053.84
1052.21
1050.32
1048.11
1045.75
1043.39
1041.04
1038.7
1036.39
1034.12
1031.91
1029.79
1027.81
1026.14
1024.89
1023.97
1023.29
1022.77
1022.36
1022.05
1021.82
1021.67
1021.57
1021.53
1021.51
1021.52
1066.96
1065.68
1064.14
1062.63
1061.16
1059.7
1058.25
1056.79
1055.31
1053.76
1052.05
1050.06
1047.73
1045.23
1042.72
1040.23
1037.75
1035.3
1032.9
1030.56
1028.33
1026.28
1024.58
1023.37
1022.54
1021.97
1021.57
1021.3
1021.12
1021.02
1020.98
1020.99
1021.02
1021.06
1021.11
1067.47
1066.16
1064.59
1063.04
1061.53
1060.02
1058.51
1056.98
1055.44
1053.83
1052.04
1049.98
1047.55
1044.92
1042.29
1039.68
1037.08
1034.51
1031.99
1029.55
1027.24
1025.13
1023.42
1022.24
1021.5
1021.04
1020.76
1020.61
1020.54
1020.55
1020.61
1020.7
1020.79
1020.87
1020.94
1068.16
1066.83
1065.23
1063.65
1062.08
1060.52
1058.94
1057.35
1055.73
1054.05
1052.2
1050.05
1047.54
1044.83
1042.11
1039.39
1036.69
1034.01
1031.41
1028.89
1026.5
1024.34
1022.6
1021.44
1020.76
1020.39
1020.2
1020.14
1020.18
1020.27
1020.41
1020.56
1020.7
1020.81
1020.9
1069.05
1067.71
1066.08
1064.45
1062.83
1061.21
1059.57
1057.92
1056.24
1054.48
1052.55
1050.33
1047.74
1044.93
1042.11
1039.3
1036.52
1033.79
1031.11
1028.53
1026.09
1023.87
1022.07
1020.89
1020.23
1019.89
1019.76
1019.78
1019.89
1020.07
1020.27
1020.48
1020.66
1020.79
1020.9
1070.17
1068.82
1067.13
1065.45
1063.77
1062.1
1060.4
1058.68
1056.93
1055.11
1053.11
1050.81
1048.14
1045.24
1042.32
1039.43
1036.57
1033.76
1031.03
1028.39
1025.9
1023.64
1021.78
1020.53
1019.83
1019.48
1019.38
1019.44
1019.62
1019.86
1020.13
1020.4
1020.62
1020.78
1020.9
1071.47
1070.12
1068.37
1066.62
1064.89
1063.15
1061.39
1059.61
1057.8
1055.92
1053.85
1051.48
1048.72
1045.73
1042.73
1039.75
1036.81
1033.93
1031.14
1028.45
1025.91
1023.58
1021.64
1020.28
1019.49
1019.09
1018.97
1019.05
1019.29
1019.61
1019.96
1020.3
1020.57
1020.77
1020.91
1072.94
1071.59
1069.76
1067.94
1066.14
1064.34
1062.52
1060.68
1058.81
1056.86
1054.73
1052.28
1049.44
1046.36
1043.28
1040.21
1037.2
1034.26
1031.4
1028.65
1026.06
1023.66
1021.62
1020.14
1019.22
1018.72
1018.54
1018.62
1018.89
1019.28
1019.73
1020.17
1020.52
1020.76
1020.93
1074.52
1073.17
1071.25
1069.35
1067.48
1065.62
1063.74
1061.83
1059.9
1057.9
1055.71
1053.19
1050.27
1047.1
1043.93
1040.79
1037.7
1034.69
1031.77
1028.97
1026.31
1023.85
1021.72
1020.09
1019.03
1018.41
1018.12
1018.13
1018.4
1018.86
1019.42
1019.99
1020.45
1020.76
1020.97
1076.13
1074.82
1072.79
1070.79
1068.86
1066.93
1064.99
1063.03
1061.05
1058.99
1056.73
1054.15
1051.15
1047.91
1044.66
1041.44
1038.28
1035.2
1032.21
1029.36
1026.65
1024.13
1021.9
1020.16
1018.96
1018.18
1017.75
1017.64
1017.84
1018.31
1018.97
1019.7
1020.33
1020.74
1021.02
1077.74
1076.45
1074.3
1072.22
1070.22
1068.23
1066.24
1064.22
1062.19
1060.08
1057.77
1055.12
1052.06
1048.74
1045.43
1042.14
1038.91
1035.76
1032.72
1029.8
1027.04
1024.46
1022.16
1020.32
1018.99
1018.07
1017.48
1017.2
1017.25
1017.63
1018.33
1019.24
1020.09
1020.68
1021.07
1079.32
1078.04
1075.75
1073.59
1071.53
1069.49
1067.44
1065.38
1063.3
1061.15
1058.79
1056.09
1052.97
1049.59
1046.21
1042.86
1039.57
1036.37
1033.26
1030.29
1027.48
1024.85
1022.49
1020.57
1019.14
1018.09
1017.35
1016.88
1016.71
1016.89
1017.48
1018.47
1019.61
1020.48
1021.06
1081
1079.54
1077.12
1074.89
1072.77
1070.67
1068.58
1066.48
1064.37
1062.18
1059.79
1057.04
1053.87
1050.45
1047.02
1043.62
1040.28
1037.02
1033.86
1030.84
1027.97
1025.29
1022.87
1020.88
1019.38
1018.24
1017.38
1016.74
1016.33
1016.22
1016.51
1017.33
1018.65
1019.92
1020.86
1082.85
1080.94
1078.39
1076.09
1073.92
1071.78
1069.66
1067.53
1065.39
1063.17
1060.75
1057.98
1054.78
1051.32
1047.85
1044.42
1041.03
1037.72
1034.52
1031.45
1028.53
1025.79
1023.32
1021.27
1019.7
1018.5
1017.56
1016.8
1016.2
1015.79
1015.63
1015.87
1016.77
1018.18
1019.72
1025.53
1025.41
1025.28
1025.14
1024.98
1024.8
1024.58
1024.34
1024.05
1023.71
1023.27
1022.67
1021.83
1020.68
1019.24
1017.52
1015.64
1013.65
1011.58
1009.45
1007.3
1005.2
1003.21
1001.51
1000.16
999.104
998.232
997.504
996.893
996.383
995.959
995.619
995.387
995.243
995.14
1025.55
1025.43
1025.3
1025.16
1025.01
1024.82
1024.61
1024.36
1024.07
1023.72
1023.27
1022.66
1021.81
1020.64
1019.16
1017.43
1015.53
1013.52
1011.43
1009.27
1007.1
1004.97
1002.95
1001.22
999.881
998.84
997.997
997.297
996.711
996.223
995.823
995.504
995.291
995.166
995.081
1025.57
1025.46
1025.33
1025.2
1025.04
1024.86
1024.64
1024.39
1024.1
1023.74
1023.29
1022.67
1021.8
1020.61
1019.13
1017.4
1015.49
1013.48
1011.36
1009.18
1006.98
1004.84
1002.8
1001.03
999.694
998.663
997.839
997.157
996.587
996.114
995.729
995.424
995.22
995.106
995.032
1025.6
1025.49
1025.37
1025.23
1025.08
1024.9
1024.69
1024.44
1024.14
1023.79
1023.33
1022.71
1021.84
1020.64
1019.16
1017.43
1015.53
1013.5
1011.38
1009.18
1006.98
1004.82
1002.75
1000.96
999.611
998.578
997.759
997.083
996.518
996.052
995.674
995.375
995.169
995.059
994.991
1025.63
1025.52
1025.4
1025.27
1025.13
1024.95
1024.74
1024.5
1024.21
1023.86
1023.41
1022.79
1021.93
1020.74
1019.27
1017.56
1015.66
1013.64
1011.5
1009.29
1007.07
1004.88
1002.79
1000.98
999.615
998.571
997.751
997.068