/*--------------------------------*- C++ -*----------------------------------*\
| =========                 |                                                 |
| \\      /  F ield         | OpenFOAM: The Open Source CFD Toolbox           |
|  \\    /   O peration     | Version:  2406                                  |
|   \\  /    A nd           | Website:  www.openfoam.com                      |
|    \\/     M anipulation  |                                                 |
\*---------------------------------------------------------------------------*/
FoamFile
{
    version     2.0;
    format      ascii;
    arch        "LSB;label=32;scalar=64";
    class       volVectorField;
    location    "0/neutroRegion";
    object      U;
}
// * * * * * * * * * * * * * * * * * * * * * * * * * * * * * * * * * * * * * //

dimensions      [0 1 -1 0 0 0 0];

internalField   nonuniform List<vector> 
8595
(
(8.95652e-18 -0.0135133 0.0197187)
(9.0612e-18 -0.0157151 0.430984)
(9.18972e-18 -0.0102478 0.590455)
(9.1024e-18 -0.00782486 0.760174)
(8.97252e-18 -0.00543506 0.857817)
(8.82648e-18 -0.00166414 0.897098)
(8.66861e-18 0.00240771 0.854016)
(8.19851e-18 0.005288 0.756247)
(7.59755e-18 0.00699025 0.623612)
(7.79894e-18 0.00753263 0.476934)
(7.71295e-18 0.00725527 0.331821)
(7.66875e-18 0.00654779 0.194787)
(7.71487e-18 0.00639235 0.0831045)
(7.85229e-18 0.00480785 -0.0421909)
(7.50406e-18 0.00449185 -0.093313)
(7.32344e-18 0.00421567 -0.2488)
(6.91552e-18 0.00758881 -0.233199)
(6.26167e-18 0.0308146 -0.69047)
(5.7759e-18 0.0382288 -1.87094)
(5.37287e-18 -0.00833527 -2.80155)
(4.88221e-18 -0.00512112 -2.85278)
(4.26094e-18 -0.00339635 -2.81959)
(4.07436e-18 -0.00294677 -2.83311)
(3.94128e-18 -0.00220719 -2.83716)
(3.45169e-18 -0.00157573 -2.82619)
(3.04394e-18 -0.00112931 -2.81181)
(2.80494e-18 -0.000803243 -2.79821)
(2.72656e-18 -0.00055669 -2.78585)
(2.54127e-18 -0.000369408 -2.77502)
(2.20297e-18 -0.000227941 -2.76594)
(2.21401e-18 -0.000121574 -2.75862)
(2.33501e-18 -4.22645e-05 -2.75289)
(1.92557e-18 1.58945e-05 -2.74855)
(1.64209e-18 5.73599e-05 -2.74539)
(1.56905e-18 8.55045e-05 -2.7432)
(1.45558e-18 0.000102828 -2.74178)
(1.35124e-18 0.000111018 -2.74094)
(1.25392e-18 0.000110989 -2.7405)
(1.16856e-18 0.000103319 -2.74032)
(1.08899e-18 8.75855e-05 -2.7402)
(1.0094e-18 6.20901e-05 -2.73999)
(9.34769e-19 2.43312e-05 -2.73949)
(8.65209e-19 -3.00284e-05 -2.73843)
(8.00915e-19 -0.00010809 -2.7365)
(7.4128e-19 -0.00022086 -2.73325)
(6.86339e-19 -0.000385409 -2.72803)
(6.353e-19 -0.000628264 -2.71989)
(4.67142e-19 -0.000990768 -2.70741)
(4.29159e-19 -0.00153813 -2.68841)
(5.34446e-19 -0.00237186 -2.65978)
(5.04842e-19 -0.00366606 -2.61558)
(4.56733e-19 -0.00563983 -2.55236)
(4.17118e-19 -0.00914734 -2.43613)
(3.84728e-19 -0.0131209 -2.34902)
(3.58804e-19 -0.0374581 -1.79979)
(4.71239e-19 -0.0183849 -0.544517)
(4.54517e-19 -0.0175833 -0.0161943)
(9.46229e-18 -0.129218 0.0122237)
(9.68079e-18 -0.138069 0.348443)
(9.99387e-18 -0.0944121 0.473729)
(9.95825e-18 -0.0677746 0.61311)
(9.79915e-18 -0.0367081 0.686612)
(9.60218e-18 0.00330619 0.704753)
(9.46528e-18 0.0404576 0.648363)
(8.81622e-18 0.064553 0.543931)
(7.91987e-18 0.077287 0.410171)
(8.09614e-18 0.0805119 0.267764)
(7.94412e-18 0.077292 0.128092)
(7.87122e-18 0.0693789 -0.00146646)
(7.91977e-18 0.0623732 -0.10703)
(8.03199e-18 0.0515389 -0.209103)
(7.82946e-18 0.0502624 -0.273177)
(7.66875e-18 0.0549508 -0.403188)
(6.71203e-18 0.088239 -0.441474)
(6.10387e-18 0.211006 -0.823434)
(5.79191e-18 0.26359 -1.93839)
(4.60809e-18 0.104222 -2.84474)
(4.2667e-18 0.0488137 -2.89411)
(3.54703e-18 0.0228099 -2.87294)
(3.39563e-18 0.00717506 -2.89548)
(3.7151e-18 -0.00101993 -2.90693)
(3.0503e-18 -0.0048522 -2.9028)
(2.86129e-18 -0.00636366 -2.89441)
(3.02947e-18 -0.00662364 -2.88594)
(2.72047e-18 -0.0062161 -2.87796)
(2.51417e-18 -0.00548661 -2.87087)
(2.12907e-18 -0.00464054 -2.86497)
(2.19064e-18 -0.00379327 -2.86033)
(1.99629e-18 -0.00300644 -2.85686)
(1.6803e-18 -0.00231047 -2.8544)
(1.8343e-18 -0.00171752 -2.85281)
(1.49696e-18 -0.0012295 -2.85191)
(1.41656e-18 -0.000843144 -2.85155)
(1.51517e-18 -0.000553841 -2.85156)
(1.37713e-18 -0.000357852 -2.8518)
(1.43936e-18 -0.000253001 -2.85213)
(1.29432e-18 -0.00024225 -2.85241)
(1.02814e-18 -0.000336174 -2.85247)
(9.91058e-19 -0.000554109 -2.85214)
(9.14676e-19 -0.000929468 -2.85118)
(8.4373e-19 -0.0015171 -2.84928)
(7.81618e-19 -0.00240341 -2.846)
(7.2463e-19 -0.00372282 -2.84072)
(6.72098e-19 -0.00568358 -2.8325)
(5.19875e-19 -0.00860803 -2.81995)
(5.0022e-19 -0.0129973 -2.80094)
(5.68562e-19 -0.0196245 -2.77241)
(5.11212e-19 -0.0297363 -2.72853)
(4.76625e-19 -0.0450572 -2.66603)
(4.43506e-19 -0.0699209 -2.55126)
(4.10617e-19 -0.102983 -2.47131)
(3.81273e-19 -0.204581 -1.92199)
(5.07773e-19 -0.190395 -0.685221)
(4.4817e-19 -0.205806 -0.0306628)
(9.51673e-18 -0.169874 0.00600103)
(1.01099e-17 -0.187404 0.262727)
(1.06442e-17 -0.126887 0.350762)
(1.06143e-17 -0.090944 0.460699)
(1.0363e-17 -0.0467679 0.509733)
(9.96332e-18 0.0109466 0.504246)
(9.52824e-18 0.0642062 0.432372)
(9.36086e-18 0.0982306 0.321957)
(8.39212e-18 0.11537 0.188952)
(8.19059e-18 0.119049 0.0549704)
(7.96864e-18 0.112631 -0.0753494)
(7.86931e-18 0.0997725 -0.187506)
(7.86314e-18 0.0876453 -0.280283)
(8.06456e-18 0.0743232 -0.368505)
(7.81288e-18 0.0732267 -0.431841)
(7.77804e-18 0.0851703 -0.54665)
(6.99775e-18 0.132265 -0.59669)
(5.86132e-18 0.280325 -0.931638)
(6.01362e-18 0.337387 -2.01095)
(5.34699e-18 0.132911 -2.89066)
(3.82475e-18 0.0541627 -2.91218)
(3.50654e-18 0.0231404 -2.88561)
(3.72408e-18 0.00548429 -2.90692)
(3.6123e-18 -0.00363775 -2.91818)
(2.69809e-18 -0.00743268 -2.91491)
(2.40901e-18 -0.00851184 -2.90777)
(2.34069e-18 -0.00825672 -2.90057)
(2.24719e-18 -0.00734543 -2.89375)
(2.137e-18 -0.00616289 -2.88766)
(1.97437e-18 -0.00493444 -2.88259)
(1.85687e-18 -0.00377974 -2.87862)
(1.75559e-18 -0.00275632 -2.87566)
(1.87645e-18 -0.00188741 -2.87359)
(1.71254e-18 -0.00117703 -2.87227)
(1.33931e-18 -0.000619253 -2.87154)
(1.46607e-18 -0.000204011 -2.87126)
(1.36342e-18 7.84436e-05 -2.87129)
(1.08246e-18 0.000235224 -2.8715)
(1.01522e-18 0.000269586 -2.87177)
(9.60764e-19 0.000176595 -2.87194)
(8.99293e-19 -5.98843e-05 -2.87189)
(8.38186e-19 -0.000469596 -2.87144)
(7.80352e-19 -0.0011037 -2.87038)
(7.22283e-19 -0.00204533 -2.86841)
(6.71393e-19 -0.00342491 -2.86512)
(6.2424e-19 -0.00544499 -2.85993)
(5.80813e-19 -0.00841934 -2.85196)
(5.35548e-19 -0.0128341 -2.83992)
(4.93907e-19 -0.0194474 -2.8218)
(4.63425e-19 -0.0294324 -2.79476)
(4.35496e-19 -0.044692 -2.75328)
(4.10106e-19 -0.0678647 -2.6948)
(3.87566e-19 -0.105232 -2.58588)
(3.6623e-19 -0.15558 -2.52014)
(4.2031e-19 -0.283466 -1.97979)
(3.57956e-19 -0.295005 -0.750351)
(3.53325e-19 -0.346241 -0.0378154)
(9.47841e-18 -0.213461 0.000914916)
(1.047e-17 -0.234813 0.1779)
(1.14263e-17 -0.15925 0.226212)
(1.13946e-17 -0.112437 0.301675)
(1.10371e-17 -0.05075 0.316567)
(1.03763e-17 0.0280451 0.272449)
(9.50531e-18 0.0981935 0.177581)
(9.44647e-18 0.141735 0.0589726)
(8.58592e-18 0.161516 -0.0732153)
(8.20602e-18 0.162831 -0.194378)
(7.92386e-18 0.152148 -0.30524)
(7.8047e-18 0.133807 -0.400971)
(7.81491e-18 0.116749 -0.479419)
(8.10151e-18 0.100748 -0.552602)
(7.69573e-18 0.100087 -0.607704)
(7.27126e-18 0.118949 -0.705375)
(6.86901e-18 0.181345 -0.746182)
(5.79514e-18 0.352418 -1.03585)
(5.02843e-18 0.413194 -2.09407)
(4.46016e-18 0.185191 -2.95602)
(3.8954e-18 0.0782353 -2.94485)
(2.75307e-18 0.0360715 -2.90561)
(2.64613e-18 0.0120086 -2.92164)
(3.39853e-18 -0.00162341 -2.92943)
(2.64046e-18 -0.00795212 -2.92413)
(2.29528e-18 -0.0102704 -2.91587)
(2.55764e-18 -0.0105384 -2.90802)
(2.37031e-18 -0.00972818 -2.9008)
(2.1676e-18 -0.00840626 -2.89444)
(1.71366e-18 -0.0069184 -2.88918)
(1.82233e-18 -0.00545801 -2.88504)
(1.71408e-18 -0.00412596 -2.88193)
(1.31028e-18 -0.00297021 -2.8797)
(1.46031e-18 -0.00200809 -2.87822)
(1.20115e-18 -0.00124004 -2.87732)
(1.08087e-18 -0.000658614 -2.87687)
(1.15961e-18 -0.000254624 -2.87672)
(1.07519e-18 -2.12849e-05 -2.87676)
(1.11642e-18 4.25128e-05 -2.87685)
(1.04005e-18 -7.21247e-05 -2.87686)
(7.89824e-19 -0.00038802 -2.87666)
(6.81843e-19 -0.000947837 -2.87609)
(6.21656e-19 -0.00182411 -2.87494)
(5.64527e-19 -0.00313328 -2.87293)
(5.0794e-19 -0.00505756 -2.86969)
(4.57683e-19 -0.00787944 -2.86467)
(4.11852e-19 -0.0120356 -2.85704)
(2.7948e-19 -0.0182011 -2.84562)
(2.81946e-19 -0.0274256 -2.82853)
(3.50568e-19 -0.0413279 -2.80319)
(3.45657e-19 -0.0625145 -2.7644)
(3.15284e-19 -0.0945775 -2.71043)
(2.92787e-19 -0.145558 -2.60765)
(2.81183e-19 -0.214351 -2.55626)
(3.03053e-19 -0.365482 -2.02075)
(2.69715e-19 -0.420148 -0.784262)
(3.60379e-19 -0.516426 -0.0424742)
(9.6012e-18 -0.237724 -0.0029998)
(1.07203e-17 -0.261614 0.0945276)
(1.26652e-17 -0.176497 0.099373)
(1.24897e-17 -0.120569 0.13215)
(1.19109e-17 -0.0405592 0.0960483)
(1.08508e-17 0.0583475 -0.00510765)
(9.29432e-18 0.138286 -0.127623)
(8.9417e-18 0.184701 -0.252581)
(8.6713e-18 0.202969 -0.373749)
(8.11517e-18 0.20027 -0.48108)
(7.80619e-18 0.184621 -0.573214)
(7.6625e-18 0.161306 -0.650013)
(7.68297e-18 0.139638 -0.7108)
(8.30902e-18 0.121558 -0.765922)
(7.90887e-18 0.121246 -0.806718)
(6.62867e-18 0.145827 -0.883317)
(6.29908e-18 0.218559 -0.902102)
(5.32536e-18 0.400053 -1.14459)
(4.3744e-18 0.459458 -2.18849)
(3.01515e-18 0.217792 -3.03721)
(2.9882e-18 0.0890869 -2.99097)
(2.07774e-18 0.0393636 -2.93375)
(2.36342e-18 0.0118439 -2.94188)
(3.06342e-18 -0.00401647 -2.94455)
(2.20553e-18 -0.0111946 -2.93575)
(1.31943e-18 -0.0135609 -2.92525)
(1.41516e-18 -0.0135316 -2.91592)
(1.88449e-18 -0.0122708 -2.90764)
(1.63581e-18 -0.0104509 -2.90051)
(1.05054e-18 -0.00848191 -2.89465)
(1.2876e-18 -0.00658983 -2.89003)
(1.74319e-18 -0.00488934 -2.88652)
(1.08519e-18 -0.00343182 -2.88394)
(7.00271e-19 -0.00223249 -2.88214)
(5.98966e-19 -0.00128702 -2.88096)
(4.64254e-19 -0.000582535 -2.88025)
(3.65905e-19 -0.000104444 -2.87987)
(2.63237e-19 0.00015825 -2.87969)
(1.779e-19 0.000207402 -2.87959)
(9.33043e-20 3.3201e-05 -2.87943)
(-2.40944e-21 -0.000390774 -2.8791)
(-9.06466e-20 -0.00111734 -2.87843)
(-1.73051e-19 -0.00223656 -2.87722)
(-2.50676e-19 -0.00389267 -2.87523)
(-3.21976e-19 -0.00631161 -2.8721)
(-3.86377e-19 -0.00984376 -2.86731)
(-4.4275e-19 -0.0150306 -2.86012)
(-5.91919e-19 -0.022709 -2.84944)
(-6.20637e-19 -0.0341806 -2.83356)
(-5.21084e-19 -0.0514534 -2.81016)
(-5.0104e-19 -0.0777594 -2.77441)
(-4.58167e-19 -0.117575 -2.72548)
(-3.61821e-19 -0.180573 -2.62939)
(-2.83236e-19 -0.266201 -2.5927)
(8.61981e-20 -0.441674 -2.0601)
(5.20431e-19 -0.54478 -0.807463)
(5.07733e-19 -0.691911 -0.0467845)
(9.83344e-18 -0.246441 -0.00525956)
(1.07718e-17 -0.268682 0.0140144)
(1.23855e-17 -0.177094 -0.0309005)
(1.20919e-17 -0.108919 -0.0581556)
(1.11818e-17 -0.00778767 -0.178472)
(9.91838e-18 0.10279 -0.335569)
(8.06918e-18 0.182278 -0.479641)
(7.23638e-18 0.226256 -0.607934)
(7.52073e-18 0.240185 -0.718205)
(6.91682e-18 0.231871 -0.808636)
(6.62676e-18 0.210359 -0.879825)
(6.47399e-18 0.181988 -0.934424)
(6.46935e-18 0.15596 -0.973735)
(6.68236e-18 0.136054 -1.00717)
(6.87808e-18 0.135764 -1.02825)
(6.47062e-18 0.164301 -1.07919)
(5.57026e-18 0.242528 -1.06721)
(4.70629e-18 0.425658 -1.25912)
(4.33986e-18 0.482951 -2.29041)
(3.99458e-18 0.23602 -3.12831)
(3.34431e-18 0.0944048 -3.04638)
(2.20074e-18 0.0402013 -2.96813)
(2.2454e-18 0.0105422 -2.96697)
(2.90859e-18 -0.00675721 -2.9637)
(1.88032e-18 -0.0144754 -2.95054)
(1.72067e-18 -0.0168502 -2.93713)
(2.20009e-18 -0.0165819 -2.92579)
(2.0105e-18 -0.0149581 -2.91604)
(1.82048e-18 -0.0127297 -2.90778)
(1.28816e-18 -0.0103566 -2.90104)
(1.58708e-18 -0.0080918 -2.8957)
(1.50126e-18 -0.00606313 -2.89159)
(9.66887e-19 -0.00432688 -2.8885)
(1.23414e-18 -0.00289856 -2.88626)
(8.94567e-19 -0.00177177 -2.8847)
(8.30506e-19 -0.000930791 -2.88364)
(1.00617e-18 -0.000358199 -2.88296)
(8.8653e-19 -4.09366e-05 -2.88251)
(9.2855e-19 2.25278e-05 -2.88218)
(8.65061e-19 -0.000179939 -2.88183)
(6.37238e-19 -0.00067956 -2.88134)
(5.38706e-19 -0.00153945 -2.88057)
(4.9214e-19 -0.00286673 -2.87931)
(4.44033e-19 -0.00483224 -2.87736)
(3.91124e-19 -0.00770337 -2.87437)
(3.39917e-19 -0.011894 -2.86988)
(2.87897e-19 -0.0180429 -2.86324)
(1.04938e-19 -0.0271357 -2.85346)
(3.6633e-20 -0.0407027 -2.83902)
(1.25227e-19 -0.0611017 -2.81793)
(4.90636e-20 -0.0921227 -2.78575)
(-1.84967e-20 -0.139035 -2.74266)
(-7.76119e-20 -0.213043 -2.65423)
(-1.22472e-19 -0.314407 -2.63341)
(-4.14806e-20 -0.516288 -2.10348)
(9.69092e-20 -0.670453 -0.829802)
(4.27207e-19 -0.872962 -0.0518228)
(9.79081e-18 -0.243467 -0.00623912)
(1.06931e-17 -0.253667 -0.0681453)
(1.18375e-17 -0.156797 -0.176449)
(1.13866e-17 -0.070048 -0.29929)
(1.01803e-17 0.0503237 -0.52992)
(8.91221e-18 0.158553 -0.726087)
(7.52329e-18 0.230582 -0.88546)
(6.25675e-18 0.266447 -1.01051)
(6.1444e-18 0.27238 -1.10538)
(5.85677e-18 0.256645 -1.17417)
(5.62696e-18 0.228437 -1.22063)
(5.49478e-18 0.194785 -1.24947)
(5.48426e-18 0.16455 -1.2636)
(5.56846e-18 0.142848 -1.27174)
(5.69783e-18 0.142005 -1.26826)
(6.04593e-18 0.172475 -1.28895)
(5.38374e-18 0.251165 -1.23966)
(3.99963e-18 0.428403 -1.37746)
(4.12501e-18 0.483957 -2.3962)
(3.56593e-18 0.238021 -3.22427)
(2.50026e-18 0.0923933 -3.10698)
(2.13778e-18 0.0363709 -3.00629)
(2.41125e-18 0.00560469 -2.99514)
(2.34664e-18 -0.0121602 -2.9855)
(1.69296e-18 -0.0197328 -2.9675)
(1.61453e-18 -0.0216543 -2.95082)
(1.55613e-18 -0.0207814 -2.93718)
(1.47439e-18 -0.0184984 -2.92571)
(1.42391e-18 -0.0156256 -2.91613)
(1.32588e-18 -0.0126615 -2.90835)
(1.25118e-18 -0.00987695 -2.90217)
(1.17429e-18 -0.00740578 -2.89734)
(1.32689e-18 -0.00530331 -2.89366)
(1.22146e-18 -0.00358036 -2.8909)
(8.59495e-19 -0.00222423 -2.88887)
(9.84365e-19 -0.00121259 -2.88742)
(9.16676e-19 -0.000522257 -2.88638)
(6.51923e-19 -0.000135763 -2.88563)
(6.15936e-19 -4.8662e-05 -2.88503)
(5.84189e-19 -0.000272878 -2.88446)
(5.46885e-19 -0.000843116 -2.88379)
(5.11208e-19 -0.00183005 -2.8829)
(4.76644e-19 -0.0033545 -2.8816)
(4.42417e-19 -0.00561007 -2.87968)
(4.09552e-19 -0.00889991 -2.87686)
(3.77736e-19 -0.0136932 -2.87274)
(3.46863e-19 -0.0207133 -2.86672)
(3.11205e-19 -0.0310756 -2.85797)
(2.76389e-19 -0.0465102 -2.84519)
(2.45529e-19 -0.0696808 -2.82674)
(2.08396e-19 -0.104874 -2.79865)
(1.62948e-19 -0.158081 -2.76223)
(1.05574e-19 -0.242073 -2.68264)
(3.89325e-20 -0.358127 -2.67986)
(6.7523e-20 -0.589636 -2.15385)
(1.05147e-19 -0.797958 -0.857352)
(3.44397e-19 -1.06151 -0.0583988)
(9.44721e-18 -0.219632 -0.00652635)
(1.03043e-17 -0.210838 -0.16932)
(1.08252e-17 -0.105503 -0.388376)
(9.97215e-18 0.0104672 -0.678548)
(8.72458e-18 0.13104 -0.974228)
(7.56139e-18 0.222754 -1.19079)
(6.33216e-18 0.279458 -1.34713)
(5.75135e-18 0.30234 -1.4551)
(5.29049e-18 0.297453 -1.52516)
(4.95813e-18 0.272874 -1.56578)
(4.75202e-18 0.237436 -1.58326)
(4.6432e-18 0.198415 -1.58341)
(4.62323e-18 0.164136 -1.56975)
(4.71285e-18 0.140558 -1.55002)
(4.82088e-18 0.138374 -1.51829)
(4.87467e-18 0.168708 -1.50494)
(4.82417e-18 0.242675 -1.4136)
(3.75814e-18 0.407532 -1.49445)
(3.1723e-18 0.463357 -2.50168)
(2.8948e-18 0.222615 -3.31994)
(2.49543e-18 0.0834311 -3.16824)
(1.74653e-18 0.0288065 -3.04533)
(1.63757e-18 -0.00167133 -3.02443)
(2.11785e-18 -0.018651 -3.00814)
(1.90431e-18 -0.0254283 -2.98514)
(1.69602e-18 -0.0266529 -2.96509)
(1.25331e-18 -0.0250916 -2.94907)
(1.19279e-18 -0.0221413 -2.93582)
(1.4514e-18 -0.0186531 -2.92488)
(1.30982e-18 -0.015139 -2.91602)
(1.17242e-18 -0.011875 -2.90896)
(1.06697e-18 -0.00899474 -2.9034)
(9.87053e-19 -0.00655042 -2.89909)
(9.05708e-19 -0.00454781 -2.89579)
(5.94263e-19 -0.00296846 -2.89329)
(5.66067e-19 -0.00178442 -2.89142)
(7.51974e-19 -0.000967747 -2.89001)
(6.59582e-19 -0.000497531 -2.88894)
(5.81765e-19 -0.000366905 -2.88806)
(5.17344e-19 -0.000587775 -2.88726)
(4.61885e-19 -0.00119807 -2.88642)
(4.11196e-19 -0.00227477 -2.8854)
(3.65093e-19 -0.00395006 -2.88406)
(3.15831e-19 -0.00643629 -2.88221)
(2.78754e-19 -0.0100658 -2.87959)
(2.45205e-19 -0.0153526 -2.87587)
(2.15397e-19 -0.023088 -2.87056)
(1.87927e-19 -0.0344898 -2.86298)
(1.60457e-19 -0.0514451 -2.85208)
(1.45184e-19 -0.0768562 -2.83658)
(1.31456e-19 -0.115408 -2.81305)
(1.18753e-19 -0.173676 -2.78412)
(1.02175e-19 -0.26603 -2.7146)
(7.33687e-20 -0.394685 -2.73283)
(6.45831e-20 -0.658373 -2.21313)
(1.22726e-20 -0.925702 -0.894333)
(3.07181e-19 -1.2592 -0.0671602)
(8.84014e-18 -0.202842 -0.0129654)
(8.9241e-18 -0.135767 -0.39596)
(8.73421e-18 0.0116549 -0.868004)
(7.73607e-18 0.125736 -1.25223)
(6.70669e-18 0.21955 -1.53434)
(5.80032e-18 0.285655 -1.72484)
(4.56711e-18 0.322004 -1.84607)
(4.16127e-18 0.329258 -1.91578)
(4.39044e-18 0.312461 -1.94812)
(4.06288e-18 0.278811 -1.95366)
(3.92223e-18 0.236311 -1.93939)
(3.87808e-18 0.192082 -1.91057)
(3.97517e-18 0.15382 -1.86972)
(4.08726e-18 0.128015 -1.82265)
(4.21256e-18 0.123325 -1.76186)
(4.06108e-18 0.151377 -1.71326)
(3.53379e-18 0.214928 -1.57812)
(2.83594e-18 0.361591 -1.60159)
(2.13751e-18 0.422834 -2.60214)
(1.9017e-18 0.188341 -3.40991)
(1.72036e-18 0.0660308 -3.22477)
(1.09149e-18 0.0143434 -3.08173)
(1.37313e-18 -0.0150966 -3.05194)
(1.86775e-18 -0.0297351 -3.02919)
(9.08831e-19 -0.0344142 -3.00157)
(6.60394e-19 -0.0339877 -2.97841)
(8.89965e-19 -0.0310212 -2.96019)
(1.15133e-18 -0.0268749 -2.94531)
(9.86078e-19 -0.0223912 -2.93311)
(3.13344e-19 -0.0180581 -2.92327)
(2.30802e-19 -0.0141262 -2.9154)
(3.46926e-19 -0.0107072 -2.90918)
(2.70436e-19 -0.00783362 -2.90429)
(1.82227e-19 -0.00549416 -2.90048)
(8.36761e-20 -0.00365589 -2.89754)
(-1.43808e-20 -0.00227892 -2.89528)
(-1.01077e-19 -0.00132597 -2.89353)
(-1.88679e-19 -0.00076926 -2.89216)
(-2.70444e-19 -0.000597215 -2.89102)
(-3.4643e-19 -0.000819867 -2.89001)
(-4.18794e-19 -0.00147664 -2.88901)
(-4.86045e-19 -0.00264939 -2.8879)
(-5.47971e-19 -0.00448006 -2.88654)
(-6.04244e-19 -0.00719767 -2.88478)
(-6.53898e-19 -0.0111609 -2.8824)
(-6.95701e-19 -0.0169243 -2.87914)
(-7.27775e-19 -0.0253407 -2.87461)
(-8.21714e-19 -0.0377219 -2.8683)
(-7.60694e-19 -0.0560982 -2.8594)
(-6.69389e-19 -0.0835886 -2.84708)
(-6.35546e-19 -0.125242 -2.82846)
(-5.75493e-19 -0.188125 -2.80764)
(-4.65179e-19 -0.288272 -2.7492)
(-4.03504e-19 -0.428148 -2.79204)
(-7.16464e-20 -0.727551 -2.28264)
(7.85704e-19 -1.05709 -0.945105)
(4.42212e-19 -1.47121 -0.0791554)
(6.05369e-18 -0.00655841 -0.217691)
(4.80908e-18 0.103187 -1.20031)
(4.16467e-18 0.180827 -1.67618)
(3.65138e-18 0.238448 -1.97074)
(3.12467e-18 0.291321 -2.16135)
(2.6884e-18 0.32964 -2.2703)
(2.28218e-18 0.346782 -2.32049)
(1.7843e-18 0.341109 -2.33045)
(1.85178e-18 0.315685 -2.31417)
(1.84596e-18 0.276114 -2.28125)
(1.88734e-18 0.229083 -2.23696)
(1.87316e-18 0.181108 -2.18418)
(1.99877e-18 0.139064 -2.1226)
(2.22886e-18 0.109719 -2.05477)
(2.4254e-18 0.0996677 -1.97006)
(3.27321e-18 0.12159 -1.89091)
(2.92733e-18 0.168731 -1.71667)
(1.60995e-18 0.293344 -1.68753)
(2.14206e-18 0.366597 -2.69309)
(2.15138e-18 0.147812 -3.48939)
(1.02087e-18 0.0540798 -3.27141)
(9.57743e-19 0.00599735 -3.1128)
(1.43058e-18 -0.0237702 -3.07466)
(1.31232e-18 -0.0374897 -3.04566)
(6.86872e-19 -0.0413545 -3.01404)
(7.3013e-19 -0.0402537 -2.98837)
(7.41269e-19 -0.0365632 -2.96846)
(7.56758e-19 -0.0316717 -2.95237)
(7.22815e-19 -0.0264732 -2.93931)
(6.41402e-19 -0.0214815 -2.9288)
(5.89798e-19 -0.0169602 -2.9204)
(5.47885e-19 -0.0130265 -2.91373)
(6.502e-19 -0.0097129 -2.90845)
(6.17049e-19 -0.00700411 -2.9043)
(4.22605e-19 -0.00486148 -2.90106)
(5.1214e-19 -0.00323877 -2.89852)
(4.60233e-19 -0.00209249 -2.89652)
(2.52366e-19 -0.00138941 -2.89492)
(2.08285e-19 -0.0011133 -2.8936)
(1.9353e-19 -0.00127104 -2.89244)
(1.73429e-19 -0.00190074 -2.89133)
(1.49126e-19 -0.00308474 -2.89018)
(1.26695e-19 -0.00496778 -2.88885)
(1.03983e-19 -0.00778472 -2.88723)
(7.97645e-20 -0.0119037 -2.88516)
(5.37032e-20 -0.0178927 -2.88244)
(2.34137e-20 -0.0266227 -2.87879)
(-1.67374e-20 -0.039426 -2.87389)
(-1.11865e-19 -0.0583531 -2.86721)
(-1.50868e-19 -0.086531 -2.85838)
(-1.97553e-19 -0.129031 -2.84513)
(-2.44052e-19 -0.192823 -2.83328)
(-2.79557e-19 -0.294985 -2.78708)
(-2.97115e-19 -0.436143 -2.8592)
(-1.27435e-19 -0.760646 -2.36506)
(5.20149e-20 -1.17247 -1.01282)
(4.03524e-19 -1.69417 -0.104993)
(6.36132e-20 1.74943 -0.127117)
(1.48822e-19 1.47352 -0.0889999)
(2.81555e-19 1.22542 -0.0715484)
(-2.96415e-19 1.00674 -0.0604381)
(-3.62444e-19 0.806526 -0.0530277)
(-1.77375e-19 0.621665 -0.0477707)
(-2.64899e-19 0.449461 -0.0430413)
(-5.07925e-19 0.289269 -0.036832)
(-5.27503e-19 0.164396 -0.0264758)
(-3.54811e-19 0.0122623 -0.00710301)
(-3.50197e-19 1.14315 -1.13866)
(-5.22822e-19 1.02808 -1.04009)
(-1.35879e-19 0.886046 -0.973163)
(-1.97474e-19 0.753086 -0.928469)
(-2.93096e-19 0.622999 -0.897259)
(-1.44306e-19 0.498759 -0.871982)
(-6.59805e-19 0.379229 -0.842966)
(-3.14925e-19 0.262914 -0.795702)
(-6.52894e-19 0.167471 -0.70416)
(-3.10356e-19 0.0162468 -0.519364)
(6.10521e-20 0.683167 -2.51155)
(2.51298e-19 0.665679 -2.40984)
(4.2159e-19 0.596489 -2.3301)
(2.00036e-19 0.532262 -2.26543)
(1.97955e-19 0.464802 -2.21296)
(-4.2961e-20 0.398939 -2.16904)
(-1.13152e-19 0.333387 -2.12899)
(1.2765e-19 0.263373 -2.08473)
(-3.80542e-19 0.191572 -2.01707)
(-8.63005e-20 0.038371 -1.87408)
(-4.48659e-20 0.355202 -3.00668)
(1.74117e-19 0.363805 -2.92476)
(6.83701e-19 0.336177 -2.85793)
(2.14441e-19 0.305413 -2.80113)
(4.60195e-19 0.266651 -2.75387)
(-1.5413e-19 0.224145 -2.71405)
(5.5158e-19 0.178775 -2.67903)
(4.75798e-19 0.128515 -2.64313)
(2.92397e-19 0.0827711 -2.58896)
(-7.83353e-20 0.0110207 -2.44525)
(-1.18252e-19 0.221212 -2.90355)
(2.4036e-20 0.22527 -2.8604)
(3.9268e-19 0.209269 -2.82328)
(1.47547e-19 0.191142 -2.79045)
(5.26168e-19 0.167478 -2.7628)
(-2.87714e-19 0.140883 -2.7398)
(2.91844e-19 0.112316 -2.72027)
(4.75326e-19 0.0803805 -2.69955)
(2.90863e-19 0.0520703 -2.65994)
(-9.41505e-20 0.0072301 -2.52111)
(-1.55522e-19 0.130738 -2.9263)
(-4.8127e-20 0.13361 -2.8995)
(4.24051e-19 0.124901 -2.87626)
(7.77548e-20 0.114489 -2.85555)
(6.29144e-19 0.100422 -2.83803)
(-3.75337e-19 0.0843059 -2.82342)
(4.32948e-19 0.0670097 -2.81089)
(4.92674e-19 0.0475735 -2.79644)
(3.89393e-19 0.0307497 -2.76267)
(-1.09954e-19 0.00410417 -2.62468)
(-1.77125e-19 0.0779875 -2.92147)
(-1.09844e-19 0.0796422 -2.90576)
(2.88283e-19 0.0747221 -2.89198)
(5.62963e-21 0.0686335 -2.87965)
(6.7281e-19 0.0602846 -2.86922)
(-4.4688e-19 0.0506007 -2.86051)
(3.13646e-19 0.040229 -2.8528)
(4.74816e-19 0.0284591 -2.84247)
(3.87538e-19 0.0184338 -2.81222)
(-1.27625e-19 0.00242488 -2.67432)
(-2.21742e-19 0.0456321 -2.92132)
(-1.49149e-19 0.0467582 -2.91207)
(2.7365e-19 0.044074 -2.90389)
(-3.51905e-20 0.0405957 -2.8966)
(6.69716e-19 0.035721 -2.89044)
(-4.92446e-19 0.0299825 -2.88526)
(3.33046e-19 0.0238555 -2.88039)
(4.48721e-19 0.0167999 -2.87241)
(4.22756e-19 0.0109258 -2.84414)
(-1.42167e-19 0.00139587 -2.70617)
(-2.81107e-19 0.0262052 -2.91987)
(-1.81319e-19 0.0270587 -2.91463)
(2.51351e-19 0.025656 -2.90995)
(2.70768e-20 0.0237321 -2.90581)
(5.52054e-19 0.0209353 -2.90232)
(-5.2862e-19 0.0175763 -2.89936)
(1.8571e-19 0.0140084 -2.89624)
(4.11139e-19 0.00979367 -2.88967)
(2.29689e-19 0.00642225 -2.8625)
(-1.55804e-19 0.000777469 -2.72435)
(-2.41151e-19 0.0146692 -2.91851)
(-2.0848e-19 0.0153657 -2.91574)
(2.54246e-19 0.0146852 -2.91324)
(-1.58896e-20 0.0136794 -2.91106)
(5.23984e-19 0.0121103 -2.90923)
(-5.23134e-19 0.0101717 -2.90764)
(1.39298e-19 0.00813405 -2.9056)
(3.75409e-19 0.00561327 -2.89986)
(1.41044e-19 0.00374902 -2.87327)
(-2.00001e-19 0.000404964 -2.73491)
(-2.12393e-19 0.00799241 -2.91717)
(-2.36276e-19 0.00857486 -2.91596)
(2.20309e-19 0.0082784 -2.91482)
(-1.4595e-19 0.00780058 -2.91387)
(5.77741e-19 0.00693816 -2.91309)
(-5.36507e-19 0.00583185 -2.91238)
(2.44855e-19 0.00469382 -2.91101)
(3.35809e-19 0.0031637 -2.90575)
(2.50322e-19 0.00219844 -2.87946)
(-2.57334e-19 0.000183096 -2.74089)
(-2.19887e-19 0.00426743 -2.916)
(-2.64798e-19 0.00475823 -2.91576)
(1.85398e-19 0.00464451 -2.91549)
(-1.85593e-19 0.00446048 -2.91532)
(5.26691e-19 0.00398885 -2.91522)
(-5.56544e-19 0.00335854 -2.91507)
(2.11645e-19 0.0027369 -2.91414)
(2.83403e-19 0.00177036 -2.90916)
(2.00218e-19 0.00133412 -2.883)
(-2.98999e-19 5.35955e-05 -2.74426)
(-2.29367e-19 0.0023036 -2.91502)
(-2.94353e-19 0.00272265 -2.91542)
(1.41543e-19 0.00267486 -2.9157)
(-2.26671e-19 0.00264844 -2.91605)
(4.68785e-19 0.00237934 -2.9164)
(-5.7771e-19 0.00201294 -2.91663)
(1.65649e-19 0.00167718 -2.91599)
(2.25953e-19 0.00101817 -2.91117)
(1.41636e-19 0.000887122 -2.88507)
(-3.406e-19 -1.90908e-05 -2.74622)
(-3.84284e-19 0.00135392 -2.91424)
(-3.25606e-19 0.00172477 -2.91506)
(1.00369e-19 0.00167885 -2.91571)
(-2.70532e-19 0.00173613 -2.9164)
(4.07838e-19 0.00156126 -2.91707)
(-6.00713e-19 0.00133677 -2.91757)
(1.22777e-19 0.00115146 -2.91714)
(1.63472e-19 0.000650353 -2.91244)
(7.9126e-20 0.000691075 -2.88636)
(-4.65509e-19 -5.67783e-05 -2.74749)
(-4.27064e-19 0.000948467 -2.91362)
(-3.54923e-19 0.00129938 -2.91474)
(5.55323e-20 0.00122424 -2.91565)
(-3.17791e-19 0.00133093 -2.91659)
(3.38627e-19 0.00119228 -2.91749)
(-6.26213e-19 0.00104433 -2.91819)
(7.69696e-20 0.000933514 -2.91793)
(9.54894e-20 0.000507351 -2.91332)
(1.38849e-20 0.000642649 -2.88731)
(-5.1389e-19 -7.28504e-05 -2.74851)
(-3.31692e-19 0.000787823 -2.91314)
(-3.86341e-19 0.00115168 -2.91447)
(1.00238e-20 0.00103698 -2.91557)
(-3.68383e-19 0.00118445 -2.91671)
(2.6443e-19 0.00105614 -2.91778)
(-6.5528e-19 0.000955398 -2.91867)
(2.94447e-20 0.000880884 -2.91856)
(2.15075e-20 0.000489028 -2.91404)
(-5.57604e-20 0.000677053 -2.88813)
(-4.81977e-19 -7.54939e-05 -2.74952)
(-3.57523e-19 0.00067398 -2.91272)
(-4.20846e-19 0.00108873 -2.91422)
(-3.70954e-20 0.000937863 -2.91547)
(-4.23942e-19 0.00113488 -2.91676)
(1.87578e-19 0.0010124 -2.918)
(-6.87909e-19 0.000953254 -2.91905)
(-1.85201e-20 0.000901561 -2.91909)
(-5.90855e-20 0.000531138 -2.91469)
(-1.34249e-19 0.000752748 -2.88894)
(-5.80173e-19 -6.96975e-05 -2.75068)
(-3.8091e-19 0.000466224 -2.9123)
(-4.56879e-19 0.000975792 -2.91394)
(-8.59293e-20 0.000802194 -2.91531)
(-4.8475e-19 0.00107049 -2.91674)
(3.83588e-19 0.000964765 -2.91813)
(-7.23896e-19 0.000958252 -2.91934)
(-6.9982e-20 0.000933088 -2.91954)
(-1.46825e-19 0.000590549 -2.91528)
(-2.20286e-19 0.000841834 -2.88979)
(-5.97151e-19 -5.8487e-05 -2.75204)
(-4.0875e-19 5.71376e-05 -2.91178)
(-4.95435e-19 0.000711829 -2.91355)
(-1.36544e-19 0.000535999 -2.91503)
(-5.66477e-19 0.00090718 -2.91659)
(3.56922e-19 0.000841168 -2.91812)
(-7.78336e-19 0.000911116 -2.91949)
(-1.26503e-19 0.000929316 -2.91987)
(-2.4304e-19 0.000635914 -2.9158)
(-3.13567e-19 0.000923954 -2.89066)
(-6.29216e-19 -4.36733e-05 -2.75363)
(-4.31879e-19 -0.000646611 -2.91109)
(-5.42034e-19 0.000211947 -2.91295)
(-1.88886e-19 6.11551e-05 -2.91452)
(-6.7719e-19 0.000574955 -2.9162)
(4.23099e-20 0.000581285 -2.91788)
(-8.45496e-19 0.000761796 -2.91942)
(-1.89447e-19 0.000851396 -2.92)
(-3.48429e-19 0.000641326 -2.91616)
(-4.11184e-19 0.00098216 -2.89151)
(-7.50696e-19 -2.63226e-05 -2.75542)
(-4.39326e-19 -0.00175041 -2.91011)
(-6.00886e-19 -0.000615662 -2.91205)
(-2.43413e-19 -0.000703162 -2.9137)
(-4.97663e-19 4.29135e-06 -2.91547)
(-3.27826e-19 0.000127194 -2.91729)
(-9.13392e-19 0.000462401 -2.91902)
(-5.48072e-19 0.000661765 -2.91982)
(-4.62053e-19 0.000581786 -2.91627)
(-5.14649e-19 0.000999878 -2.89223)
(-8.63723e-19 -7.05851e-06 -2.75737)
(-2.9798e-19 -0.00337648 -2.90869)
(-6.57715e-19 -0.00187842 -2.91068)
(-3.08635e-19 -0.00185451 -2.91239)
(-5.37425e-19 -0.000888268 -2.91426)
(-4.44899e-19 -0.000587902 -2.91622)
(-9.61207e-19 -3.98897e-05 -2.91812)
(-6.4035e-19 0.000320001 -2.91917)
(-5.67545e-19 0.000430272 -2.91598)
(-6.2804e-19 0.000958561 -2.89269)
(-8.38598e-19 1.37094e-05 -2.75937)
(-3.1085e-19 -0.00566719 -2.90667)
(-7.25997e-19 -0.00370105 -2.90868)
(-3.76726e-19 -0.00350713 -2.91041)
(-8.81326e-19 -0.0022043 -2.91236)
(-2.59235e-19 -0.00164928 -2.91445)
(-1.01956e-18 -0.000813298 -2.91655)
(-4.52262e-19 -0.000224385 -2.91786)
(-6.7561e-19 0.000154331 -2.91508)
(-7.57258e-19 0.000835761 -2.89272)
(-8.94152e-19 3.55998e-05 -2.76132)
(-4.99469e-19 -0.00880508 -2.90386)
(-8.91104e-19 -0.00624123 -2.90583)
(-4.35415e-19 -0.00580185 -2.90754)
(-5.69575e-19 -0.00406805 -2.90952)
(-8.61455e-19 -0.00316215 -2.91172)
(-1.1116e-18 -0.00194531 -2.91402)
(-9.11273e-19 -0.00103861 -2.91565)
(-8.10535e-19 -0.000289549 -2.91334)
(-8.94878e-19 0.00060244 -2.89208)
(-1.10671e-18 5.85232e-05 -2.76303)
(-5.62039e-19 -0.0130265 -2.90002)
(-6.81078e-19 -0.00970512 -2.90187)
(-5.13205e-19 -0.00892291 -2.90349)
(-5.76211e-19 -0.00664063 -2.90545)
(-1.11999e-18 -0.00525981 -2.90774)
(-1.13126e-18 -0.00354525 -2.91022)
(-1.04907e-18 -0.00220816 -2.91217)
(-9.19459e-19 -0.000959618 -2.91042)
(-9.56537e-19 0.000218395 -2.89046)
(-1.21463e-18 8.27546e-05 -2.76425)
(-8.58373e-19 -0.0186401 -2.89485)
(-3.64154e-19 -0.0143633 -2.89645)
(-6.07821e-19 -0.0131118 -2.89789)
(-1.02238e-18 -0.0101353 -2.89976)
(-8.84356e-19 -0.00811998 -2.90208)
(-1.60449e-18 -0.00575764 -2.90473)
(-8.40714e-19 -0.00384375 -2.90702)
(-1.01503e-18 -0.00193125 -2.90589)
(-8.18503e-19 -0.000370674 -2.88742)
(-1.33345e-18 0.000107173 -2.76467)
(-1.13863e-18 -0.026052 -2.88798)
(-6.31578e-19 -0.0205744 -2.88917)
(-6.959e-19 -0.0186885 -2.8903)
(-1.12889e-18 -0.0148352 -2.89196)
(-1.02149e-18 -0.0119802 -2.89423)
(-1.78482e-18 -0.00877691 -2.89702)
(-1.36396e-18 -0.00609461 -2.89965)
(-8.10306e-19 -0.00330534 -2.89921)
(-9.92885e-19 -0.00123873 -2.88242)
(-1.48413e-18 0.00012664 -2.76382)
(-1.37187e-18 -0.0358007 -2.87895)
(-8.95908e-19 -0.0288178 -2.8795)
(-7.98908e-19 -0.0260795 -2.88013)
(-1.36548e-18 -0.0211196 -2.88142)
(-1.17792e-18 -0.0171597 -2.88353)
(-1.43958e-18 -0.0128641 -2.88638)
(-1.51635e-18 -0.00916153 -2.88935)
(-9.18529e-19 -0.00521982 -2.88967)
(-1.41934e-18 -0.00248069 -2.87477)
(-1.6482e-18 0.00013726 -2.76105)
(-1.25546e-18 -0.0486048 -2.8672)
(-8.80798e-19 -0.0397389 -2.86678)
(-8.82596e-19 -0.0358591 -2.86664)
(-9.7092e-19 -0.0294993 -2.86733)
(-1.37569e-18 -0.0240908 -2.8691)