/*--------------------------------*- C++ -*----------------------------------*\
| =========                 |                                                 |
| \\      /  F ield         | OpenFOAM: The Open Source CFD Toolbox           |
|  \\    /   O peration     | Version:  2406                                  |
|   \\  /    A nd           | Website:  www.openfoam.com                      |
|    \\/     M anipulation  |                                                 |
\*---------------------------------------------------------------------------*/
FoamFile
{
    version     2.0;
    format      ascii;
    arch        "LSB;label=32;scalar=64";
    class       volScalarField;
    location    "135";
    object      T;
}
// * * * * * * * * * * * * * * * * * * * * * * * * * * * * * * * * * * * * * //

dimensions      [0 0 0 1 0 0 0];

internalField   nonuniform List<scalar> 
20000
(
299.865
299.898
299.93
299.959
299.987
300.013
300.037
300.06
300.081
300.101
300.119
300.137
300.152
300.167
300.18
300.192
300.203
300.213
300.222
300.23
300.237
300.244
300.249
300.254
300.258
300.261
300.264
300.266
300.267
300.268
300.268
300.268
300.267
300.266
300.265
300.263
300.261
300.258
300.256
300.253
300.249
300.246
300.242
300.238
300.234
300.23
300.226
300.221
300.217
300.212
300.208
300.203
300.198
300.193
300.188
300.184
300.179
300.174
300.169
300.164
300.159
300.154
300.149
300.145
300.14
300.135
300.13
300.126
300.121
300.117
300.112
300.108
300.103
300.099
300.095
300.091
300.086
300.082
300.078
300.074
300.07
300.066
300.062
300.059
300.055
300.051
300.047
300.044
300.04
300.036
300.033
300.029
300.026
300.022
300.019
300.015
300.012
300.009
300.005
300.002
299.596
299.695
299.789
299.877
299.96
300.038
300.112
300.18
300.244
300.303
300.358
300.41
300.457
300.5
300.54
300.577
300.61
300.64
300.667
300.691
300.712
300.731
300.747
300.761
300.773
300.783
300.791
300.797
300.801
300.803
300.804
300.804
300.802
300.799
300.794
300.789
300.783
300.775
300.767
300.758
300.748
300.738
300.727
300.715
300.703
300.691
300.678
300.664
300.651
300.637
300.623
300.609
300.594
300.58
300.565
300.551
300.536
300.521
300.507
300.492
300.477
300.463
300.448
300.434
300.42
300.405
300.391
300.377
300.364
300.35
300.337
300.323
300.31
300.297
300.284
300.272
300.259
300.247
300.234
300.222
300.211
300.199
300.187
300.176
300.164
300.153
300.142
300.131
300.12
300.109
300.099
300.088
300.077
300.067
300.057
300.046
300.036
300.026
300.015
300.005
299.327
299.492
299.649
299.796
299.934
300.064
300.186
300.3
300.406
300.505
300.597
300.682
300.761
300.834
300.9
300.961
301.016
301.066
301.111
301.151
301.187
301.218
301.245
301.269
301.289
301.305
301.318
301.328
301.334
301.339
301.34
301.339
301.336
301.331
301.324
301.315
301.304
301.292
301.278
301.263
301.247
301.229
301.211
301.192
301.172
301.151
301.129
301.107
301.085
301.062
301.038
301.014
300.99
300.966
300.942
300.918
300.893
300.869
300.844
300.82
300.795
300.771
300.747
300.723
300.699
300.676
300.652
300.629
300.606
300.583
300.561
300.539
300.517
300.495
300.474
300.453
300.432
300.411
300.391
300.371
300.351
300.331
300.312
300.293
300.274
300.255
300.237
300.218
300.2
300.182
300.164
300.147
300.129
300.112
300.094
300.077
300.06
300.043
300.026
300.009
299.058
299.29
299.508
299.714
299.908
300.09
300.26
300.42
300.569
300.707
300.836
300.955
301.065
301.167
301.26
301.345
301.422
301.492
301.555
301.611
301.661
301.705
301.743
301.776
301.804
301.826
301.844
301.858
301.868
301.874
301.876
301.875
301.87
301.863
301.853
301.84
301.825
301.808
301.789
301.768
301.745
301.721
301.695
301.668
301.64
301.611
301.581
301.55
301.518
301.486
301.453
301.42
301.386
301.352
301.318
301.284
301.25
301.216
301.181
301.147
301.113
301.079
301.045
301.012
300.979
300.946
300.913
300.88
300.848
300.816
300.785
300.754
300.723
300.693
300.663
300.633
300.604
300.575
300.547
300.519
300.491
300.464
300.436
300.41
300.383
300.357
300.331
300.306
300.28
300.255
300.23
300.205
300.181
300.156
300.132
300.108
300.084
300.06
300.036
300.012
298.79
299.087
299.368
299.632
299.881
300.115
300.334
300.539
300.731
300.909
301.074
301.228
301.369
301.5
301.619
301.728
301.828
301.918
301.999
302.071
302.135
302.192
302.241
302.283
302.318
302.347
302.37
302.388
302.401
302.408
302.411
302.409
302.404
302.394
302.381
302.365
302.346
302.324
302.299
302.272
302.243
302.212
302.179
302.144
302.108
302.07
302.031
301.992
301.951
301.91
301.868
301.825
301.782
301.738
301.695
301.651
301.607
301.563
301.519
301.475
301.431
301.387
301.344
301.301
301.258
301.215
301.173
301.131
301.09
301.049
301.009
300.969
300.93
300.891
300.852
300.814
300.777
300.739
300.703
300.667
300.631
300.596
300.561
300.527
300.493
300.459
300.426
300.393
300.36
300.328
300.296
300.264
300.232
300.201
300.17
300.139
300.108
300.077
300.046
300.015
298.521
298.885
299.228
299.551
299.855
300.141
300.409
300.659
300.893
301.11
301.313
301.5
301.673
301.832
301.978
302.112
302.233
302.343
302.442
302.53
302.608
302.677
302.737
302.789
302.832
302.868
302.896
302.918
302.933
302.942
302.945
302.943
302.937
302.925
302.909
302.89
302.866
302.839
302.809
302.776
302.74
302.702
302.662
302.619
302.575
302.529
302.482
302.433
302.384
302.333
302.282
302.23
302.177
302.124
302.07
302.017
301.963
301.909
301.855
301.801
301.748
301.695
301.642
301.589
301.537
301.485
301.433
301.382
301.332
301.282
301.233
301.184
301.136
301.088
301.041
300.995
300.949
300.903
300.859
300.815
300.771
300.728
300.685
300.643
300.602
300.561
300.52
300.48
300.44
300.4
300.361
300.322
300.284
300.245
300.207
300.169
300.132
300.094
300.056
300.019
298.253
298.682
299.088
299.47
299.829
300.166
300.483
300.778
301.055
301.312
301.55
301.772
301.976
302.164
302.337
302.494
302.638
302.767
302.884
302.989
303.081
303.163
303.233
303.294
303.345
303.387
303.421
303.446
303.464
303.475
303.479
303.477
303.469
303.455
303.437
303.413
303.385
303.354
303.318
303.279
303.237
303.192
303.144
303.094
303.042
302.987
302.932
302.874
302.816
302.756
302.695
302.634
302.571
302.509
302.446
302.382
302.319
302.255
302.191
302.128
302.065
302.002
301.939
301.877
301.815
301.754
301.693
301.633
301.573
301.514
301.456
301.398
301.341
301.285
301.23
301.175
301.121
301.067
301.014
300.962
300.911
300.86
300.81
300.76
300.711
300.662
300.614
300.567
300.52
300.473
300.427
300.381
300.335
300.29
300.245
300.2
300.155
300.111
300.067
300.022
297.985
298.481
298.948
299.388
299.803
300.192
300.557
300.898
301.216
301.513
301.788
302.043
302.279
302.496
302.694
302.876
303.042
303.191
303.326
303.446
303.553
303.647
303.729
303.799
303.858
303.906
303.945
303.974
303.995
304.007
304.012
304.01
304
303.985
303.963
303.936
303.904
303.867
303.826
303.781
303.733
303.681
303.625
303.568
303.507
303.445
303.381
303.315
303.247
303.178
303.108
303.037
302.965
302.893
302.82
302.747
302.674
302.6
302.527
302.454
302.381
302.308
302.236
302.164
302.093
302.022
301.952
301.883
301.814
301.746
301.679
301.613
301.547
301.482
301.418
301.355
301.292
301.231
301.17
301.11
301.05
300.992
300.934
300.876
300.82
300.764
300.708
300.654
300.599
300.545
300.492
300.439
300.387
300.334
300.282
300.231
300.179
300.128
300.077
300.026
297.718
298.279
298.808
299.307
299.777
300.217
300.63
301.017
301.377
301.713
302.025
302.314
302.581
302.826
303.052
303.258
303.445
303.614
303.767
303.903
304.024
304.131
304.223
304.302
304.369
304.424
304.468
304.501
304.525
304.539
304.544
304.541
304.531
304.513
304.489
304.458
304.422
304.38
304.334
304.283
304.227
304.168
304.106
304.041
303.973
303.902
303.829
303.754
303.677
303.599
303.52
303.44
303.358
303.277
303.194
303.111
303.028
302.945
302.862
302.779
302.697
302.614
302.533
302.451
302.371
302.291
302.211
302.133
302.055
301.978
301.902
301.826
301.752
301.679
301.606
301.534
301.464
301.394
301.325
301.257
301.189
301.123
301.057
300.992
300.928
300.865
300.802
300.74
300.679
300.618
300.557
300.497
300.438
300.379
300.32
300.261
300.203
300.145
300.087
300.029
297.452
298.078
298.669
299.226
299.75
300.243
300.704
301.135
301.538
301.913
302.262
302.584
302.882
303.157
303.408
303.638
303.847
304.037
304.207
304.359
304.494
304.613
304.716
304.805
304.88
304.941
304.99
305.027
305.053
305.069
305.075
305.072
305.06
305.04
305.013
304.979
304.938
304.892
304.84
304.783
304.721
304.655
304.586
304.513
304.437
304.358
304.276
304.193
304.107
304.02
303.931
303.842
303.751
303.659
303.567
303.475
303.382
303.289
303.197
303.104
303.012
302.92
302.828
302.738
302.648
302.558
302.47
302.382
302.295
302.209
302.124
302.04
301.957
301.875
301.794
301.714
301.635
301.557
301.48
301.403
301.328
301.254
301.181
301.108
301.037
300.966
300.896
300.827
300.758
300.69
300.622
300.555
300.489
300.423
300.357
300.292
300.227
300.162
300.097
300.032
297.186
297.878
298.53
299.146
299.724
300.268
300.777
301.254
301.699
302.113
302.498
302.854
303.183
303.486
303.764
304.018
304.249
304.458
304.646
304.814
304.963
305.095
305.209
305.306
305.389
305.457
305.511
305.552
305.581
305.598
305.604
305.601
305.588
305.566
305.536
305.498
305.454
305.402
305.345
305.282
305.214
305.141
305.064
304.984
304.9
304.812
304.722
304.63
304.536
304.439
304.342
304.242
304.142
304.041
303.939
303.837
303.735
303.633
303.53
303.428
303.326
303.225
303.124
303.023
302.924
302.825
302.727
302.63
302.534
302.439
302.345
302.253
302.161
302.07
301.981
301.892
301.805
301.719
301.634
301.55
301.467
301.385
301.304
301.224
301.145
301.067
300.989
300.913
300.837
300.762
300.687
300.613
300.54
300.467
300.395
300.322
300.25
300.179
300.107
300.036
296.921
297.677
298.392
299.065
299.698
300.293
300.851
301.372
301.859
302.312
302.733
303.123
303.483
303.815
304.119
304.396
304.649
304.878
305.084
305.268
305.431
305.575
305.7
305.807
305.897
305.971
306.03
306.075
306.106
306.125
306.133
306.129
306.114
306.091
306.058
306.016
305.967
305.911
305.849
305.78
305.705
305.626
305.542
305.453
305.361
305.266
305.168
305.066
304.963
304.858
304.751
304.642
304.533
304.422
304.311
304.199
304.087
303.975
303.863
303.751
303.639
303.528
303.418
303.308
303.199
303.091
302.984
302.878
302.773
302.669
302.567
302.465
302.365
302.265
302.168
302.071
301.975
301.881
301.788
301.696
301.605
301.516
301.427
301.339
301.253
301.167
301.083
300.999
300.916
300.834
300.752
300.671
300.591
300.511
300.432
300.353
300.274
300.196
300.117
300.039
296.656
297.478
298.254
298.985
299.672
300.318
300.924
301.49
302.018
302.511
302.968
303.391
303.782
304.142
304.472
304.774
305.049
305.297
305.521
305.72
305.898
306.054
306.189
306.305
306.403
306.484
306.548
306.597
306.631
306.652
306.659
306.655
306.64
306.614
306.578
306.533
306.48
306.419
306.351
306.276
306.195
306.109
306.018
305.922
305.822
305.718
305.611
305.502
305.389
305.275
305.159
305.041
304.922
304.802
304.681
304.56
304.438
304.316
304.195
304.073
303.952
303.831
303.712
303.592
303.474
303.357
303.241
303.125
303.011
302.899
302.787
302.677
302.568
302.46
302.354
302.249
302.145
302.043
301.941
301.842
301.743
301.646
301.55
301.455
301.361
301.268
301.176
301.085
300.995
300.905
300.817
300.729
300.642
300.555
300.469
300.383
300.298
300.212
300.127
300.042
296.393
297.279
298.116
298.905
299.647
300.343
300.997
301.607
302.178
302.708
303.202
303.658
304.08
304.469
304.825
305.15
305.447
305.715
305.956
306.171
306.363
306.531
306.677
306.802
306.908
306.995
307.064
307.117
307.154
307.176
307.184
307.18
307.163
307.135
307.097
307.048
306.991
306.925
306.852
306.771
306.684
306.591
306.492
306.389
306.281
306.169
306.054
305.935
305.814
305.691
305.565
305.438
305.31
305.18
305.05
304.919
304.788
304.657
304.525
304.394
304.264
304.134
304.004
303.876
303.748
303.622
303.496
303.372
303.249
303.127
303.007
302.888
302.77
302.654
302.539
302.426
302.314
302.204
302.095
301.987
301.881
301.775
301.672
301.569
301.468
301.368
301.268
301.17
301.073
300.977
300.881
300.786
300.692
300.599
300.506
300.413
300.321
300.229
300.137
300.046
296.13
297.081
297.979
298.825
299.621
300.368
301.069
301.724
302.336
302.906
303.435
303.925
304.377
304.794
305.176
305.526
305.843
306.131
306.39
306.621
306.826
307.007
307.163
307.298
307.411
307.504
307.579
307.635
307.675
307.699
307.708
307.703
307.685
307.655
307.613
307.562
307.5
307.429
307.351
307.264
307.171
307.071
306.965
306.854
306.738
306.618
306.495
306.368
306.238
306.105
305.971
305.834
305.697
305.558
305.418
305.277
305.137
304.996
304.855
304.714
304.574
304.435
304.296
304.158
304.021
303.885
303.751
303.617
303.485
303.355
303.226
303.098
302.972
302.847
302.724
302.603
302.483
302.364
302.247
302.132
302.017
301.905
301.793
301.683
301.575
301.467
301.361
301.255
301.151
301.048
300.945
300.844
300.743
300.642
300.543
300.443
300.344
300.246
300.147
300.049
295.868
296.884
297.842
298.745
299.595
300.393
301.141
301.841
302.494
303.102
303.667
304.19
304.674
305.118
305.527
305.899
306.239
306.545
306.822
307.069
307.288
307.48
307.648
307.791
307.912
308.012
308.091
308.152
308.194
308.219
308.229
308.224
308.205
308.173
308.128
308.073
308.007
307.932
307.848
307.755
307.656
307.549
307.436
307.318
307.194
307.066
306.934
306.798
306.66
306.518
306.375
306.229
306.082
305.934
305.784
305.634
305.484
305.334
305.183
305.033
304.884
304.735
304.586
304.439
304.293
304.148
304.004
303.862
303.721
303.582
303.444
303.308
303.173
303.04
302.908
302.779
302.651
302.524
302.399
302.276
302.154
302.034
301.915
301.797
301.681
301.566
301.453
301.34
301.229
301.119
301.009
300.901
300.793
300.686
300.579
300.473
300.368
300.262
300.157
300.052
295.607
296.687
297.706
298.666
299.57
300.418
301.213
301.957
302.652
303.298
303.899
304.455
304.969
305.441
305.875
306.272
306.632
306.959
307.252
307.515
307.748
307.953
308.131
308.283
308.412
308.518
308.602
308.666
308.711
308.738
308.748
308.743
308.722
308.688
308.641
308.583
308.513
308.433
308.343
308.245
308.139
308.025
307.905
307.779
307.648
307.512
307.372
307.227
307.08
306.93
306.777
306.622
306.466
306.308
306.149
305.99
305.83
305.67
305.51
305.351
305.192
305.033
304.876
304.719
304.564
304.41
304.257
304.106
303.956
303.808
303.661
303.516
303.373
303.232
303.092
302.954
302.818
302.683
302.551
302.419
302.29
302.162
302.036
301.911
301.787
301.665
301.545
301.425
301.307
301.189
301.073
300.958
300.843
300.729
300.616
300.503
300.391
300.279
300.167
300.056
295.348
296.491
297.57
298.587
299.544
300.443
301.285
302.073
302.808
303.493
304.129
304.718
305.262
305.763
306.223
306.642
307.024
307.37
307.681
307.959
308.206
308.423
308.611
308.773
308.909
309.021
309.11
309.178
309.226
309.255
309.265
309.26
309.238
309.202
309.152
309.09
309.016
308.931
308.836
308.732
308.62
308.5
308.373
308.239
308.1
307.956
307.807
307.655
307.498
307.339
307.178
307.014
306.848
306.681
306.513
306.344
306.175
306.005
305.836
305.667
305.499
305.331
305.164
304.998
304.834
304.671
304.509
304.349
304.19
304.033
303.878
303.724
303.573
303.423
303.275
303.129
302.984
302.842
302.701
302.562
302.425
302.29
302.156
302.024
301.893
301.764
301.636
301.509
301.384
301.26
301.136
301.014
300.893
300.772
300.652
300.533
300.414
300.295
300.177
300.059
295.089
296.296
297.435
298.509
299.519
300.468
301.357
302.188
302.964
303.687
304.359
304.98
305.555
306.083
306.568
307.012
307.415
307.78
308.108
308.401
308.662
308.891
309.09
309.26
309.404
309.522
309.617
309.688
309.739
309.769
309.78
309.774
309.751
309.713
309.661
309.595
309.517
309.427
309.327
309.218
309.099
308.972
308.838
308.697
308.55
308.398
308.241
308.08
307.915
307.747
307.576
307.403
307.229
307.052
306.875
306.697
306.518
306.339
306.16
305.982
305.804
305.627
305.451
305.276
305.102
304.93
304.759
304.59
304.423
304.257
304.093
303.931
303.771
303.613
303.457
303.303
303.15
303
302.851
302.705
302.56
302.417
302.276
302.136
301.998
301.862
301.727
301.593
301.461
301.33
301.2
301.071
300.942
300.815
300.689
300.563
300.437
300.312
300.187
300.062
294.832
296.102
297.301
298.431
299.494
300.492
301.428
302.303
303.12
303.88
304.587
305.241
305.846
306.402
306.913
307.379
307.803
308.187
308.533
308.842
309.116
309.357
309.566
309.746
309.897
310.021
310.121
310.196
310.249
310.281
310.293
310.286
310.262
310.222
310.167
310.098
310.016
309.921
309.816
309.701
309.576
309.442
309.301
309.153
308.998
308.838
308.673
308.503
308.33
308.153
307.973
307.791
307.607
307.422
307.235
307.048
306.86
306.671
306.483
306.296
306.108
305.922
305.737
305.553
305.37
305.188
305.009
304.831
304.654
304.48
304.308
304.137
303.969
303.802
303.638
303.476
303.315
303.157
303.001
302.847
302.694
302.544
302.395
302.248
302.103
301.959
301.817
301.677
301.537
301.399
301.262
301.127
300.992
300.858
300.725
300.592
300.46
300.328
300.197
300.066
294.576
295.909
297.167
298.353
299.469
300.516
301.498
302.417
303.274
304.073
304.814
305.501
306.135
306.719
307.255
307.745
308.19
308.593
308.955
309.28
309.567
309.82
310.04
310.228
310.387
310.518
310.622
310.701
310.757
310.79
310.803
310.796
310.771
310.729
310.671
310.598
310.512
310.413
310.302
310.181
310.05
309.91
309.762
309.606
309.444
309.276
309.103
308.925
308.743
308.557
308.368
308.177
307.984
307.789
307.594
307.397
307.199
307.002
306.804
306.607
306.411
306.215
306.021
305.828
305.636
305.446
305.257
305.07
304.885
304.702
304.521
304.342
304.165
303.991
303.818
303.648
303.48
303.313
303.149
302.988
302.828
302.67
302.514
302.36
302.207
302.056
301.907
301.76
301.613
301.469
301.325
301.182
301.041
300.9
300.76
300.621
300.483
300.344
300.207
300.069
294.321
295.717
297.034
298.276
299.444
300.541
301.569
302.531
303.428
304.264
305.04
305.759
306.423
307.035
307.596
308.108
308.574
308.996
309.376
309.715
310.017
310.281
310.511
310.709
310.875
311.012
311.121
311.204
311.262
311.297
311.31
311.303
311.277
311.233
311.172
311.096
311.005
310.902
310.786
310.659
310.522
310.375
310.22
310.057
309.888
309.712
309.53
309.344
309.153
308.959
308.761
308.561
308.359
308.155
307.95
307.744
307.537
307.331
307.124
306.918
306.712
306.507
306.304
306.101
305.9
305.701
305.504
305.308
305.114
304.923
304.733
304.546
304.361
304.178
303.997
303.819
303.643
303.469
303.297
303.128
302.96
302.795
302.632
302.47
302.311
302.153
301.997
301.842
301.689
301.538
301.387
301.238
301.09
300.943
300.796
300.65
300.505
300.361
300.216
300.072
294.068
295.526
296.902
298.199
299.419
300.565
301.639
302.643
303.581
304.454
305.265
306.016
306.71
307.349
307.935
308.47
308.957
309.398
309.794
310.149
310.463
310.74
310.98
311.186
311.36
311.503
311.617
311.703
311.764
311.801
311.815
311.807
311.78
311.734
311.67
311.591
311.496
311.388
311.267
311.135
310.991
310.838
310.676
310.506
310.329
310.145
309.955
309.761
309.561
309.358
309.152
308.943
308.732
308.519
308.305
308.089
307.874
307.658
307.442
307.226
307.011
306.798
306.585
306.374
306.164
305.956
305.749
305.545
305.343
305.142
304.944
304.749
304.555
304.364
304.176
303.989
303.805
303.624
303.444
303.267
303.092
302.92
302.749
302.581
302.414
302.249
302.086
301.924
301.765
301.606
301.449
301.293
301.138
300.985
300.832
300.679
300.528
300.377
300.226
300.075
293.816
295.336
296.77
298.122
299.394
300.589
301.708
302.756
303.733
304.643
305.489
306.272
306.995
307.661
308.271
308.829
309.337
309.796
310.21
310.58
310.908
311.196
311.446
311.661
311.842
311.991
312.11
312.2
312.264
312.302
312.316
312.308
312.28
312.232
312.166
312.083
311.984
311.872
311.746
311.607
311.458
311.298
311.129
310.952
310.767
310.576
310.378
310.175
309.967
309.756
309.541
309.323
309.103
308.881
308.657
308.433
308.208
307.983
307.758
307.533
307.309
307.086
306.864
306.644
306.425
306.208
305.993
305.78
305.569
305.361
305.154
304.95
304.749
304.55
304.353
304.159
303.967
303.778
303.591
303.406
303.224
303.044
302.866
302.69
302.516
302.344
302.174
302.006
301.84
301.674
301.511
301.348
301.187
301.026
300.867
300.708
300.55
300.393
300.235
300.078
293.566
295.147
296.64
298.046
299.37
300.613
301.778
302.867
303.884
304.831
305.711
306.525
307.278
307.971
308.606
309.187
309.715
310.193
310.623
311.008
311.349
311.649
311.91
312.133
312.322
312.477
312.6
312.694
312.76
312.8
312.815
312.806
312.777
312.727
312.658
312.572
312.47
312.352
312.221
312.077
311.922
311.756
311.58
311.395
311.203
311.004
310.798
310.587
310.371
310.151
309.927
309.7
309.471
309.24
309.008
308.774
308.54
308.306
308.072
307.838
307.605
307.373
307.142
306.913
306.685
306.46
306.236
306.014
305.795
305.578
305.363
305.151
304.941
304.734
304.529
304.327
304.128
303.931
303.736
303.544
303.354
303.167
302.982
302.799
302.618
302.439
302.262
302.087
301.914
301.742
301.572
301.403
301.235
301.068
300.902
300.737
300.573
300.409
300.245
300.082
293.317
294.959
296.51
297.971
299.345
300.636
301.846
302.978
304.034
305.018
305.931
306.778
307.559
308.279
308.939
309.542
310.091
310.587
311.034
311.433
311.788
312.099
312.37
312.602
312.798
312.959
313.087
313.185
313.253
313.294
313.31
313.302
313.271
313.219
313.147
313.058
312.952
312.83
312.693
312.544
312.383
312.21
312.027
311.836
311.636
311.429
311.215
310.996
310.772
310.543
310.311
310.075
309.837
309.597
309.356
309.113
308.87
308.627
308.384
308.141
307.899
307.658
307.418
307.18
306.944
306.709
306.477
306.247
306.019
305.793
305.57
305.35
305.132
304.917
304.704
304.494
304.287
304.082
303.88
303.681
303.484
303.289
303.097
302.907
302.719
302.534
302.35
302.168
301.988
301.809
301.633
301.457
301.283
301.109
300.937
300.766
300.595
300.424
300.254
300.085
293.07
294.773
296.381
297.896
299.321
300.66
301.914
303.088
304.183
305.203
306.151
307.028
307.839
308.585
309.269
309.895
310.464
310.978
311.442
311.856
312.224
312.547
312.827
313.068
313.271
313.438
313.571
313.672
313.743
313.786
313.802
313.793
313.761
313.707
313.633
313.541
313.43
313.304
313.163
313.008
312.84
312.661
312.472
312.273
312.066
311.851
311.63
311.403
311.17
310.933
310.692
310.448
310.201
309.952
309.702
309.45
309.198
308.946
308.694
308.442
308.191
307.941
307.693
307.446
307.201
306.957
306.716
306.478
306.241
306.007
305.776
305.548
305.322
305.099
304.878
304.661
304.446
304.233
304.024
303.817
303.613
303.411
303.212
303.015
302.82
302.627
302.437
302.248
302.061
301.876
301.693
301.511
301.33
301.15
300.972
300.794
300.617
300.44
300.264
300.088
292.824
294.588
296.252
297.821
299.297
300.683
301.982
303.197
304.332
305.388
306.369
307.277
308.116
308.889
309.598
310.245
310.834
311.367
311.847
312.276
312.656
312.991
313.282
313.531
313.741
313.914
314.052
314.156
314.23
314.274
314.291
314.282
314.248
314.193
314.116
314.02
313.906
313.775
313.629
313.468
313.295
313.11
312.914
312.708
312.493
312.271
312.042
311.806
311.565
311.32
311.07
310.818
310.562
310.305
310.045
309.785
309.524
309.263
309.001
308.741
308.481
308.222
307.965
307.709
307.456
307.204
306.954
306.707
306.462
306.22
305.981
305.744
305.51
305.279
305.051
304.826
304.603
304.383
304.166
303.952
303.741
303.532
303.325
303.121
302.92
302.72
302.523
302.328
302.134
301.943
301.753
301.564
301.377
301.191
301.006
300.822
300.639
300.456
300.273
300.091
292.581
294.404
296.125
297.747
299.273
300.706
302.05
303.306
304.479
305.571
306.585
307.524
308.392
309.191
309.923
310.593
311.202
311.753
312.249
312.693
313.086
313.432
313.732
313.99
314.207
314.386
314.529
314.637
314.713
314.759
314.776
314.767
314.732
314.675
314.595
314.496
314.378
314.243
314.091
313.926
313.746
313.555
313.352
313.139
312.918
312.688
312.451
312.207
311.958
311.704
311.446
311.185
310.921
310.654
310.386
310.117
309.847
309.577
309.307
309.038
308.769
308.501
308.235
307.971
307.709
307.448
307.19
306.935
306.682
306.431
306.184
305.939
305.697
305.458
305.222
304.989
304.759
304.532
304.308
304.086
303.868
303.652
303.438
303.227
303.019
302.813
302.609
302.407
302.207
302.009
301.812
301.617
301.424
301.231
301.04
300.85
300.66
300.471
300.283
300.094
292.339
294.222
295.999
297.674
299.25
300.729
302.116
303.414
304.625
305.752
306.799
307.769
308.665
309.49
310.247
310.938
311.567
312.136
312.648
313.106
313.512
313.87
314.18
314.446
314.67
314.855
315.002
315.114
315.192
315.24
315.257
315.248
315.212
315.153
315.071
314.968
314.847
314.707
314.551
314.379
314.194
313.996
313.787
313.568
313.339
313.101
312.856
312.605
312.348
312.086
311.819
311.549
311.277
311.002
310.725
310.447
310.168
309.889
309.61
309.332
309.055
308.778
308.504
308.231
307.96
307.691
307.425
307.161
306.899
306.641
306.385
306.133
305.883
305.636
305.393
305.152
304.914
304.68
304.448
304.219
303.994
303.771
303.55
303.332
303.117
302.904
302.694
302.485
302.279
302.074
301.871
301.67
301.47
301.272
301.074
300.878
300.682
300.487
300.292
300.097
292.099
294.041
295.874
297.601
299.226
300.752
302.183
303.521
304.769
305.932
307.012
308.013
308.937
309.787
310.568
311.281
311.929
312.516
313.044
313.517
313.936
314.304
314.624
314.898
315.13
315.32
315.472
315.587
315.668
315.717
315.735
315.725
315.689
315.627
315.543
315.437
315.311
315.167
315.006
314.83
314.639
314.435
314.219
313.992
313.756
313.511
313.259
313
312.734
312.464
312.189
311.911
311.63
311.346
311.061
310.774
310.486
310.199
309.911
309.624
309.338
309.053
308.77
308.489
308.209
307.932
307.657
307.385
307.115
306.849
306.585
306.325
306.067
305.813
305.561
305.313
305.068
304.826
304.587
304.352
304.119
303.889
303.661
303.437
303.215
302.995
302.778
302.563
302.35
302.139
301.93
301.722
301.516
301.311
301.108
300.905
300.703
300.502
300.301
300.1
291.861
293.861
295.749
297.529
299.203
300.775
302.248
303.627
304.913
306.111
307.223
308.254
309.206
310.082
310.886
311.62
312.288
312.893
313.437
313.924
314.355
314.735
315.064
315.347
315.585
315.781
315.938
316.056
316.14
316.19
316.209
316.199
316.161
316.098
316.011
315.902
315.772
315.624
315.458
315.276
315.08
314.869
314.647
314.414
314.17
313.918
313.658
313.391
313.118
312.839
312.556
312.27
311.98
311.688
311.394
311.098
310.802
310.506
310.21
309.914
309.619
309.326
309.034
308.744
308.456
308.171
307.888
307.607
307.33
307.055
306.784
306.515
306.25
305.988
305.729
305.473
305.221
304.972
304.726
304.483
304.243
304.006
303.772
303.54
303.312
303.086
302.862
302.64
302.421
302.204
301.988
301.774
301.562
301.351
301.141
300.932
300.724
300.517
300.31
300.103
291.625
293.683
295.626
297.457
299.18
300.797
302.314
303.732
305.055
306.288
307.433
308.493
309.473
310.374
311.201
311.957
312.645
313.267
313.827
314.327
314.771
315.162
315.501
315.792
316.037
316.239
316.4
316.522
316.608
316.659
316.679
316.668
316.63
316.565
316.475
316.363
316.23
316.077
315.906
315.719
315.517
315.3
315.072
314.832
314.581
314.322
314.054
313.779
313.498
313.212
312.92
312.625
312.327
312.026
311.724
311.42
311.115
310.81
310.506
310.201
309.898
309.596
309.296
308.998
308.701
308.408
308.116
307.828
307.542
307.26
306.98
306.704
306.431
306.161
305.895
305.632
305.372
305.116
304.863
304.613
304.366
304.122
303.881
303.643
303.408
303.175
302.945
302.717
302.491
302.267
302.046
301.826
301.607
301.39
301.174
300.959
300.745
300.532
300.319
300.106
291.391
293.507
295.504
297.386
299.157
300.82
302.378
303.836
305.197
306.463
307.64
308.73
309.737
310.664
311.514
312.291
312.998
313.637
314.213
314.727
315.184
315.585
315.934
316.233
316.485
316.692
316.858
316.983
317.071
317.125
317.145
317.134
317.094
317.027
316.935
316.82
316.683
316.526
316.35
316.158
315.95
315.728
315.493
315.246
314.988
314.722
314.446
314.164
313.875
313.58
313.281
312.978
312.671
312.362
312.051
311.739
311.426
311.112
310.799
310.486
310.175
309.864
309.556
309.249
308.944
308.642
308.343
308.046
307.753
307.462
307.175
306.891
306.611
306.333
306.06
305.789
305.522
305.259
304.998
304.741
304.488
304.237
303.989
303.745
303.503
303.264
303.027
302.793
302.561
302.331
302.103
301.877
301.652
301.429
301.207
300.986
300.766
300.547
300.328
300.109
291.16
293.332
295.383
297.316
299.134
300.842
302.442
303.939
305.336
306.637
307.846
308.965
309.999
310.951
311.824
312.622
313.347
314.004
314.595
315.124
315.593
316.005
316.363
316.67
316.929
317.142
317.311
317.44
317.531
317.585
317.606
317.595
317.554
317.485
317.391
317.273
317.132
316.971
316.791
316.593
316.379
316.151
315.91
315.656
315.392
315.118
314.835
314.545
314.248
313.946
313.639
313.327
313.012
312.695
312.376
312.055
311.733
311.411
311.09
310.769
310.449
310.13
309.813
309.498
309.185
308.875
308.568
308.263
307.962
307.663
307.368
307.077
306.788
306.504
306.223
305.945
305.671
305.4
305.133
304.869
304.608
304.351
304.097
303.845
303.597
303.351
303.108
302.868
302.63
302.394
302.159
301.927
301.697
301.467
301.239
301.013
300.787
300.561
300.337
300.112
290.93
293.159
295.263
297.246
299.112
300.864
302.506
304.041
305.475
306.81
308.05
309.198
310.259
311.235
312.131
312.95
313.694
314.368
314.974
315.516
315.997
316.42
316.788
317.103
317.368
317.587
317.761
317.893
317.986
318.042
318.063
318.052
318.01
317.939
317.843
317.721
317.577
317.411
317.227
317.024
316.805
316.57
316.323
316.063
315.792
315.51
315.221
314.923
314.618
314.308
313.993
313.673
313.35
313.025
312.697
312.368
312.038
311.708
311.378
311.048
310.72
310.393
310.068
309.744
309.424
309.105
308.79
308.478
308.168
307.862
307.56
307.26
306.965
306.673
306.384
306.099
305.818
305.54
305.266
304.995
304.728
304.464
304.203
303.945
303.69
303.438
303.189
302.942
302.698
302.456
302.216
301.977
301.741
301.505
301.272
301.039
300.807
300.576
300.345
300.115
290.703
292.988
295.144
297.177
299.089
300.885
302.568
304.143
305.612
306.981
308.251
309.429
310.516
311.517
312.435
313.274
314.037
314.728
315.35
315.905
316.398
316.832
317.208
317.531
317.804
318.028
318.206
318.342
318.437
318.494
318.516
318.504
318.461
318.389
318.29
318.165
318.017
317.848
317.658
317.45
317.226
316.986
316.732
316.465
316.187
315.899
315.602
315.297
314.985
314.667
314.344
314.016
313.685
313.351
313.015
312.678
312.34
312.001
311.663
311.325
310.988
310.653
310.32
309.989
309.66
309.334
309.01
308.69
308.373
308.059
307.749
307.442
307.139
306.84
306.544
306.252
305.964
305.679
305.398
305.121
304.847
304.576
304.308
304.044
303.783
303.525