/*--------------------------------*- C++ -*----------------------------------*\
| =========                 |                                                 |
| \\      /  F ield         | OpenFOAM: The Open Source CFD Toolbox           |
|  \\    /   O peration     | Version:  2406                                  |
|   \\  /    A nd           | Website:  www.openfoam.com                      |
|    \\/     M anipulation  |                                                 |
\*---------------------------------------------------------------------------*/
FoamFile
{
    version     2.0;
    format      ascii;
    arch        "LSB;label=32;scalar=64";
    class       volScalarField;
    location    "80";
    object      gradTy;
}
// * * * * * * * * * * * * * * * * * * * * * * * * * * * * * * * * * * * * * //

dimensions      [0 -1 0 1 0 0 0];

internalField   nonuniform List<scalar> 
20000
(
324.051
314.691
305.245
295.746
286.23
276.725
267.261
257.863
248.553
239.352
230.278
221.349
212.579
203.981
195.564
187.34
179.316
171.498
163.894
156.506
149.338
142.392
135.67
129.171
122.896
116.843
111.012
105.398
100.001
94.816
89.8403
85.0697
80.4999
76.1265
71.9447
67.9495
64.1358
60.4985
57.0322
53.7314
50.5909
47.6051
44.7686
42.0759
39.5217
37.1007
34.8075
32.6369
30.5839
28.6435
26.8107
25.0808
23.4491
21.911
20.4622
19.0983
17.8152
16.6089
15.4755
14.4112
13.4126
12.476
11.5981
10.7758
10.006
9.28567
8.61208
7.9825
7.39435
6.84519
6.33267
5.85455
5.40869
4.99308
4.60579
4.24498
3.90891
3.59593
3.30446
3.03301
2.78016
2.54457
2.32495
2.1201
1.92885
1.7501
1.58282
1.426
1.27868
1.13996
1.00897
0.884859
0.766827
0.654092
0.5459
0.441515
0.340222
0.241319
0.144114
0.0479252
323.971
314.614
305.169
295.673
286.159
276.657
267.195
257.799
248.492
239.293
230.222
221.295
212.527
203.93
195.516
187.294
179.271
171.456
163.853
156.467
149.301
142.357
135.636
129.139
122.866
116.815
110.984
105.372
99.9761
94.7926
89.8181
85.0487
80.48
76.1077
71.9269
67.9327
64.12
60.4836
57.0181
53.7182
50.5784
47.5934
44.7575
42.0655
39.512
37.0915
34.7989
32.6289
30.5764
28.6364
26.8041
25.0746
23.4433
21.9056
20.4571
19.0936
17.8108
16.6048
15.4717
14.4077
13.4093
12.4729
11.5953
10.7731
10.0035
9.28338
8.60995
7.98053
7.39253
6.84351
6.33111
5.8531
5.40736
4.99185
4.60466
4.24393
3.90795
3.59504
3.30364
3.03226
2.77947
2.54394
2.32438
2.11957
1.92837
1.74967
1.58243
1.42564
1.27837
1.13968
1.00872
0.884641
0.766638
0.653931
0.545765
0.441407
0.340139
0.241259
0.144079
0.0479135
323.812
314.459
305.018
295.527
286.017
276.52
267.063
257.672
248.369
239.175
230.108
221.186
212.422
203.83
195.419
187.201
179.183
171.371
163.772
156.39
149.227
142.287
135.569
129.076
122.805
116.757
110.929
105.32
99.9268
94.7458
89.7738
85.0067
80.4403
76.0701
71.8914
67.8992
64.0884
60.4537
56.99
53.6917
50.5535
47.5699
44.7354
42.0448
39.4925
37.0732
34.7817
32.6128
30.5613
28.6223
26.7909
25.0623
23.4317
21.8948
20.447
19.0842
17.802
16.5966
15.464
14.4006
13.4026
12.4667
11.5895
10.7678
9.99857
9.2788
8.6057
7.97659
7.38888
6.84013
6.32798
5.85021
5.40469
4.98939
4.60238
4.24184
3.90602
3.59327
3.30201
3.03076
2.7781
2.54269
2.32323
2.11853
1.92742
1.74881
1.58165
1.42494
1.27773
1.13912
1.00822
0.884204
0.76626
0.653609
0.545496
0.441189
0.339971
0.241141
0.144008
0.0478899
323.571
314.226
304.793
295.308
285.806
276.316
266.866
257.481
248.185
238.998
229.938
221.022
212.265
203.679
195.275
187.062
179.05
171.245
163.651
156.274
149.117
142.182
135.469
128.98
122.714
116.67
110.847
105.242
99.8528
94.6756
89.7073
84.9437
80.3807
76.0138
71.8382
67.8489
64.0409
60.409
56.9478
53.6519
50.516
47.5346
44.7023
42.0136
39.4632
37.0457
34.7559
32.5886
30.5387
28.6011
26.7711
25.0437
23.4144
21.8786
20.4319
19.07
17.7888
16.5843
15.4526
14.3899
13.3927
12.4575
11.5809
10.7599
9.99117
9.27193
8.59933
7.97068
7.38341
6.83506
6.3233
5.84588
5.40069
4.9857
4.59898
4.2387
3.90313
3.59061
3.29957
3.02852
2.77605
2.5408
2.32151
2.11696
1.92599
1.74751
1.58048
1.42389
1.27679
1.13828
1.00748
0.88355
0.765693
0.653125
0.545093
0.440863
0.33972
0.240962
0.143901
0.0478545
323.251
313.916
304.492
295.017
285.523
276.043
266.602
257.227
247.94
238.762
229.711
220.804
212.055
203.477
195.082
186.878
178.873
171.075
163.49
156.12
148.97
142.041
135.335
128.853
122.593
116.555
110.738
105.138
99.7541
94.5821
89.6187
84.8598
80.3013
75.9387
71.7672
67.7819
63.9776
60.3493
56.8915
53.5989
50.4661
47.4877
44.6582
41.9721
39.4242
37.0092
34.7216
32.5564
30.5085
28.5729
26.7446
25.019
23.3913
21.857
20.4117
19.0512
17.7713
16.5679
15.4373
14.3757
13.3795
12.4452
11.5695
10.7492
9.9813
9.26277
8.59084
7.96281
7.37612
6.82831
6.31705
5.84011
5.39536
4.98077
4.59443
4.23452
3.89928
3.58706
3.29631
3.02553
2.77331
2.53829
2.31922
2.11487
1.92409
1.74579
1.57892
1.42248
1.27553
1.13715
1.00648
0.882678
0.764937
0.65248
0.544555
0.440428
0.339384
0.240724
0.143759
0.0478072
322.852
313.528
304.116
294.652
285.171
275.702
266.273
256.909
247.633
238.467
229.427
220.531
211.793
203.226
194.841
186.647
178.652
170.864
163.288
155.927
148.786
141.866
135.168
128.693
122.442
116.411
110.601
105.008
99.6309
94.4652
89.5079
84.755
80.2021
75.8449
71.6785
67.6981
63.8986
60.2747
56.8212
53.5327
50.4038
47.429
44.603
41.9203
39.3755
36.9634
34.6787
32.5162
30.4708
28.5376
26.7116
24.988
23.3624
21.83
20.3865
19.0276
17.7493
16.5475
15.4182
14.3579
13.363
12.4298
11.5552
10.736
9.96897
9.25133
8.58022
7.95297
7.36701
6.81988
6.30925
5.8329
5.38869
4.97462
4.58876
4.22928
3.89446
3.58263
3.29224
3.02179
2.76988
2.53516
2.31636
2.11226
1.92172
1.74363
1.57697
1.42072
1.27395
1.13575
1.00524
0.881588
0.763993
0.651675
0.543883
0.439884
0.338965
0.240427
0.143582
0.0477482
322.373
313.062
303.664
294.215
284.748
275.293
265.877
256.528
247.266
238.113
229.087
220.204
211.479
202.924
194.551
186.37
178.387
170.611
163.045
155.696
148.565
141.655
134.967
128.503
122.26
116.239
110.437
104.853
99.483
94.3251
89.3751
84.6292
80.0831
75.7324
71.5722
67.5977
63.8038
60.1853
56.7369
53.4533
50.329
47.3586
44.5368
41.8581
39.3171
36.9086
34.6273
32.468
30.4256
28.4952
26.6719
24.951
23.3277
21.7976
20.3562
18.9994
17.723
16.5229
15.3954
14.3366
13.3431
12.4114
11.5381
10.72
9.95418
9.2376
8.5675
7.94118
7.35608
6.80976
6.29989
5.82424
5.3807
4.96724
4.58195
4.22301
3.88868
3.57732
3.28736
3.01731
2.76577
2.5314
2.31292
2.10913
1.91887
1.74105
1.57463
1.41862
1.27206
1.13406
1.00375
0.880281
0.76286
0.650709
0.543076
0.439232
0.338463
0.240071
0.143369
0.0476775
321.815
312.52
303.138
293.705
284.254
274.816
265.417
256.083
246.838
237.7
228.69
219.822
211.112
202.573
194.214
186.047
178.078
170.315
162.763
155.426
148.308
141.41
134.734
128.28
122.048
116.037
110.245
104.671
99.3107
94.1616
89.2202
84.4826
79.9444
75.6011
71.4482
67.4805
63.6932
60.081
56.6386
53.3606
50.2418
47.2766
44.4596
41.7855
39.249
36.8446
34.5673
32.4117
30.3729
28.4458
26.6257
24.9077
23.2873
21.7598
20.321
18.9665
17.6923
16.4943
15.3687
14.3118
13.32
12.3899
11.5181
10.7015
9.93693
9.2216
8.55265
7.92742
7.34334
6.79797
6.28898
5.81415
5.37138
4.95864
4.57402
4.2157
3.88195
3.57112
3.28166
3.01209
2.76098
2.52702
2.30891
2.10547
1.91554
1.73803
1.5719
1.41616
1.26986
1.1321
1.00201
0.878757
0.761539
0.649582
0.542136
0.438471
0.337877
0.239655
0.143121
0.0475949
321.177
311.9
302.537
293.123
283.691
274.271
264.891
255.576
246.348
237.229
228.236
219.386
210.694
202.171
193.829
185.678
177.725
169.977
162.44
155.118
148.014
141.129
134.467
128.026
121.806
115.807
110.027
104.463
99.1138
93.975
89.0434
84.3151
79.7859
75.4512
71.3065
67.3468
63.5669
59.9619
56.5263
53.2548
50.1422
47.1828
44.3715
41.7027
39.1712
36.7716
34.4987
32.3474
30.3127
28.3895
26.5729
24.8584
23.2411
21.7167
20.2807
18.9289
17.6572
16.4616
15.3382
14.2834
13.2936
12.3653
11.4953
10.6802
9.91724
9.20332
8.5357
7.9117
7.32878
6.78449
6.27651
5.80263
5.36073
4.94881
4.56495
4.20734
3.87425
3.56405
3.27516
3.00612
2.75551
2.52201
2.30434
2.1013
1.91175
1.73459
1.56879
1.41335
1.26735
1.12986
1.00002
0.877016
0.76003
0.648295
0.541062
0.437603
0.337207
0.23918
0.142837
0.0475006
320.459
311.204
301.862
292.468
283.057
273.658
264.299
255.005
245.798
236.699
227.727
218.896
210.223
201.72
193.397
185.263
177.328
169.598
162.077
154.772
147.683
140.814
134.166
127.74
121.534
115.548
109.781
104.23
98.8924
93.7651
88.8445
84.1268
79.6077
75.2827
71.1473
67.1964
63.425
59.828
56.4001
53.1359
50.0302
47.0775
44.2724
41.6096
39.0837
36.6895
34.4217
32.2752
30.245
28.3261
26.5136
24.8028
23.1892
21.6682
20.2354
18.8866
17.6178
16.4248
15.304
14.2515
13.2639
12.3377
11.4696
10.6564
9.89509
9.18277
8.51664
7.89404
7.31242
6.76934
6.2625
5.78967
5.34876
4.93776
4.55476
4.19795
3.8656
3.55609
3.26785
2.99941
2.74936
2.51638
2.29919
2.09661
1.90748
1.73072
1.56528
1.4102
1.26452
1.12734
0.997793
0.875058
0.758334
0.646848
0.539854
0.436626
0.336455
0.238647
0.142518
0.0473946
319.663
310.431
301.111
291.742
282.354
272.978
263.642
254.371
245.187
236.111
227.161
218.353
209.701
201.218
192.916
184.803
176.888
169.176
161.675
154.387
147.316
140.464
133.833
127.422
121.232
115.261
109.508
103.971
98.6467
93.5321
88.6237
83.9177
79.4099
75.0957
70.9705
67.0294
63.2674
59.6793
56.2599
53.0039
49.9059
46.9605
44.1624
41.5062
38.9866
36.5983
34.3362
32.195
30.1698
28.2557
26.4477
24.7412
23.1316
21.6143
20.1851
18.8397
17.574
16.384
15.266
14.2161
13.231
12.3071
11.4411
10.6299
9.87051
9.15996
8.49548
7.87443
7.29425
6.75253
6.24694
5.77529
5.33547
4.92549
4.54344
4.18752
3.856
3.54726
3.25973
2.99196
2.74253
2.51013
2.29348
2.0914
1.90274
1.72642
1.5614
1.4067
1.26138
1.12454
0.995315
0.872885
0.75645
0.645242
0.538513
0.435542
0.335619
0.238054
0.142164
0.0472769
318.788
309.581
300.287
290.943
281.581
272.231
262.921
253.675
244.516
235.465
226.539
217.755
209.127
200.668
192.388
184.297
176.403
168.713
161.232
153.964
146.913
140.08
133.466
127.073
120.9
114.946
109.209
103.686
98.3766
93.276
88.3811
83.688
79.1925
74.8901
70.7762
66.8459
63.0942
59.5159
56.1059
52.8588
49.7692
46.8319
44.0415
41.3925
38.8798
36.4981
34.2421
32.1069
30.0872
28.1783
26.3753
24.6735
23.0683
21.5552
20.1299
18.7881
17.5259
16.3392
15.2242
14.1772
13.1947
12.2734
11.4098
10.6008
9.84349
9.13488
8.47223
7.85287
7.27428
6.73404
6.22984
5.75948
5.32087
4.91201
4.53101
4.17606
3.84545
3.53755
3.25081
2.98377
2.73502
2.50326
2.28721
2.08568
1.89753
1.72169
1.55712
1.40285
1.25792
1.12146
0.992591
0.870496
0.75438
0.643476
0.53704
0.43435
0.334701
0.237403
0.141775
0.0471475
317.834
308.654
299.389
290.072
280.738
271.416
262.134
252.916
243.784
234.76
225.861
217.103
208.501
200.067
191.812
183.746
175.876
168.208
160.75
153.504
146.473
139.661
133.067
126.693
120.538
114.602
108.882
103.376
98.0823
92.9969
88.1167
83.4376
78.9555
74.666
70.5644
66.6459
62.9054
59.3378
55.938
52.7006
49.6203
46.6918
43.9097
41.2687
38.7635
36.3889
34.1397
32.0108
29.9972
28.094
26.2964
24.5997
22.9992
21.4907
20.0696
18.7319
17.4734
16.2903
15.1786
14.1348
13.1553
12.2366
11.3756
10.5691
9.81404
9.10755
8.44688
7.82938
7.25252
6.7139
6.21121
5.74225
5.30495
4.89732
4.51745
4.16357
3.83394
3.52696
3.24109
2.97484
2.72684
2.49577
2.28037
2.07944
1.89186
1.71654
1.55247
1.39865
1.25416
1.1181
0.989622
0.867893
0.752124
0.641552
0.535434
0.433051
0.3337
0.236693
0.141351
0.0470065
316.802
307.652
298.416
289.13
279.826
270.535
261.283
252.094
242.993
233.998
225.127
216.398
207.824
199.417
191.189
183.149
175.304
167.662
160.228
153.005
145.997
139.207
132.635
126.282
120.147
114.23
108.528
103.04
97.7637
92.6949
87.8305
83.1666
78.6991
74.4235
70.3352
66.4294
62.7011
59.1451
55.7563
52.5294
49.4592
46.5402
43.7671
41.1347
38.6376
36.2707
34.0288
31.9068
29.8998
28.0028
26.211
24.5198
22.9246
21.4209
20.0045
18.6711
17.4167
16.2374
15.1293
14.0889
13.1126
12.1969
11.3387
10.5348
9.78217
9.07798
8.41945
7.80396
7.22897
6.6921
6.19104
5.72361
5.28773
4.88142
4.50279
4.15005
3.8215
3.51551
3.23056
2.96518
2.71799
2.48767
2.27296
2.07269
1.88572
1.71097
1.54743
1.39411
1.25009
1.11447
0.98641
0.865076
0.749683
0.639469
0.533696
0.431645
0.332617
0.235924
0.140892
0.046854
315.692
306.574
297.37
288.117
278.846
269.587
260.367
251.211
242.141
233.177
224.338
215.64
207.096
198.718
190.519
182.507
174.69
167.074
159.666
152.469
145.486
138.719
132.17
125.839
119.726
113.829
108.148
102.679
97.421
92.37
87.5226
82.8751
78.4232
74.1626
70.0887
66.1966
62.4813
58.9378
55.5609
52.3453
49.2858
46.377
43.6137
40.9905
38.5022
36.1436
33.9095
31.795
29.795
27.9046
26.1191
24.4338
22.8442
21.3458
19.9343
18.6056
17.3557
16.1805
15.0763
14.0395
13.0666
12.1542
11.299
10.4979
9.74789
9.04616
8.38995
7.77661
7.20364
6.66864
6.16934
5.70355
5.2692
4.86431
4.48701
4.1355
3.8081
3.50319
3.21924
2.95479
2.70847
2.47895
2.265
2.06543
1.87911
1.70497
1.542
1.38923
1.24571
1.11057
0.982954
0.862045
0.747056
0.637228
0.531826
0.430133
0.331451
0.235098
0.140399
0.0466898
314.503
305.42
296.251
287.032
277.796
268.572
259.387
250.265
241.23
232.3
223.494
214.828
206.316
197.97
189.802
181.82
174.032
166.446
159.065
151.895
144.938
138.197
131.673
125.365
119.275
113.401
107.741
102.293
97.0543
92.0223
87.1932
82.5631
78.128
73.8835
69.8249
65.9474
62.2461
58.716
55.3518
52.1483
49.1003
46.2025
43.4495
40.8362
38.3573
36.0075
33.7819
31.6753
29.6828
27.7996
26.0208
24.3419
22.7582
21.2655
19.8593
18.5356
17.2903
16.1196
15.0196
13.9867
13.0174
12.1084
11.2564
10.4583
9.7112
9.01212
8.35837
7.74734
7.17653
6.64355
6.14612
5.68208
5.24937
4.846
4.47012
4.11994
3.79377
3.49001
3.20713
2.94367
2.69827
2.46962
2.25647
2.05765
1.87204
1.69856
1.5362
1.384
1.24102
1.10639
0.979255
0.858801
0.744245
0.634831
0.529825
0.428514
0.330204
0.234213
0.139871
0.0465141
313.237
304.19
295.059
285.877
276.678
267.491
258.343
249.258
240.259
231.365
222.594
213.963
205.486
197.174
189.038
181.088
173.332
165.776
158.425
151.283
144.355
137.641
131.143
124.861
118.795
112.944
107.307
101.881
96.6637
91.6519
86.8422
82.2308
77.8135
73.5861
69.5438
65.6819
61.9956
58.4796
55.129
51.9384
48.9027
46.0165
43.2746
40.6718
38.2029
35.8626
33.6459
31.5478
29.5634
27.6877
25.9161
24.2439
22.6666
21.1799
19.7794
18.461
17.2207
16.0547
14.9591
13.9304
12.965
12.0597
11.2111
10.4163
9.67211
8.97585
8.32473
7.71616
7.14764
6.61681
6.12139
5.65922
5.22824
4.8265
4.45213
4.10336
3.77851
3.47597
3.19422
2.93183
2.68742
2.45968
2.24739
2.04937
1.8645
1.69172
1.53002
1.37843
1.23603
1.10194
0.975315
0.855346
0.741251
0.632276
0.527693
0.42679
0.328876
0.233271
0.139308
0.046327
311.894
302.886
293.793
284.651
275.491
266.344
257.235
248.189
239.228
230.373
221.64
213.046
204.604
196.328
188.227
180.312
172.589
165.065
157.745
150.635
143.736
137.05
130.58
124.325
118.286
112.46
106.847
101.444
96.2492
91.2589
86.4698
81.8782
77.4799
73.2705
69.2456
65.4003
61.7297
58.2289
54.8926
51.7157
48.693
45.8192
43.0891
40.4974
38.0391
35.7088
33.5017
31.4126
29.4366
27.569
25.805
24.1399
22.5694
21.0891
19.6946
18.3819
17.1469
15.9858
14.895
13.8707
12.9094
12.008
11.1631
10.3716
9.63064
8.93736
8.28904
7.68308
7.117
6.58844
6.09514
5.63495
5.20583
4.80581
4.43304
4.08577
3.76231
3.46106
3.18053
2.91926
2.67589
2.44914
2.23776
2.04059
1.85651
1.68447
1.52346
1.37252
1.23073
1.09722
0.971134
0.851679
0.738073
0.629566
0.525431
0.424961
0.327466
0.232271
0.138711
0.0461284
310.474
301.507
292.456
283.355
274.237
265.131
256.064
247.059
238.139
229.324
220.631
212.076
203.673
195.434
187.37
179.491
171.803
164.313
157.027
149.949
143.081
136.426
129.986
123.759
117.747
111.948
106.36
100.982
95.8109
90.8433
86.0761
81.5054
77.1271
72.9369
68.9303
65.1025
61.4487
57.9637
54.6426
51.4802
48.4712
45.6105
42.8929
40.313
37.8659
35.5462
33.3491
31.2695
29.3026
27.4434
25.6875
24.03
22.4667
20.993
19.6049
18.2982
17.0688
15.9131
14.8271
13.8075
12.8507
11.9533
11.1122
10.3244
9.5868
8.89667
8.2513
7.6481
7.0846
6.55845
6.06739
5.6093
5.18213
4.78393
4.41286
4.06717
3.74518
3.44531
3.16605
2.90597
2.66371
2.43799
2.22757
2.0313
1.84806
1.6768
1.51653
1.36627
1.22513
1.09222
0.966714
0.847802
0.734714
0.626701
0.523039
0.423026
0.325975
0.231214
0.138079
0.0459184
308.977
300.053
291.046
281.989
272.915
263.853
254.829
245.868
236.991
228.218
219.567
211.053
202.691
194.492
186.467
178.625
170.975
163.521
156.27
149.226
142.391
135.769
129.359
123.163
117.179
111.408
105.848
100.495
95.349
90.4054
85.6611
81.1124
76.7553
72.5853
68.598
64.7887
61.1524
57.6843
54.3792
51.232
48.2376
45.3907
42.6861
40.1187
37.6833
35.3749
33.1884
31.1188
29.1613
27.3111
25.5636
23.9142
22.3584
20.8918
19.5104
18.21
16.9865
15.8364
14.7557
13.7409
12.7887
11.8957
11.0587
10.2746
9.54059
8.85379
8.21153
7.61123
7.05045
6.52683
6.03815
5.58226
5.15715
4.76087
4.39159
4.04757
3.72713
3.4287
3.15079
2.89196
2.65088
2.42624
2.21684
2.02151
1.83915
1.66872
1.50922
1.35969
1.21922
1.08696
0.962055
0.843717
0.731173
0.62368
0.520519
0.420988
0.324404
0.230099
0.137414
0.0456972
307.404
298.526
289.564
280.553
271.526
262.51
253.532
244.616
235.785
227.056
218.449
209.979
201.659
193.502
185.518
177.716
170.104
162.689
155.475
148.466
141.667
135.078
128.7
122.536
116.583
110.841
105.309
99.9838
94.8636
89.9451
85.225
80.6995
76.3645
72.2158
68.2488
64.4588
60.8411
57.3906
54.1024
50.9712
47.992
45.1596
42.4688
39.9145
37.4915
35.1948
33.0194
30.9604
29.0129
27.1721
25.4335
23.7924
22.2445
20.7855
19.4111
18.1173
16.9001
15.7557
14.6806
13.671
12.7236
11.8351
11.0024
10.2223
9.49202
8.80872
8.16973
7.57249
7.01456
6.49361
6.00741
5.55385
5.1309
4.73664
4.36924
4.02696
3.70816
3.41125
3.13475
2.87724
2.63738
2.41389
2.20555
2.01122
1.82979
1.66023
1.50154
1.35277
1.21302
1.08143
0.957159
0.839423
0.727452
0.620506
0.51787
0.418845
0.322754
0.228928
0.136715
0.0454646
305.755
296.925
288.011
279.049
270.069
261.102
252.172
243.304
234.52
225.838
217.278
208.853
200.577
192.464
184.523
176.763
169.192
161.816
154.641
147.67
140.907
134.353
128.01
121.878
115.957
110.247
104.744
99.4475
94.3548
89.4627
84.7679
80.2666
75.9549
71.8284
67.8827
64.1131
60.5148
57.0828
53.8122
50.6978
47.7346
44.9174
42.241
39.7004
37.2904
35.006
32.8423
30.7943
28.8572
27.0264
25.2971
23.6648
22.1252
20.674
19.307
18.0201
16.8094
15.6712
14.6018
13.5977
12.6554
11.7717
10.9434
10.1675
9.44111
8.76148
8.12591
7.53188
6.97694
6.45879
5.9752
5.52406
5.10338
4.71124
4.34581
4.00537
3.68827
3.39296
3.11794
2.86182
2.62324
2.40095
2.19373
2.00044
1.81998
1.65133
1.49349
1.34551
1.20652
1.07563
0.952026
0.834922
0.723551
0.617179
0.515093
0.4166
0.321023
0.227701
0.135982
0.0452208
304.031
295.25
286.387
277.475
268.546
259.629
250.75
241.932
233.197
224.565
216.052
207.675
199.446
191.379
183.482
175.766
168.238
160.903
153.769
146.837
140.112
133.595
127.288
121.191
115.304
109.625
104.153
98.8867
93.8227
88.9582
84.2899
79.814
75.5266
71.4234
67.4999
63.7515
60.1735
56.7609
53.5087
50.4119
47.4654
44.6641
42.0028
39.4765
37.0801
34.8086
32.6571
30.6207
28.6945
26.874
25.1544
23.5314
22.0005
20.5574
19.1981
17.9185
16.7146
15.5829
14.5195
13.521
12.584
11.7053
10.8817
10.1102
9.38788
8.71207
8.08009
7.48941
6.9376
6.42237
5.9415
5.49292
5.07461
4.68467
4.32131
3.98279
3.66748
3.37383
3.10036
2.84568
2.60845
2.38741
2.18136
1.98916
1.80972
1.64202
1.48507
1.33793
1.19971
1.06956
0.946659
0.830215
0.719472
0.6137
0.512189
0.414251
0.319213
0.226417
0.135215
0.0449659
302.232
293.503
284.692
275.833
266.957
258.093
249.266
240.5
231.817
223.236
214.774
206.446
198.266
190.246
182.396
174.726
167.242
159.951
152.859
145.968
139.283
132.805
126.535
120.474
114.621
108.976
103.537
98.3014
93.2674
88.4317
83.791
79.3416
75.0796
71.0007
67.1004
63.3742
59.8174
56.425
53.192
50.1136
47.1845
44.3997
41.7542
39.2429
36.8607
34.6026
32.4638
30.4394
28.5247
26.7149
25.0056
23.3921
21.8703
20.4358
19.0845
17.8124
16.6157
15.4906
14.4336
13.441
12.5095
11.636
10.8173
10.0503
9.33233
8.66052
8.03228
7.44509
6.89655
6.38436
5.90635
5.46041
5.04458
4.65695
4.29574
3.95922
3.64578
3.35386
3.08202
2.82884
2.59302
2.37328
2.16845
1.97739
1.79901
1.6323
1.47628
1.33001
1.19261
1.06323
0.941058
0.825303
0.715215
0.610069
0.509159
0.4118
0.317325
0.225078
0.134415
0.0446998
300.358
291.683
282.927
274.123
265.302
256.492
247.72
239.009
230.38
221.852
213.442
205.166
197.037
189.066
181.265
173.642
166.205
158.959
151.911
145.063
138.419
131.981
125.75
119.727
113.911
108.3
102.895
97.692
92.6891
87.8834
83.2715
78.8497
74.6141
70.5605
66.6844
62.9813
59.4465
56.0751
52.8623
49.8029
46.892
44.1245
41.4953
38.9996
36.6321
34.3881
32.2626
30.2507
28.3479
26.5493
24.8505
23.2471
21.7347
20.3091
18.9662
17.702
16.5127
15.3946
14.3441
13.3577
12.432
11.5639
10.7502
9.98802
9.27447
8.60683
7.98248
7.39893
6.85379
6.34478
5.86973
5.42656
5.01331
4.62808
4.26911
3.93468
3.62318
3.33307
3.06291
2.81131
2.57694
2.35857
2.15501
1.96513
1.78786
1.62218
1.46713
1.32177
1.18522
1.05664
0.935225
0.820187
0.710782
0.606287
0.506003
0.409248
0.315358
0.223683
0.133582
0.0444228
298.41
289.791
281.092
272.345
263.581
254.829
246.114
237.459
228.886
220.413
212.058
203.835
195.759
187.84
180.09
172.516
165.127
157.929
150.926
144.122
137.522
131.125
124.935
118.95
113.172
107.598
102.228
97.0584
92.088
87.3135
82.7315
78.3383
74.1302
70.1028
66.2519
62.5729
59.061
55.7115
52.5194
49.4799
46.5878
43.8383
41.2262
38.7466
36.3946
34.1651
32.0533
30.0545
28.164
26.3771
24.6894
23.0963
21.5937
20.1774
18.8432
17.5872
16.4056
15.2948
14.2511
13.271
12.3514
11.4889
10.6805
9.92325
9.21433
8.55102
7.93072
7.35095
6.80935
6.30364
5.83167
5.39137
4.9808
4.59807
4.24142
3.90916
3.59968
3.31146
3.04305
2.79308
2.56023
2.34328
2.14104
1.95239
1.77627
1.61167
1.45762
1.3132
1.17754
1.04979
0.929161
0.814869
0.706174
0.602356
0.502722
0.406594
0.313313
0.222232
0.132716
0.0441348
296.388
287.828
279.187
270.5
261.796
253.103
244.446
235.85
227.335
218.92
210.621
202.454
194.433
186.568
178.87
171.348
164.008
156.859
149.903
143.146
136.59
130.237
124.088
118.145
112.405
106.869
101.535
96.4009
91.4642
86.722
82.171
77.8076
73.628
69.6279
65.8031
62.149
58.6609
55.334
52.1636
49.1447
46.2722
43.5413
40.9469
38.4841
36.148
33.9336
31.8362
29.8509
27.9732
26.1984
24.5221
22.9399
21.4474
20.0407
18.7155
17.4681
16.2945
15.1912
14.1545
13.1811
12.2677
11.411
10.6081
9.85602
9.15191
8.49309
7.877
7.30116
6.76322
6.26094
5.79217
5.35485
4.94706
4.56693
4.21269
3.88268
3.5753
3.28903
3.02244
2.77416
2.54289
2.32741
2.12654
1.93916
1.76424
1.60075
1.44774
1.3043
1.16956
1.04268
0.922868
0.80935
0.701391
0.598277
0.499317
0.40384
0.311191
0.220727
0.131817
0.0438358
294.294
285.794
277.214
268.588
259.945
251.314
242.719
234.184
225.729
217.373
209.133
201.023
193.058
185.249
177.606
170.137
162.849
155.75
148.844
142.134
135.625
129.317
123.211
117.31
111.611
106.114
100.817
95.7195
90.8177
86.1091
81.5902
77.2577
73.1076
69.1358
65.338
61.7097
58.2463
54.943
51.795
48.7973
45.9452
43.2336
40.6576
38.2122
35.8925
33.6938
31.6112
29.64
27.7755
26.0133
24.3488
22.7778
21.2959
19.899
18.5832
17.3446
16.1793
15.0838
14.0545
13.088
12.181
11.3304
10.5332
9.78637
9.08723
8.43307
7.82133
7.24956
6.71543
6.2167
5.75123
5.31701
4.9121
4.53465
4.18292
3.85524
3.55003
3.26579
3.00108
2.75455
2.52492
2.31096
2.11151
1.92546
1.75177
1.58944
1.43751
1.29509
1.1613
1.03532
0.916347
0.803631
0.696435
0.594049
0.495789
0.400987
0.308992
0.219167
0.130885
0.0435261
292.126
283.689
275.173
266.61
258.031
249.463
240.931
232.459
224.066
215.772
207.592
199.543
191.637
183.885
176.298
168.884
161.65
154.603
147.748
141.088
134.626
128.364
122.304
116.446
110.789
105.332
100.075
95.0146
90.1489
85.4749
80.9894
76.6888
72.5692
68.6267
64.8568
61.2553
57.8173
54.5384
51.4135
48.438
45.6068
42.9152
40.3581
37.9308
35.6282
33.4457
31.3784
29.4217
27.571
25.8217
24.1695
22.61
21.139
19.7525
18.4464
17.2169
16.0602
14.9727
13.951
12.9916
12.0913
11.247
10.4556
9.71431
9.02031
8.37097
7.76373
7.19618
6.66598
6.17092
5.70888
5.27786
4.87593
4.50126
4.15212
3.82686
3.52389
3.24174
2.97898
2.73427
2.50633
2.29394
2.09596
1.91128
1.73887
1.57774
1.42693
1.28555
1.15275
1.02769
0.9096
0.797714
0.691307
0.589675
0.492138
0.398034
0.306717
0.217554
0.129922
0.0432056
289.887
281.514
273.063
264.566
256.053
247.551
239.084
230.677
222.348
214.118
206.001
198.013
190.168
182.475
174.946
167.589
160.411
153.418
146.615
140.006
133.594
127.38
121.366
115.553
109.939
104.525
99.3078
94.2862
89.4578
84.8197
80.3685
76.1009
72.0129
68.1006
64.3597
60.7857
57.3741
54.1203
51.0194
48.0667
45.2572
42.5862
40.0488
37.64
35.3551
33.1893
31.1379
29.1962
27.3596
25.6238
23.9842
22.4367
20.977
19.6011
18.305
17.0849
15.9371
14.858
13.844
12.892
11.9986
11.1608
10.3755
9.63984
8.95117
8.3068
7.70422
7.14102
6.61488
6.12361
5.66512
5.2374
4.83855
4.46676
4.12029
3.79752
3.49688
3.21689
2.95615
2.71331
2.48712
2.27636
2.0799
1.89663
1.72554
1.56564
1.41599
1.2757
1.14391
1.01982
0.902628
0.7916
0.686008
0.585156
0.488366
0.394984
0.304366
0.215886
0.128926
0.0428745
287.576
279.27
270.886
262.457
254.012
245.577
237.178
228.838
220.576
212.411
204.359
196.435
188.652
181.021
173.551
166.253
159.132
152.195
145.446
138.89
132.529
126.365
120.399
114.632
109.063
103.692
98.5161
93.5346
88.7447
84.1435
79.7278
75.4942
71.4388
67.5577
63.8466
60.3011
56.9167
53.6888
50.6127
47.6835
44.8965
42.2467
39.7295
37.3399
35.0732
32.9247
30.8896
28.9634
27.1415
25.4195
23.793
22.2578
20.8098
19.4448
18.1591
16.9487
15.81
14.7395
13.7337
12.7892
11.903
11.0718
10.2927
9.563
8.87982
8.24059
7.64281
7.08409
6.56215
6.0748
5.61996
5.19566
4.79998
4.43115
4.08745
3.76725
3.46901
3.19125
2.93258
2.69169
2.46729
2.25822
2.06332
1.88152
1.71179
1.55316
1.4047
1.26553
1.13479
1.01169
0.895433
0.78529
0.68054
0.580492
0.484474
0.391835
0.30194
0.214166
0.127898
0.0425327
285.194
276.957
268.643
260.283
251.908
243.543
235.214
226.943
218.749
210.651
202.666
194.808
187.089
179.521
172.114
164.876
157.814
150.934
144.241
137.739
131.431
125.318
119.402
113.682
108.16
102.833
97.7001
92.7599
88.0096
83.4466
79.0675
74.8689
70.8471
66.9982
63.3178
59.8017
56.4453
53.2441
50.1935
47.2885
44.5246
41.8968
39.4004
37.0307
34.7827
32.652
30.6338
28.7235
26.9167
25.209
23.596
22.0735
20.6374
19.2838
18.0087
16.8083
15.6791
14.6174
13.6199
12.6833
11.8044
10.9801
10.2075
9.48379
8.80627
8.17234
7.57951
7.02542
6.5078
6.02449
5.57342
5.15262
4.76023
4.39445
4.0536
3.73605
3.44028
3.16482
2.9083
2.66939
2.44686
2.23951
2.04623
1.86593
1.69761
1.5403
1.39307
1.25505
1.1254
1.00331
0.888018
0.778787
0.674905
0.575684
0.480462
0.38859
0.29944
0.212392
0.126839
0.0421805
282.742
274.576
266.333
258.045
249.742
241.449
233.191
224.991
216.868
208.84
200.923
193.133
185.48
177.978
170.634
163.458
156.457
149.636
143.001
136.555
130.301
124.241
118.375
112.705
107.23
101.948
96.86
91.9623
87.2529
82.729
78.3876
74.2251
70.238
66.4221
62.7733
59.2875
55.96
52.7863
49.7619
46.8819
44.1417
41.5366
39.0617
36.7123
34.4837
32.3712
30.3704
28.4765
26.6853
24.9922
23.3931
21.8837
20.46
19.118
17.8538
16.6638
15.5443
14.4918
13.5028
12.5743
11.7029
10.8857
10.1197
9.40225
8.73055
8.10207
7.51434
6.96502
6.45185
5.97269
5.5255
5.10832
4.7193
4.35667
4.01875
3.70393
3.4107
3.13761
2.88329
2.64644
2.42582
2.22026
2.02864
1.84989
1.68302
1.52706
1.38109
1.24426
1.11572
0.994682
0.880383
0.772092
0.669102
0.570735
0.476331
0.38525
0.296865
0.210566
0.125749
0.0418179
280.22
272.126
263.957
255.743
247.514
239.295
231.111
222.984
214.934
206.977
199.131
191.41
183.826
176.39
169.112
162
155.061
148.302
141.726
135.337
129.139
123.132
117.319
111.7
106.273
101.039
95.996
91.142
86.4746
81.9911
77.6884
73.5631
69.6114
65.8296
62.2134
58.7586
55.4608
52.3155
49.318
46.4638
43.748
41.1661
38.7132
36.3848
34.1761
32.0825
30.0995
28.2225
26.4473
24.7693
23.1844
21.6885
20.2775
18.9474
17.6946
16.5152
15.4056
14.3625
13.3824
12.4621
11.5985
10.7886
10.0295
9.31839
8.65268
8.0298
7.44732
6.90289
6.3943
5.91942
5.47622
5.06276
4.67721
4.31781
3.9829
3.67089
3.38028
3.10963
2.85758
2.62284
2.40419
2.20046
2.01054
1.83339
1.66801
1.51344
1.36878
1.23316
1.10577
0.985811
0.872532
0.765206
0.663135
0.565645
0.472083
0.381814
0.294218
0.208688
0.124627
0.0414449
277.629
269.61
261.516
253.379
245.225
237.083
228.974
220.922
212.946
205.063
197.29
189.64
182.126
174.759
167.548
160.502
153.628
146.93
140.415
134.086
127.945
121.994
116.234
110.667
105.29
100.105
95.1084
90.2992
85.675
81.2329
76.97
72.8828
68.9678
65.2209
61.6381
58.2153
54.948
51.8317
48.862
46.0341
43.3435
40.7854
38.3553
36.0483
33.8601
31.7858
29.8212
27.9616
26.2027
24.5403
22.97
21.4879
20.09
18.7722
17.531
16.3625
15.2632
14.2297
13.2587
12.3469
11.4913
10.6888
9.93673
9.23223
8.57268
7.95556
7.37846
6.83907
6.33518
5.86469
5.42558
5.01595
4.63396
4.27789
3.94608
3.63695
3.34902
3.08087
2.83116
2.59859
2.38196
2.18011
1.99195
1.81644
1.65259
1.49944
1.35612
1.22176
1.09555
0.976697
0.864464
0.758131
0.657004
0.560415
0.467718
0.378284
0.291498
0.206759
0.123475
0.0410617
274.969
267.027
259.011
250.951
242.876
234.811
226.781
218.806
210.906
203.099
195.4
187.823
180.381
173.085
165.943
158.965
152.156
145.523
139.07
132.801
126.719
120.825
115.121
109.606
104.282
99.1458
94.1972
89.4342
84.8542
80.4547
76.2327
72.1846
68.307
64.5961
61.0476
57.6576
54.4216
51.3352
48.3939
45.5931
42.9283
40.3947
37.9878
35.703
33.5357
31.4813
29.5355
27.6937
25.9517
24.3052
22.75
21.2821
19.8975
18.5924
17.363
16.2057
15.117
14.0934
13.1316
12.2286
11.3812
10.5864
9.84154
9.14379
8.49055
7.87935
7.30778
6.77355
6.27449
5.80851
5.37361
4.9679
4.58957
4.23691
3.90828
3.60211
3.31694
3.05136
2.80404
2.5737
2.35914
2.15923
1.97287
1.79904
1.63676
1.48508
1.34313
1.21006
1.08505
0.967341
0.856184
0.750869
0.65071
0.555047
0.463238
0.37466
0.288705
0.204778
0.122292
0.0406684
272.241
264.378
256.442
248.462
240.467
232.482
224.531
216.635
208.814
201.084
193.462
185.96
178.592
171.368
164.297
157.388
150.647
144.079
137.69
131.484
125.462
119.627
113.979
108.519
103.247
98.1624
93.2629
88.547
84.0125
79.6567
75.4765
71.4686
67.6295
63.9553
60.4421
57.0857
53.8818
50.826
47.9139
45.1409
42.5024