/*--------------------------------*- C++ -*----------------------------------*\
| =========                 |                                                 |
| \\      /  F ield         | OpenFOAM: The Open Source CFD Toolbox           |
|  \\    /   O peration     | Version:  2406                                  |
|   \\  /    A nd           | Website:  www.openfoam.com                      |
|    \\/     M anipulation  |                                                 |
\*---------------------------------------------------------------------------*/
FoamFile
{
    version     2.0;
    format      ascii;
    arch        "LSB;label=32;scalar=64";
    class       volScalarField;
    location    "80";
    object      T;
}
// * * * * * * * * * * * * * * * * * * * * * * * * * * * * * * * * * * * * * //

dimensions      [0 0 0 1 0 0 0];

internalField   nonuniform List<scalar> 
20000
(
300.81
300.787
300.763
300.739
300.716
300.692
300.668
300.645
300.621
300.598
300.576
300.553
300.531
300.51
300.489
300.468
300.448
300.429
300.41
300.391
300.373
300.356
300.339
300.323
300.307
300.292
300.278
300.264
300.25
300.237
300.225
300.213
300.201
300.19
300.18
300.17
300.16
300.151
300.143
300.134
300.126
300.119
300.112
300.105
300.099
300.093
300.087
300.082
300.076
300.072
300.067
300.063
300.059
300.055
300.051
300.048
300.045
300.042
300.039
300.036
300.034
300.031
300.029
300.027
300.025
300.023
300.022
300.02
300.018
300.017
300.016
300.015
300.014
300.012
300.012
300.011
300.01
300.009
300.008
300.008
300.007
300.006
300.006
300.005
300.005
300.004
300.004
300.004
300.003
300.003
300.003
300.002
300.002
300.002
300.001
300.001
300.001
300.001
300
300
302.43
302.36
302.289
302.218
302.147
302.075
302.004
301.934
301.864
301.795
301.727
301.66
301.594
301.53
301.467
301.405
301.345
301.286
301.229
301.174
301.12
301.068
301.018
300.969
300.922
300.876
300.833
300.79
300.75
300.711
300.674
300.638
300.604
300.571
300.54
300.51
300.481
300.454
300.428
300.403
300.379
300.357
300.336
300.316
300.296
300.278
300.261
300.245
300.229
300.215
300.201
300.188
300.176
300.164
300.153
300.143
300.134
300.125
300.116
300.108
300.101
300.094
300.087
300.081
300.075
300.07
300.065
300.06
300.055
300.051
300.047
300.044
300.041
300.037
300.035
300.032
300.029
300.027
300.025
300.023
300.021
300.019
300.017
300.016
300.014
300.013
300.012
300.011
300.01
300.009
300.008
300.007
300.006
300.005
300.004
300.003
300.003
300.002
300.001
300
304.05
303.933
303.815
303.696
303.577
303.458
303.34
303.223
303.106
302.991
302.878
302.766
302.657
302.549
302.444
302.341
302.241
302.143
302.048
301.956
301.866
301.78
301.696
301.614
301.536
301.46
301.387
301.317
301.25
301.185
301.123
301.063
301.006
300.951
300.899
300.849
300.802
300.756
300.713
300.672
300.632
300.595
300.56
300.526
300.494
300.464
300.435
300.408
300.382
300.358
300.335
300.313
300.293
300.274
300.256
300.239
300.223
300.208
300.193
300.18
300.168
300.156
300.145
300.135
300.125
300.116
300.108
300.1
300.092
300.086
300.079
300.073
300.068
300.062
300.058
300.053
300.049
300.045
300.041
300.038
300.035
300.032
300.029
300.026
300.024
300.022
300.02
300.018
300.016
300.014
300.013
300.011
300.01
300.008
300.007
300.006
300.004
300.003
300.002
300.001
305.668
305.505
305.339
305.173
305.007
304.841
304.675
304.511
304.348
304.187
304.028
303.872
303.719
303.568
303.421
303.277
303.137
303
302.867
302.738
302.612
302.491
302.373
302.26
302.15
302.044
301.942
301.844
301.749
301.659
301.572
301.488
301.408
301.332
301.258
301.189
301.122
301.058
300.998
300.94
300.885
300.833
300.783
300.736
300.691
300.649
300.609
300.571
300.535
300.501
300.469
300.439
300.41
300.383
300.358
300.334
300.312
300.291
300.271
300.252
300.235
300.218
300.203
300.188
300.175
300.162
300.151
300.14
300.129
300.12
300.111
300.102
300.095
300.087
300.081
300.074
300.068
300.063
300.058
300.053
300.049
300.045
300.041
300.037
300.034
300.031
300.028
300.025
300.022
300.02
300.018
300.015
300.013
300.011
300.01
300.008
300.006
300.004
300.003
300.001
307.286
307.075
306.863
306.649
306.435
306.222
306.009
305.798
305.588
305.381
305.177
304.977
304.779
304.586
304.397
304.212
304.032
303.856
303.685
303.519
303.358
303.201
303.05
302.904
302.763
302.627
302.496
302.37
302.248
302.132
302.02
301.913
301.81
301.712
301.618
301.528
301.442
301.36
301.282
301.208
301.137
301.07
301.007
300.946
300.889
300.834
300.783
300.734
300.688
300.644
300.603
300.564
300.527
300.493
300.46
300.429
300.401
300.373
300.348
300.324
300.302
300.28
300.261
300.242
300.225
300.209
300.194
300.179
300.166
300.154
300.142
300.132
300.122
300.112
300.104
300.095
300.088
300.081
300.074
300.068
300.063
300.057
300.052
300.048
300.043
300.039
300.036
300.032
300.029
300.026
300.023
300.02
300.017
300.015
300.012
300.01
300.008
300.005
300.003
300.001
308.901
308.644
308.384
308.123
307.862
307.601
307.341
307.083
306.827
306.574
306.325
306.08
305.839
305.603
305.372
305.146
304.925
304.711
304.502
304.299
304.102
303.911
303.727
303.548
303.376
303.209
303.049
302.895
302.747
302.604
302.468
302.337
302.211
302.091
301.976
301.866
301.762
301.662
301.567
301.476
301.39
301.308
301.23
301.156
301.086
301.019
300.956
300.896
300.84
300.787
300.736
300.689
300.644
300.602
300.562
300.525
300.489
300.456
300.425
300.396
300.368
300.343
300.319
300.296
300.275
300.255
300.237
300.219
300.203
300.188
300.174
300.161
300.149
300.137
300.127
300.117
300.107
300.099
300.091
300.083
300.076
300.07
300.064
300.058
300.053
300.048
300.043
300.039
300.035
300.031
300.028
300.024
300.021
300.018
300.015
300.012
300.009
300.007
300.004
300.001
310.514
310.21
309.904
309.596
309.287
308.979
308.672
308.367
308.065
307.766
307.472
307.182
306.897
306.618
306.345
306.078
305.818
305.564
305.318
305.078
304.845
304.62
304.402
304.191
303.987
303.791
303.602
303.42
303.245
303.076
302.915
302.76
302.612
302.47
302.334
302.205
302.081
301.963
301.85
301.743
301.641
301.545
301.453
301.365
301.282
301.204
301.129
301.059
300.992
300.929
300.87
300.814
300.761
300.711
300.664
300.62
300.578
300.539
300.502
300.468
300.435
300.405
300.376
300.35
300.325
300.301
300.279
300.259
300.24
300.222
300.205
300.19
300.175
300.162
300.149
300.138
300.127
300.117
300.107
300.098
300.09
300.083
300.075
300.069
300.063
300.057
300.051
300.046
300.041
300.037
300.033
300.029
300.025
300.021
300.018
300.014
300.011
300.008
300.005
300.002
312.125
311.775
311.421
311.066
310.71
310.354
310
309.648
309.3
308.956
308.616
308.282
307.954
307.632
307.317
307.01
306.709
306.417
306.132
305.856
305.588
305.328
305.076
304.833
304.598
304.372
304.154
303.944
303.742
303.548
303.361
303.183
303.012
302.848
302.692
302.542
302.4
302.264
302.134
302.01
301.893
301.781
301.675
301.574
301.479
301.388
301.302
301.221
301.144
301.072
301.003
300.938
300.877
300.82
300.766
300.715
300.667
300.621
300.579
300.539
300.502
300.467
300.434
300.403
300.374
300.347
300.322
300.299
300.277
300.256
300.237
300.219
300.202
300.187
300.172
300.159
300.146
300.135
300.124
300.113
300.104
300.095
300.087
300.079
300.072
300.065
300.059
300.053
300.048
300.043
300.038
300.033
300.029
300.024
300.02
300.017
300.013
300.009
300.005
300.002
313.732
313.336
312.935
312.533
312.13
311.727
311.326
310.927
310.533
310.143
309.758
309.38
309.008
308.644
308.287
307.939
307.599
307.268
306.945
306.632
306.328
306.034
305.749
305.474
305.208
304.951
304.704
304.466
304.238
304.018
303.807
303.605
303.411
303.226
303.049
302.879
302.718
302.564
302.417
302.277
302.144
302.017
301.897
301.783
301.675
301.572
301.475
301.383
301.296
301.214
301.136
301.063
300.994
300.929
300.867
300.809
300.755
300.704
300.656
300.611
300.568
300.529
300.491
300.457
300.424
300.393
300.365
300.338
300.313
300.29
300.268
300.248
300.229
300.212
300.195
300.18
300.166
300.152
300.14
300.129
300.118
300.108
300.099
300.09
300.082
300.074
300.067
300.06
300.054
300.048
300.043
300.037
300.032
300.028
300.023
300.019
300.014
300.01
300.006
300.002
315.336
314.894
314.446
313.997
313.546
313.097
312.649
312.204
311.763
311.328
310.898
310.476
310.061
309.654
309.256
308.866
308.487
308.117
307.757
307.407
307.068
306.739
306.421
306.113
305.816
305.53
305.254
304.988
304.733
304.487
304.252
304.026
303.81
303.603
303.405
303.216
303.035
302.863
302.699
302.543
302.394
302.253
302.119
301.991
301.87
301.756
301.647
301.545
301.447
301.356
301.269
301.187
301.11
301.037
300.968
300.904
300.843
300.786
300.732
300.682
300.635
300.59
300.549
300.51
300.474
300.439
300.408
300.378
300.35
300.324
300.3
300.277
300.256
300.236
300.218
300.201
300.185
300.17
300.156
300.144
300.132
300.12
300.11
300.1
300.091
300.083
300.075
300.067
300.061
300.054
300.048
300.042
300.036
300.031
300.026
300.021
300.016
300.011
300.007
300.002
316.937
316.448
315.954
315.457
314.96
314.463
313.969
313.477
312.991
312.51
312.036
311.569
311.111
310.661
310.221
309.792
309.372
308.964
308.566
308.18
307.805
307.442
307.091
306.751
306.423
306.107
305.802
305.509
305.227
304.956
304.696
304.446
304.207
303.979
303.76
303.551
303.352
303.162
302.981
302.808
302.644
302.488
302.34
302.199
302.066
301.939
301.819
301.706
301.599
301.497
301.401
301.311
301.226
301.145
301.069
300.998
300.931
300.868
300.809
300.753
300.701
300.652
300.606
300.563
300.523
300.485
300.45
300.417
300.386
300.358
300.331
300.306
300.283
300.261
300.241
300.222
300.204
300.188
300.173
300.159
300.145
300.133
300.122
300.111
300.101
300.091
300.083
300.075
300.067
300.06
300.053
300.046
300.04
300.034
300.029
300.023
300.018
300.013
300.008
300.003
318.533
317.998
317.458
316.914
316.37
315.826
315.285
314.748
314.215
313.689
313.17
312.659
312.158
311.666
311.185
310.714
310.255
309.808
309.373
308.951
308.541
308.144
307.759
307.388
307.029
306.682
306.349
306.028
305.719
305.423
305.138
304.865
304.604
304.354
304.115
303.886
303.668
303.46
303.262
303.073
302.893
302.723
302.56
302.406
302.26
302.122
301.991
301.867
301.749
301.638
301.533
301.434
301.341
301.253
301.17
301.092
301.019
300.95
300.885
300.824
300.767
300.714
300.663
300.616
300.572
300.531
300.493
300.457
300.423
300.391
300.362
300.335
300.309
300.286
300.263
300.243
300.224
300.206
300.189
300.173
300.159
300.146
300.133
300.121
300.11
300.1
300.091
300.082
300.073
300.065
300.058
300.051
300.044
300.037
300.031
300.025
300.019
300.014
300.008
300.003
320.125
319.543
318.957
318.367
317.776
317.186
316.598
316.014
315.436
314.865
314.301
313.747
313.202
312.668
312.145
311.634
311.136
310.651
310.178
309.72
309.274
308.843
308.426
308.022
307.632
307.256
306.894
306.546
306.21
305.888
305.579
305.283
304.999
304.728
304.468
304.22
303.983
303.757
303.542
303.337
303.142
302.956
302.78
302.613
302.454
302.304
302.162
302.027
301.899
301.779
301.665
301.558
301.456
301.361
301.271
301.186
301.106
301.031
300.961
300.895
300.833
300.775
300.72
300.669
300.621
300.577
300.535
300.496
300.459
300.425
300.393
300.364
300.336
300.31
300.286
300.264
300.243
300.223
300.205
300.188
300.173
300.158
300.144
300.132
300.12
300.109
300.098
300.089
300.079
300.071
300.063
300.055
300.048
300.041
300.034
300.027
300.021
300.015
300.009
300.003
321.711
321.084
320.451
319.815
319.177
318.541
317.907
317.277
316.653
316.037
315.429
314.83
314.243
313.667
313.103
312.552
312.014
311.49
310.981
310.486
310.006
309.54
309.09
308.654
308.234
307.829
307.438
307.062
306.7
306.353
306.019
305.7
305.393
305.1
304.82
304.553
304.297
304.053
303.821
303.6
303.39
303.19
302.999
302.819
302.648
302.486
302.332
302.187
302.049
301.919
301.796
301.68
301.571
301.468
301.371
301.28
301.194
301.113
301.037
300.966
300.899
300.836
300.777
300.722
300.67
300.622
300.577
300.535
300.495
300.459
300.424
300.392
300.362
300.335
300.309
300.284
300.262
300.241
300.221
300.203
300.186
300.17
300.156
300.142
300.129
300.117
300.106
300.096
300.086
300.076
300.068
300.059
300.051
300.044
300.037
300.03
300.023
300.016
300.01
300.003
323.293
322.62
321.941
321.258
320.574
319.891
319.211
318.535
317.866
317.205
316.552
315.911
315.28
314.662
314.057
313.466
312.889
312.327
311.781
311.25
310.734
310.235
309.752
309.285
308.834
308.399
307.98
307.576
307.188
306.815
306.458
306.115
305.786
305.472
305.171
304.884
304.61
304.349
304.099
303.862
303.636
303.422
303.218
303.024
302.841
302.667
302.502
302.346
302.198
302.059
301.927
301.803
301.686
301.575
301.471
301.373
301.281
301.194
301.112
301.036
300.964
300.897
300.834
300.775
300.719
300.667
300.619
300.574
300.532
300.492
300.455
300.421
300.389
300.359
300.331
300.305
300.281
300.258
300.238
300.218
300.2
300.183
300.167
300.152
300.139
300.126
300.114
300.103
300.092
300.082
300.073
300.064
300.055
300.047
300.039
300.032
300.024
300.017
300.01
300.003
324.868
324.15
323.425
322.696
321.966
321.236
320.51
319.789
319.074
318.368
317.672
316.987
316.314
315.654
315.008
314.377
313.761
313.161
312.578
312.011
311.461
310.927
310.412
309.913
309.431
308.967
308.519
308.088
307.674
307.276
306.895
306.528
306.178
305.842
305.521
305.215
304.922
304.643
304.377
304.123
303.882
303.653
303.436
303.229
303.033
302.847
302.671
302.505
302.347
302.198
302.058
301.925
301.8
301.681
301.57
301.466
301.367
301.275
301.188
301.106
301.029
300.957
300.89
300.827
300.768
300.713
300.661
300.613
300.567
300.525
300.486
300.449
300.415
300.383
300.353
300.326
300.3
300.276
300.254
300.233
300.213
300.195
300.178
300.163
300.148
300.134
300.121
300.109
300.098
300.087
300.077
300.068
300.059
300.05
300.042
300.034
300.026
300.019
300.011
300.004
326.438
325.674
324.903
324.129
323.352
322.577
321.805
321.038
320.278
319.528
318.787
318.059
317.343
316.642
315.955
315.284
314.63
313.992
313.371
312.769
312.184
311.617
311.069
310.538
310.027
309.533
309.057
308.599
308.159
307.736
307.33
306.94
306.568
306.211
305.87
305.544
305.233
304.936
304.653
304.384
304.127
303.884
303.652
303.433
303.224
303.027
302.84
302.663
302.495
302.337
302.187
302.046
301.913
301.788
301.669
301.558
301.453
301.355
301.263
301.176
301.094
301.018
300.946
300.879
300.816
300.758
300.703
300.651
300.603
300.558
300.517
300.478
300.441
300.407
300.376
300.346
300.319
300.293
300.27
300.247
300.227
300.208
300.19
300.173
300.157
300.143
300.129
300.116
300.104
300.093
300.082
300.072
300.063
300.053
300.045
300.036
300.028
300.02
300.012
300.004
328.001
327.192
326.376
325.555
324.733
323.911
323.094
322.282
321.477
320.682
319.898
319.126
318.369
317.626
316.898
316.188
315.494
314.819
314.162
313.523
312.904
312.304
311.723
311.161
310.619
310.096
309.592
309.107
308.641
308.193
307.763
307.351
306.956
306.578
306.217
305.871
305.542
305.228
304.928
304.643
304.371
304.113
303.868
303.636
303.415
303.206
303.008
302.82
302.643
302.475
302.317
302.167
302.026
301.893
301.768
301.65
301.539
301.435
301.337
301.245
301.159
301.078
301.002
300.931
300.865
300.802
300.744
300.69
300.639
300.591
300.547
300.506
300.467
300.431
300.398
300.367
300.338
300.311
300.286
300.262
300.24
300.22
300.201
300.183
300.167
300.151
300.137
300.123
300.11
300.099
300.087
300.076
300.066
300.057
300.047
300.038
300.029
300.021
300.012
300.004
329.557
328.703
327.841
326.975
326.107
325.24
324.377
323.52
322.671
321.831
321.004
320.189
319.389
318.605
317.837
317.087
316.355
315.642
314.949
314.275
313.621
312.988
312.374
311.782
311.209
310.657
310.125
309.613
309.121
308.648
308.194
307.759
307.342
306.944
306.562
306.198
305.85
305.518
305.202
304.901
304.614
304.342
304.083
303.838
303.605
303.384
303.175
302.977
302.79
302.613
302.445
302.288
302.139
301.999
301.866
301.742
301.625
301.515
301.412
301.314
301.223
301.138
301.058
300.983
300.913
300.847
300.786
300.728
300.674
300.624
300.578
300.534
300.493
300.455
300.42
300.387
300.357
300.328
300.301
300.277
300.254
300.232
300.212
300.193
300.176
300.16
300.144
300.13
300.117
300.104
300.092
300.081
300.07
300.06
300.05
300.04
300.031
300.022
300.013
300.004
331.105
330.207
329.3
328.388
327.475
326.563
325.654
324.752
323.858
322.975
322.104
321.247
320.405
319.58
318.772
317.983
317.212
316.462
315.732
315.023
314.335
313.668
313.023
312.399
311.797
311.216
310.656
310.117
309.599
309.101
308.624
308.166
307.727
307.307
306.906
306.522
306.156
305.807
305.474
305.158
304.856
304.57
304.297
304.039
303.794
303.561
303.341
303.133
302.936
302.749
302.574
302.407
302.251
302.103
301.964
301.833
301.71
301.594
301.485
301.383
301.287
301.198
301.113
301.034
300.96
300.891
300.827
300.766
300.71
300.657
300.608
300.562
300.519
300.479
300.442
300.407
300.375
300.345
300.317
300.291
300.267
300.244
300.223
300.204
300.185
300.168
300.152
300.137
300.123
300.109
300.097
300.085
300.074
300.063
300.052
300.042
300.033
300.023
300.014
300.005
332.647
331.704
330.752
329.795
328.836
327.879
326.925
325.978
325.04
324.114
323.199
322.3
321.416
320.55
319.702
318.874
318.065
317.278
316.511
315.767
315.045
314.345
313.668
313.013
312.381
311.771
311.184
310.618
310.075
309.552
309.051
308.57
308.11
307.669
307.248
306.846
306.461
306.095
305.746
305.413
305.097
304.796
304.51
304.239
303.982
303.738
303.507
303.288
303.081
302.886
302.701
302.527
302.362
302.207
302.061
301.924
301.795
301.673
301.559
301.452
301.351
301.257
301.168
301.086
301.008
300.935
300.868
300.804
300.745
300.69
300.638
300.59
300.545
300.503
300.464
300.428
300.394
300.362
300.333
300.306
300.28
300.256
300.234
300.214
300.194
300.176
300.159
300.144
300.129
300.115
300.102
300.089
300.077
300.066
300.055
300.044
300.034
300.024
300.015
300.005
334.18
333.192
332.196
331.194
330.19
329.188
328.19
327.198
326.216
325.246
324.289
323.347
322.422
321.515
320.627
319.76
318.913
318.089
317.287
316.508
315.752
315.019
314.31
313.624
312.963
312.324
311.709
311.117
310.548
310.001
309.476
308.973
308.491
308.029
307.588
307.167
306.765
306.381
306.016
305.667
305.336
305.021
304.722
304.438
304.169
303.913
303.671
303.442
303.226
303.021
302.828
302.645
302.473
302.311
302.158
302.014
301.879
301.752
301.632
301.52
301.415
301.316
301.223
301.137
301.055
300.979
300.908
300.842
300.78
300.722
300.668
300.618
300.57
300.527
300.486
300.448
300.412
300.379
300.349
300.32
300.293
300.268
300.245
300.224
300.203
300.185
300.167
300.15
300.135
300.12
300.106
300.093
300.081
300.069
300.058
300.047
300.036
300.025
300.015
300.005
335.704
334.673
333.632
332.585
331.537
330.49
329.447
328.411
327.386
326.372
325.372
324.388
323.422
322.475
321.547
320.641
319.757
318.896
318.058
317.244
316.454
315.689
314.948
314.232
313.541
312.874
312.231
311.613
311.018
310.447
309.899
309.373
308.87
308.388
307.927
307.487
307.067
306.666
306.284
305.92
305.574
305.245
304.933
304.636
304.355
304.088
303.835
303.596
303.37
303.156
302.954
302.763
302.584
302.414
302.255
302.104
301.963
301.83
301.705
301.588
301.478
301.375
301.278
301.187
301.102
301.023
300.949
300.88
300.815
300.754
300.698
300.645
300.596
300.55
300.507
300.468
300.431
300.396
300.364
300.334
300.306
300.28
300.256
300.234
300.213
300.193
300.174
300.157
300.141
300.126
300.111
300.097
300.084
300.072
300.06
300.049
300.037
300.027
300.016
300.005
337.22
336.145
335.06
333.969
332.876
331.784
330.697
329.618
328.548
327.491
326.449
325.424
324.416
323.429
322.462
321.517
320.596
319.698
318.825
317.976
317.153
316.355
315.583
314.836
314.116
313.42
312.751
312.106
311.486
310.89
310.319
309.771
309.246
308.744
308.263
307.805
307.367
306.949
306.551
306.171
305.811
305.468
305.142
304.833
304.539
304.261
303.998
303.749
303.513
303.29
303.079
302.881
302.693
302.517
302.35
302.194
302.046
301.908
301.777
301.655
301.541
301.433
301.332
301.238
301.149
301.067
300.989
300.917
300.849
300.786
300.727
300.672
300.621
300.573
300.529
300.488
300.449
300.413
300.38
300.348
300.319
300.292
300.267
300.244
300.222
300.201
300.182
300.164
300.147
300.131
300.116
300.102
300.088
300.075
300.063
300.051
300.039
300.028
300.017
300.006
338.726
337.608
336.479
335.344
334.206
333.071
331.94
330.816
329.704
328.604
327.52
326.453
325.405
324.377
323.371
322.388
321.429
320.495
319.586
318.704
317.847
317.017
316.214
315.437
314.687
313.964
313.267
312.596
311.951
311.331
310.737
310.166
309.62
309.098
308.598
308.12
307.665
307.23
306.816
306.421
306.046
305.689
305.35
305.028
304.723
304.434
304.16
303.9
303.655
303.423
303.204
302.997
302.802
302.619
302.445
302.282
302.129
301.985
301.849
301.722
301.603
301.491
301.386
301.288
301.196
301.11
301.029
300.954
300.884
300.818
300.757
300.7
300.646
300.597
300.55
300.507
300.467
300.43
300.395
300.362
300.332
300.304
300.278
300.253
300.231
300.209
300.189
300.17
300.153
300.136
300.121
300.106
300.092
300.078
300.065
300.053
300.041
300.029
300.017
300.006
340.223
339.062
337.889
336.71
335.529
334.349
333.174
332.008
330.852
329.71
328.584
327.475
326.387
325.319
324.275
323.254
322.258
321.288
320.344
319.427
318.537
317.675
316.84
316.034
315.255
314.503
313.779
313.083
312.413
311.769
311.152
310.559
309.992
309.449
308.93
308.434
307.961
307.509
307.079
306.67
306.28
305.909
305.557
305.223
304.906
304.605
304.321
304.051
303.796
303.555
303.328
303.113
302.911
302.72
302.54
302.371
302.211
302.062
301.921
301.789
301.665
301.549
301.44
301.338
301.242
301.153
301.069
300.991
300.918
300.85
300.786
300.727
300.671
300.62
300.572
300.527
300.485
300.446
300.41
300.376
300.345
300.316
300.289
300.263
300.239
300.217
300.196
300.177
300.159
300.142
300.125
300.11
300.095
300.081
300.068
300.055
300.042
300.03
300.018
300.006
341.71
340.506
339.29
338.067
336.842
335.619
334.401
333.191
331.993
330.808
329.641
328.491
327.362
326.256
325.172
324.114
323.081
322.075
321.096
320.145
319.222
318.328
317.463
316.626
315.819
315.04
314.289
313.566
312.872
312.204
311.564
310.95
310.362
309.799
309.26
308.746
308.255
307.787
307.341
306.916
306.512
306.128
305.762
305.416
305.087
304.775
304.48
304.201
303.937
303.687
303.451
303.228
303.018
302.82
302.634
302.458
302.293
302.138
301.992
301.855
301.726
301.606
301.493
301.387
301.288
301.195
301.109
301.027
300.952
300.881
300.815
300.754
300.696
300.643
300.593
300.546
300.503
300.463
300.425
300.39
300.358
300.328
300.299
300.273
300.248
300.225
300.204
300.184
300.165
300.147
300.13
300.114
300.099
300.084
300.07
300.057
300.044
300.031
300.019
300.006
343.187
341.94
340.681
339.415
338.147
336.88
335.619
334.366
333.125
331.899
330.69
329.5
328.331
327.185
326.063
324.967
323.898
322.856
321.843
320.858
319.903
318.977
318.081
317.215
316.379
315.572
314.795
314.047
313.327
312.636
311.973
311.337
310.728
310.146
309.588
309.056
308.548
308.063
307.601
307.161
306.742
306.344
305.966
305.608
305.267
304.945
304.639
304.35
304.076
303.817
303.573
303.343
303.125
302.92
302.727
302.545
302.374
302.214
302.062
301.921
301.788
301.663
301.546
301.436
301.334
301.238
301.148
301.064
300.985
300.912
300.844
300.78
300.721
300.665
300.614
300.566
300.521
300.479
300.44
300.404
300.371
300.339
300.31
300.283
300.257
300.233
300.211
300.19
300.17
300.152
300.134
300.118
300.102
300.087
300.073
300.059
300.045
300.032
300.019
300.006
344.653
343.364
342.062
340.753
339.442
338.132
336.828
335.533
334.25
332.982
331.732
330.501
329.293
328.108
326.948
325.815
324.709
323.632
322.584
321.566
320.578
319.621
318.695
317.799
316.935
316.101
315.297
314.524
313.78
313.065
312.38
311.722
311.093
310.49
309.914
309.363
308.838
308.337
307.859
307.404
306.971
306.56
306.169
305.798
305.446
305.112
304.796
304.497
304.214
303.947
303.694
303.456
303.231
303.019
302.82
302.632
302.455
302.289
302.132
301.986
301.848
301.719
301.598
301.485
301.379
301.28
301.187
301.1
301.019
300.943
300.873
300.807
300.745
300.688
300.635
300.585
300.539
300.496
300.455
300.418
300.383
300.351
300.32
300.292
300.266
300.241
300.218
300.197
300.176
300.157
300.139
300.122
300.106
300.09
300.075
300.061
300.047
300.033
300.02
300.007
346.109
344.777
343.433
342.081
340.727
339.375
338.028
336.691
335.366
334.057
332.766
331.495
330.247
329.024
327.826
326.656
325.514
324.402
323.32
322.269
321.249
320.261
319.304
318.38
317.487
316.625
315.796
314.997
314.229
313.491
312.783
312.104
311.454
310.832
310.237
309.668
309.126
308.608
308.115
307.645
307.198
306.774
306.37
305.987
305.623
305.279
304.953
304.644
304.352
304.076
303.815
303.569
303.337
303.118
302.912
302.717
302.535
302.363
302.202
302.051
301.908
301.775
301.65
301.533
301.424
301.321
301.225
301.136
301.052
300.974
300.901
300.833
300.77
300.71
300.655
300.604
300.556
300.512
300.47
300.432
300.396
300.362
300.331
300.302
300.274
300.249
300.225
300.203
300.182
300.162
300.144
300.126
300.109
300.093
300.078
300.063
300.048
300.034
300.021
300.007
347.552
346.179
344.793
343.399
342.002
340.608
339.219
337.84
336.473
335.123
333.792
332.482
331.195
329.933
328.698
327.491
326.313
325.166
324.05
322.966
321.914
320.895
319.909
318.955
318.034
317.146
316.29
315.466
314.674
313.914
313.183
312.483
311.813
311.171
310.557
309.971
309.411
308.878
308.369
307.885
307.424
306.986
306.569
306.174
305.8
305.444
305.108
304.789
304.488
304.203
303.934
303.68
303.441
303.215
303.003
302.803
302.614
302.437
302.271
302.115
301.968
301.831
301.702
301.581
301.468
301.363
301.264
301.171
301.085
301.004
300.929
300.859
300.794
300.733
300.676
300.623
300.574
300.528
300.485
300.445
300.408
300.373
300.341
300.311
300.283
300.257
300.232
300.209
300.188
300.167
300.148
300.13
300.113
300.096
300.08
300.065
300.05
300.035
300.021
300.007
348.984
347.57
346.141
344.706
343.267
341.83
340.4
338.979
337.572
336.181
334.809
333.46
332.134
330.834
329.562
328.319
327.106
325.924
324.775
323.658
322.574
321.524
320.508
319.526
318.577
317.662
316.781
315.932
315.116
314.333
313.58
312.859
312.169
311.507
310.875
310.271
309.695
309.145
308.621
308.122
307.647
307.196
306.767
306.36
305.974
305.608
305.262
304.933
304.623
304.33
304.053
303.791
303.545
303.312
303.093
302.887
302.693
302.511
302.339
302.178
302.027
301.886
301.753
301.629
301.513
301.404
301.302
301.207
301.118
301.035
300.957
300.885
300.818
300.755
300.696
300.642
300.591
300.544
300.5
300.458
300.42
300.385
300.351
300.32
300.292
300.265
300.239
300.216
300.193
300.172
300.153
300.134
300.116
300.099
300.083
300.067
300.051
300.036
300.022
300.007
350.404
348.948
347.479
346.002
344.521
343.043
341.571
340.109
338.661
337.23
335.819
334.43
333.065
331.728
330.419
329.14
327.891
326.676
325.493
324.344
323.229
322.148
321.103
320.092
319.116
318.174
317.267
316.394
315.555
314.748
313.974
313.232
312.521
311.841
311.191
310.569
309.976
309.41
308.871
308.358
307.869
307.405
306.963
306.545
306.147
305.771
305.414
305.076
304.757
304.455
304.17
303.901
303.647
303.408
303.183
302.971
302.771
302.583
302.407
302.242
302.086
301.941
301.804
301.676
301.556
301.444
301.34
301.242
301.15
301.065
300.985
300.911
300.841
300.777
300.716
300.66
300.608
300.559
300.514
300.472
300.432
300.396
300.362
300.33
300.3
300.272
300.246
300.222
300.199
300.177
300.157
300.138
300.119
300.102
300.085
300.069
300.053
300.038
300.022
300.007
351.812
350.315
348.805
347.286
345.765
344.245
342.732
341.229
339.741
338.269
336.819
335.391
333.989
332.614
331.268
329.953
328.67
327.42
326.205
325.023
323.877
322.767
321.692
320.653
319.65
318.682
317.749
316.852
315.989
315.16
314.364
313.602
312.871
312.172
311.503
310.864
310.255
309.673
309.119
308.591
308.089
307.611
307.158
306.727
306.319
305.932
305.565
305.218
304.89
304.58
304.287
304.01
303.749
303.503
303.272
303.054
302.848
302.656
302.474
302.304
302.145
301.995
301.854
301.723
301.6
301.485
301.377
301.276
301.182
301.094
301.013
300.936
300.865
300.798
300.736
300.679
300.625
300.575
300.528
300.485
300.445
300.407
300.372
300.339
300.308
300.28
300.253
300.228
300.204
300.182
300.161
300.141
300.123
300.105
300.087
300.071
300.054
300.039
300.023
300.008
353.206
351.67
350.119
348.559
346.996
345.436
343.882
342.339
340.81
339.3
337.81
336.344
334.904
333.492
332.11
330.76
329.442
328.159
326.91
325.697
324.52
323.38
322.276
321.209
320.178
319.185
318.227
317.305
316.419
315.568
314.751
313.968
313.217
312.499
311.813
311.157
310.531
309.933
309.364
308.822
308.307
307.816
307.351
306.909
306.489
306.092
305.715
305.359
305.022
304.703
304.402
304.118
303.85
303.598
303.36
303.136
302.925
302.727
302.541
302.366
302.202
302.048
301.904
301.769
301.643
301.525
301.414
301.311
301.214
301.124
301.04
300.961
300.888
300.82
300.756
300.697
300.642
300.59
300.543
300.498
300.456
300.418
300.382
300.348
300.317
300.287
300.26
300.234
300.21
300.187
300.166
300.145
300.126
300.107
300.09
300.072
300.056
300.04
300.024
300.008
354.588
353.011
351.42
349.82
348.217
346.616
345.021
343.438
341.87
340.32
338.792
337.287
335.81
334.362
332.944
331.558
330.207
328.89
327.609
326.364
325.157
323.987
322.854
321.76
320.702
319.683
318.7
317.755
316.846
315.972
315.134
314.33
313.561
312.824
312.119
311.446
310.804
310.191
309.607
309.051
308.522
308.019
307.541
307.088
306.658
306.25
305.863
305.498
305.152
304.825
304.516
304.225
303.95
303.691
303.447
303.217
303.001
302.798
302.607
302.428
302.259
302.102
301.954
301.815
301.686
301.564
301.451
301.345
301.246
301.153
301.067
300.986
300.911
300.841
300.776
300.715
300.658
300.606
300.557
300.511
300.468
300.429
300.392
300.357
300.325
300.295
300.267
300.24
300.215
300.192
300.17
300.149
300.129
300.11
300.092
300.074
300.057
300.041
300.024
300.008
355.956
354.34
352.709
351.069
349.425
347.784
346.15
344.527
342.919
341.331
339.764
338.222
336.708
335.223
333.769
332.349
330.964
329.614
328.301
327.025
325.787
324.588
323.427
322.305
321.221
320.176
319.169
318.2
317.268
316.373
315.513
314.69
313.9
313.145
312.423
311.733
311.075
310.447
309.848
309.278
308.736
308.22
307.731
307.266
306.824
306.406
306.01
305.636
305.281
304.946
304.63
304.331
304.049
303.784
303.533
303.298
303.076
302.868
302.672
302.488
302.316
302.154
302.003
301.861
301.728
301.603
301.487
301.378
301.277
301.182
301.094
301.011
300.934
300.862
300.795
300.733
300.675
300.621
300.571
300.524
300.48
300.439
300.401
300.366
300.333
300.302
300.273
300.246
300.221