/*--------------------------------*- C++ -*----------------------------------*\
| =========                 |                                                 |
| \\      /  F ield         | OpenFOAM: The Open Source CFD Toolbox           |
|  \\    /   O peration     | Version:  2406                                  |
|   \\  /    A nd           | Website:  www.openfoam.com                      |
|    \\/     M anipulation  |                                                 |
\*---------------------------------------------------------------------------*/
FoamFile
{
    version     2.0;
    format      ascii;
    arch        "LSB;label=32;scalar=64";
    class       volVectorField;
    location    "60";
    object      flux;
}
// * * * * * * * * * * * * * * * * * * * * * * * * * * * * * * * * * * * * * //

dimensions      [0 1 -1 1 0 0 0];

internalField   nonuniform List<vector> 
20000
(
(-0.00170832 0.0747718 0)
(-0.00166152 0.0714023 0)
(-0.00161347 0.0681268 0)
(-0.00156414 0.0649491 0)
(-0.00151495 0.0618701 0)
(-0.00146538 0.0588896 0)
(-0.00141549 0.056009 0)
(-0.0013658 0.0532279 0)
(-0.0013163 0.0505461 0)
(-0.00126713 0.0479631 0)
(-0.00121849 0.0454779 0)
(-0.00117047 0.0430894 0)
(-0.00112317 0.0407963 0)
(-0.00107667 0.038597 0)
(-0.00103105 0.0364899 0)
(-0.000986394 0.0344731 0)
(-0.000942766 0.0325446 0)
(-0.000900222 0.0307023 0)
(-0.000858805 0.0289439 0)
(-0.000818547 0.0272672 0)
(-0.000779477 0.0256699 0)
(-0.000741615 0.0241495 0)
(-0.000704976 0.0227036 0)
(-0.000669569 0.0213298 0)
(-0.0006354 0.0200255 0)
(-0.000602469 0.0187884 0)
(-0.00057077 0.0176158 0)
(-0.000540295 0.0165054 0)
(-0.000511032 0.0154548 0)
(-0.000482966 0.0144614 0)
(-0.000456078 0.013523 0)
(-0.000430348 0.0126372 0)
(-0.000405753 0.0118017 0)
(-0.000382266 0.0110143 0)
(-0.000359863 0.0102728 0)
(-0.000338515 0.00957496 0)
(-0.000318192 0.0089188 0)
(-0.000298865 0.00830228 0)
(-0.000280502 0.00772342 0)
(-0.000263073 0.00718034 0)
(-0.000246545 0.0066712 0)
(-0.000230887 0.00619422 0)
(-0.000216065 0.00574771 0)
(-0.00020205 0.00533001 0)
(-0.000188807 0.00493956 0)
(-0.000176306 0.00457483 0)
(-0.000164516 0.00423438 0)
(-0.000153406 0.00391681 0)
(-0.000142945 0.0036208 0)
(-0.000133104 0.00334507 0)
(-0.000123855 0.00308841 0)
(-0.000115168 0.00284968 0)
(-0.000107016 0.00262777 0)
(-9.93728e-05 0.00242165 0)
(-9.22124e-05 0.00223031 0)
(-8.55096e-05 0.00205282 0)
(-7.92403e-05 0.00188829 0)
(-7.33812e-05 0.00173588 0)
(-6.79096e-05 0.00159479 0)
(-6.28041e-05 0.00146426 0)
(-5.80439e-05 0.00134359 0)
(-5.36092e-05 0.0012321 0)
(-4.94809e-05 0.00112916 0)
(-4.56408e-05 0.00103419 0)
(-4.20718e-05 0.000946611 0)
(-3.87572e-05 0.00086591 0)
(-3.56814e-05 0.000791592 0)
(-3.28293e-05 0.000723194 0)
(-3.01869e-05 0.000660283 0)
(-2.77407e-05 0.000602454 0)
(-2.54781e-05 0.000549328 0)
(-2.33869e-05 0.000500549 0)
(-2.14559e-05 0.000455786 0)
(-1.96743e-05 0.000414731 0)
(-1.80322e-05 0.000377094 0)
(-1.652e-05 0.000342606 0)
(-1.51288e-05 0.000311018 0)
(-1.38503e-05 0.000282095 0)
(-1.26768e-05 0.00025562 0)
(-1.16009e-05 0.000231391 0)
(-1.06158e-05 0.00020922 0)
(-9.71521e-06 0.000188931 0)
(-8.89327e-06 0.000170362 0)
(-8.1445e-06 0.00015336 0)
(-7.46387e-06 0.000137786 0)
(-6.84672e-06 0.000123507 0)
(-6.28878e-06 0.000110401 0)
(-5.78613e-06 9.83533e-05 0)
(-5.3352e-06 8.72577e-05 0)
(-4.93274e-06 7.70139e-05 0)
(-4.57582e-06 6.75281e-05 0)
(-4.26182e-06 5.87119e-05 0)
(-3.98841e-06 5.04819e-05 0)
(-3.75356e-06 4.27593e-05 0)
(-3.55548e-06 3.54687e-05 0)
(-3.39269e-06 2.85383e-05 0)
(-3.26392e-06 2.18989e-05 0)
(-3.1682e-06 1.54835e-05 0)
(-3.1048e-06 9.22694e-06 0)
(-3.07316e-06 3.0651e-06 0)
(-0.00512443 0.074753 0)
(-0.00498345 0.0713842 0)
(-0.00483977 0.0681104 0)
(-0.00469258 0.0649332 0)
(-0.00454455 0.0618547 0)
(-0.00439569 0.0588751 0)
(-0.00424614 0.0559952 0)
(-0.00409706 0.0532149 0)
(-0.00394855 0.0505337 0)
(-0.00380109 0.0479513 0)
(-0.00365518 0.0454667 0)
(-0.00351113 0.0430788 0)
(-0.00336924 0.0407863 0)
(-0.00322974 0.0385875 0)
(-0.00309289 0.0364809 0)
(-0.00295893 0.0344646 0)
(-0.00282806 0.0325366 0)
(-0.00270044 0.0306947 0)
(-0.0025762 0.0289368 0)
(-0.00245544 0.0272606 0)
(-0.00233824 0.0256636 0)
(-0.00222466 0.0241436 0)
(-0.00211475 0.0226981 0)
(-0.00200854 0.0213246 0)
(-0.00190604 0.0200206 0)
(-0.00180725 0.0187838 0)
(-0.00171217 0.0176115 0)
(-0.00162075 0.0165014 0)
(-0.00153297 0.015451 0)
(-0.00144878 0.0144579 0)
(-0.00136812 0.0135197 0)
(-0.00129094 0.0126341 0)
(-0.00121715 0.0117989 0)
(-0.0011467 0.0110116 0)
(-0.0010795 0.0102703 0)
(-0.00101546 0.00957262 0)
(-0.000954495 0.00891662 0)
(-0.000896518 0.00830024 0)
(-0.000841435 0.00772153 0)
(-0.000789152 0.00717858 0)
(-0.000739572 0.00666956 0)
(-0.000692601 0.0061927 0)
(-0.000648141 0.0057463 0)
(-0.000606097 0.00532871 0)
(-0.000566373 0.00493835 0)
(-0.000528874 0.00457372 0)
(-0.000493507 0.00423335 0)
(-0.000460178 0.00391585 0)
(-0.000428799 0.00361991 0)
(-0.000399279 0.00334425 0)
(-0.000371532 0.00308766 0)
(-0.000345473 0.00284898 0)
(-0.00032102 0.00262713 0)
(-0.000298093 0.00242105 0)
(-0.000276613 0.00222976 0)
(-0.000256507 0.00205232 0)
(-0.000237701 0.00188783 0)
(-0.000220125 0.00173545 0)
(-0.000203711 0.0015944 0)
(-0.000188396 0.0014639 0)
(-0.000174117 0.00134326 0)
(-0.000160814 0.0012318 0)
(-0.00014843 0.00112889 0)
(-0.000136911 0.00103393 0)
(-0.000126205 0.00094638 0)
(-0.000116262 0.000865699 0)
(-0.000107035 0.000791399 0)
(-9.84794e-05 0.000723018 0)
(-9.05529e-05 0.000660122 0)
(-8.3215e-05 0.000602307 0)
(-7.64276e-05 0.000549194 0)
(-7.01547e-05 0.000500426 0)
(-6.43621e-05 0.000455675 0)
(-5.90179e-05 0.000414629 0)
(-5.40919e-05 0.000377002 0)
(-4.95556e-05 0.000342523 0)
(-4.53824e-05 0.000310942 0)
(-4.15474e-05 0.000282026 0)
(-3.8027e-05 0.000255558 0)
(-3.47996e-05 0.000231335 0)
(-3.18446e-05 0.000209169 0)
(-2.91431e-05 0.000188885 0)
(-2.66775e-05 0.00017032 0)
(-2.44314e-05 0.000153323 0)
(-2.23897e-05 0.000137752 0)
(-2.05384e-05 0.000123477 0)
(-1.88647e-05 0.000110374 0)
(-1.73569e-05 9.83294e-05 0)
(-1.60042e-05 8.72365e-05 0)
(-1.47969e-05 7.69952e-05 0)
(-1.37262e-05 6.75116e-05 0)
(-1.27843e-05 5.86976e-05 0)
(-1.19642e-05 5.04696e-05 0)
(-1.12597e-05 4.27489e-05 0)
(-1.06655e-05 3.546e-05 0)
(-1.01772e-05 2.85313e-05 0)
(-9.79088e-06 2.18935e-05 0)
(-9.50374e-06 1.54797e-05 0)
(-9.3136e-06 9.22466e-06 0)
(-9.21888e-06 3.06442e-06 0)
(-0.00853955 0.0747164 0)
(-0.00830405 0.0713486 0)
(-0.00806445 0.0680766 0)
(-0.00781986 0.0649012 0)
(-0.00757302 0.0618241 0)
(-0.00732487 0.0588461 0)
(-0.00707578 0.0559676 0)
(-0.0068273 0.0531886 0)
(-0.00657983 0.0505088 0)
(-0.00633413 0.0479277 0)
(-0.00609098 0.0454443 0)
(-0.00585094 0.0430576 0)
(-0.00561447 0.0407661 0)
(-0.005382 0.0385685 0)
(-0.00515397 0.0364629 0)
(-0.00493075 0.0344476 0)
(-0.00471267 0.0325205 0)
(-0.00450001 0.0306796 0)
(-0.00429297 0.0289225 0)
(-0.00409173 0.0272471 0)
(-0.00389642 0.025651 0)
(-0.00370716 0.0241317 0)
(-0.00352401 0.0226869 0)
(-0.00334702 0.021314 0)
(-0.00317622 0.0200107 0)
(-0.0030116 0.0187745 0)
(-0.00285314 0.0176028 0)
(-0.00270081 0.0164932 0)
(-0.00255453 0.0154434 0)
(-0.00241423 0.0144507 0)
(-0.00227983 0.013513 0)
(-0.00215121 0.0126279 0)
(-0.00202826 0.011793 0)
(-0.00191086 0.0110062 0)
(-0.00179887 0.0102652 0)
(-0.00169215 0.00956789 0)
(-0.00159057 0.00891222 0)
(-0.00149395 0.00829615 0)
(-0.00140216 0.00771772 0)
(-0.00131504 0.00717504 0)
(-0.00123242 0.00666627 0)
(-0.00115415 0.00618965 0)
(-0.00108006 0.00574347 0)
(-0.00101 0.00532608 0)
(-0.000943802 0.00493592 0)
(-0.000881314 0.00457146 0)
(-0.000822378 0.00423126 0)
(-0.00076684 0.00391392 0)
(-0.000714549 0.00361813 0)
(-0.000665357 0.0033426 0)
(-0.00061912 0.00308614 0)
(-0.000575695 0.00284758 0)
(-0.000534947 0.00262583 0)
(-0.000496741 0.00241986 0)
(-0.000460948 0.00222866 0)
(-0.000427443 0.00205131 0)
(-0.000396104 0.0018869 0)
(-0.000366815 0.0017346 0)
(-0.000339464 0.00159361 0)
(-0.000313943 0.00146318 0)
(-0.000290148 0.00134259 0)
(-0.000267979 0.00123119 0)
(-0.000247343 0.00112833 0)
(-0.000228148 0.00103342 0)
(-0.000210307 0.000945913 0)
(-0.000193738 0.000865272 0)
(-0.000178363 0.000791009 0)
(-0.000164106 0.000722661 0)
(-0.000150897 0.000659797 0)
(-0.000138669 0.00060201 0)
(-0.000127359 0.000548923 0)
(-0.000116906 0.00050018 0)
(-0.000107253 0.00045545 0)
(-9.83474e-05 0.000414425 0)
(-9.01387e-05 0.000376816 0)
(-8.25794e-05 0.000342354 0)
(-7.56252e-05 0.000310789 0)
(-6.92345e-05 0.000281887 0)
(-6.33682e-05 0.000255432 0)
(-5.799e-05 0.000231221 0)
(-5.30658e-05 0.000209066 0)
(-4.8564e-05 0.000188792 0)
(-4.44553e-05 0.000170236 0)
(-4.07124e-05 0.000153247 0)
(-3.73101e-05 0.000137684 0)
(-3.42251e-05 0.000123416 0)
(-3.14361e-05 0.00011032 0)
(-2.89235e-05 9.8281e-05 0)
(-2.66694e-05 8.71935e-05 0)
(-2.46576e-05 7.69573e-05 0)
(-2.28734e-05 6.74784e-05 0)
(-2.13038e-05 5.86687e-05 0)
(-1.99371e-05 5.04448e-05 0)
(-1.87631e-05 4.27278e-05 0)
(-1.7773e-05 3.54426e-05 0)
(-1.69592e-05 2.85173e-05 0)
(-1.63156e-05 2.18828e-05 0)
(-1.5837e-05 1.54721e-05 0)
(-1.552e-05 9.22002e-06 0)
(-1.53622e-05 3.06291e-06 0)
(-0.011953 0.0746615 0)
(-0.0116232 0.0712958 0)
(-0.0112872 0.068026 0)
(-0.0109451 0.0648531 0)
(-0.0105996 0.0617783 0)
(-0.0102522 0.0588025 0)
(-0.00990368 0.0559261 0)
(-0.00955587 0.0531491 0)
(-0.00920949 0.0504713 0)
(-0.0088656 0.0478921 0)
(-0.00852527 0.0454106 0)
(-0.00818929 0.0430256 0)
(-0.0078583 0.0407359 0)
(-0.00753293 0.0385399 0)
(-0.00721377 0.0364359 0)
(-0.00690134 0.0344221 0)
(-0.00659611 0.0324964 0)
(-0.00629846 0.0306568 0)
(-0.00600868 0.0289011 0)
(-0.00572701 0.0272269 0)
(-0.00545365 0.0256319 0)
(-0.00518874 0.0241138 0)
(-0.00493239 0.02267 0)
(-0.00468467 0.0212982 0)
(-0.0044456 0.0199959 0)
(-0.0042152 0.0187605 0)
(-0.00399341 0.0175897 0)
(-0.0037802 0.016481 0)
(-0.00357546 0.0154319 0)
(-0.00337909 0.01444 0)
(-0.00319097 0.013503 0)
(-0.00301095 0.0126185 0)
(-0.00283886 0.0117843 0)
(-0.00267454 0.010998 0)
(-0.00251779 0.0102576 0)
(-0.00236843 0.00956078 0)
(-0.00222624 0.00890559 0)
(-0.00209102 0.00828998 0)
(-0.00196254 0.00771198 0)
(-0.0018406 0.0071697 0)
(-0.00172496 0.00666131 0)
(-0.00161541 0.00618505 0)
(-0.00151171 0.00573919 0)
(-0.00141365 0.00532212 0)
(-0.001321 0.00493224 0)
(-0.00123353 0.00456806 0)
(-0.00115104 0.00422811 0)
(-0.00107331 0.00391101 0)
(-0.00100012 0.00361543 0)
(-0.000931269 0.00334011 0)
(-0.000866553 0.00308384 0)
(-0.000805774 0.00284546 0)
(-0.00074874 0.00262388 0)
(-0.000695265 0.00241806 0)
(-0.000645167 0.002227 0)
(-0.000598271 0.00204978 0)
(-0.000554408 0.00188549 0)
(-0.000513414 0.00173331 0)
(-0.000475132 0.00159242 0)
(-0.000439411 0.00146209 0)
(-0.000406106 0.0013416 0)
(-0.000375078 0.00123027 0)
(-0.000346194 0.00112749 0)
(-0.000319328 0.00103265 0)
(-0.000294357 0.000945209 0)
(-0.000271166 0.000864628 0)
(-0.000249646 0.00079042 0)
(-0.000229691 0.000722123 0)
(-0.000211204 0.000659305 0)
(-0.000194089 0.000601562 0)
(-0.000178258 0.000548514 0)
(-0.000163627 0.000499807 0)
(-0.000150117 0.000455111 0)
(-0.000137652 0.000414116 0)
(-0.000126163 0.000376535 0)
(-0.000115582 0.000342099 0)
(-0.000105849 0.000310558 0)
(-9.69042e-05 0.000281678 0)
(-8.86934e-05 0.000255242 0)
(-8.11658e-05 0.000231049 0)
(-7.42736e-05 0.00020891 0)
(-6.79728e-05 0.000188651 0)
(-6.2222e-05 0.00017011 0)
(-5.69832e-05 0.000153133 0)
(-5.22212e-05 0.000137582 0)
(-4.79033e-05 0.000123324 0)
(-4.39996e-05 0.000110237 0)
(-4.04828e-05 9.82078e-05 0)
(-3.73279e-05 8.71286e-05 0)
(-3.4512e-05 7.69e-05 0)
(-3.20148e-05 6.74282e-05 0)
(-2.98179e-05 5.86251e-05 0)
(-2.7905e-05 5.04073e-05 0)
(-2.62619e-05 4.26961e-05 0)
(-2.4876e-05 3.54163e-05 0)
(-2.3737e-05 2.84962e-05 0)
(-2.28361e-05 2.18666e-05 0)
(-2.21665e-05 1.54607e-05 0)
(-2.17227e-05 9.21321e-06 0)
(-2.15018e-05 3.06064e-06 0)
(-0.0153634 0.0745878 0)
(-0.0149395 0.0712256 0)
(-0.0145072 0.0679589 0)
(-0.0140676 0.0647891 0)
(-0.0136236 0.0617173 0)
(-0.013177 0.0587445 0)
(-0.0127291 0.0558709 0)
(-0.0122821 0.0530967 0)
(-0.0118369 0.0504215 0)
(-0.0113949 0.0478448 0)
(-0.0109575 0.0453658 0)
(-0.0105256 0.0429832 0)
(-0.0101002 0.0406957 0)
(-0.009682 0.0385019 0)
(-0.00927179 0.0364 0)
(-0.00887023 0.0343881 0)
(-0.00847793 0.0324644 0)
(-0.00809536 0.0306266 0)
(-0.0077229 0.0288726 0)
(-0.00736088 0.0272 0)
(-0.00700953 0.0256066 0)
(-0.00666904 0.02409 0)
(-0.00633956 0.0226477 0)
(-0.00602116 0.0212772 0)
(-0.0057139 0.0199762 0)
(-0.00541776 0.018742 0)
(-0.0051327 0.0175724 0)
(-0.00485865 0.0164647 0)
(-0.0045955 0.0154167 0)
(-0.00434312 0.0144258 0)
(-0.00410133 0.0134897 0)
(-0.00386995 0.0126061 0)
(-0.00364877 0.0117726 0)
(-0.00343756 0.0109872 0)
(-0.0032361 0.0102474 0)
(-0.00304412 0.00955135 0)
(-0.00286137 0.00889681 0)
(-0.00268757 0.0082818 0)
(-0.00252244 0.00770438 0)
(-0.0023657 0.00716263 0)
(-0.00221708 0.00665475 0)
(-0.00207627 0.00617895 0)
(-0.00194299 0.00573354 0)
(-0.00181695 0.00531687 0)
(-0.00169786 0.00492738 0)
(-0.00158545 0.00456356 0)
(-0.00147943 0.00422394 0)
(-0.00137951 0.00390716 0)
(-0.00128545 0.00361187 0)
(-0.00119695 0.00333682 0)
(-0.00111377 0.0030808 0)
(-0.00103565 0.00284266 0)
(-0.000962349 0.0026213 0)
(-0.000893618 0.00241568 0)
(-0.000829228 0.00222481 0)
(-0.000768953 0.00204776 0)
(-0.000712575 0.00188364 0)
(-0.000659886 0.0017316 0)
(-0.000610683 0.00159085 0)
(-0.000564771 0.00146065 0)
(-0.000521964 0.00134027 0)
(-0.000482085 0.00122906 0)
(-0.000444961 0.00112638 0)
(-0.000410429 0.00103164 0)
(-0.000378334 0.000944278 0)
(-0.000348527 0.000863776 0)
(-0.000320867 0.000789641 0)
(-0.00029522 0.000721412 0)
(-0.000271458 0.000658656 0)
(-0.000249461 0.00060097 0)
(-0.000229114 0.000547974 0)
(-0.000210309 0.000499315 0)
(-0.000192944 0.000454663 0)
(-0.000176923 0.000413709 0)
(-0.000162156 0.000376165 0)
(-0.000148557 0.000341762 0)
(-0.000136047 0.000310252 0)
(-0.00012455 0.0002814 0)
(-0.000113997 0.000254991 0)
(-0.000104322 0.000230821 0)
(-9.54632e-05 0.000208705 0)
(-8.73648e-05 0.000188466 0)
(-7.99734e-05 0.000169942 0)
(-7.324e-05 0.000152983 0)
(-6.71194e-05 0.000137446 0)
(-6.15697e-05 0.000123203 0)
(-5.65523e-05 0.000110129 0)
(-5.20322e-05 9.81112e-05 0)
(-4.79772e-05 8.70429e-05 0)
(-4.4358e-05 7.68243e-05 0)
(-4.11484e-05 6.73618e-05 0)
(-3.83247e-05 5.85673e-05 0)
(-3.58661e-05 5.03577e-05 0)
(-3.37541e-05 4.2654e-05 0)
(-3.1973e-05 3.53814e-05 0)
(-3.0509e-05 2.8468e-05 0)
(-2.9351e-05 2.1845e-05 0)
(-2.84904e-05 1.54455e-05 0)
(-2.79201e-05 9.20414e-06 0)
(-2.76361e-05 3.05763e-06 0)
(-0.0187699 0.0744954 0)
(-0.018252 0.0711377 0)
(-0.0177237 0.067875 0)
(-0.0171866 0.0647091 0)
(-0.0166442 0.0616411 0)
(-0.0160986 0.0586719 0)
(-0.0155515 0.0558019 0)
(-0.0150053 0.0530311 0)
(-0.0144613 0.0503592 0)
(-0.0139213 0.0477857 0)
(-0.0133869 0.0453097 0)
(-0.0128593 0.0429301 0)
(-0.0123396 0.0406454 0)
(-0.0118287 0.0384543 0)
(-0.0113275 0.036355 0)
(-0.0108369 0.0343456 0)
(-0.0103577 0.0324242 0)
(-0.00989027 0.0305887 0)
(-0.00943523 0.0288369 0)
(-0.00899293 0.0271664 0)
(-0.00856368 0.025575 0)
(-0.0081477 0.0240602 0)
(-0.00774517 0.0226197 0)
(-0.00735617 0.0212509 0)
(-0.00698078 0.0199515 0)
(-0.00661898 0.0187189 0)
(-0.00627072 0.0175507 0)
(-0.00593591 0.0164444 0)
(-0.00561442 0.0153976 0)
(-0.00530607 0.0144079 0)
(-0.00501067 0.013473 0)
(-0.00472799 0.0125905 0)
(-0.00445777 0.0117581 0)
(-0.00419974 0.0109736 0)
(-0.00395361 0.0102348 0)
(-0.00371906 0.00953955 0)
(-0.00349579 0.00888582 0)
(-0.00328345 0.00827157 0)
(-0.00308171 0.00769486 0)
(-0.00289023 0.00715378 0)
(-0.00270865 0.00664652 0)
(-0.00253662 0.00617131 0)
(-0.00237379 0.00572645 0)
(-0.0022198 0.0053103 0)
(-0.00207431 0.00492129 0)
(-0.00193698 0.00455792 0)
(-0.00180744 0.00421872 0)
(-0.00168538 0.00390233 0)
(-0.00157045 0.00360741 0)
(-0.00146234 0.0033327 0)
(-0.00136072 0.00307699 0)
(-0.00126528 0.00283914 0)
(-0.00117572 0.00261806 0)
(-0.00109175 0.00241269 0)
(-0.00101308 0.00222206 0)
(-0.000939444 0.00204523 0)
(-0.000870567 0.00188131 0)
(-0.000806196 0.00172946 0)
(-0.000746083 0.00158889 0)
(-0.000689992 0.00145884 0)
(-0.000637694 0.00133862 0)
(-0.000588972 0.00122754 0)
(-0.000543617 0.00112499 0)
(-0.000501429 0.00103036 0)
(-0.000462218 0.000943111 0)
(-0.000425803 0.000862709 0)
(-0.00039201 0.000788666 0)
(-0.000360676 0.00072052 0)
(-0.000331646 0.000657842 0)
(-0.000304771 0.000600227 0)
(-0.000279913 0.000547297 0)
(-0.000256938 0.000498698 0)
(-0.000235723 0.000454101 0)
(-0.00021615 0.000413198 0)
(-0.000198109 0.0003757 0)
(-0.000181495 0.00034134 0)
(-0.000166211 0.000309869 0)
(-0.000152165 0.000281053 0)
(-0.000139272 0.000254676 0)
(-0.000127452 0.000230536 0)
(-0.000116629 0.000208447 0)
(-0.000106735 0.000188233 0)
(-9.77051e-05 0.000169732 0)
(-8.94788e-05 0.000152794 0)
(-8.20011e-05 0.000137277 0)
(-7.52209e-05 0.000123051 0)
(-6.90911e-05 0.000109993 0)
(-6.35688e-05 9.79901e-05 0)
(-5.86147e-05 8.69355e-05 0)
(-5.41931e-05 7.67295e-05 0)
(-5.02718e-05 6.72787e-05 0)
(-4.68221e-05 5.84951e-05 0)
(-4.38183e-05 5.02956e-05 0)
(-4.12381e-05 4.26015e-05 0)
(-3.9062e-05 3.53378e-05 0)
(-3.72734e-05 2.84329e-05 0)
(-3.58587e-05 2.18181e-05 0)
(-3.48073e-05 1.54264e-05 0)
(-3.41106e-05 9.19279e-06 0)
(-3.37636e-05 3.05385e-06 0)
(-0.0221717 0.0743848 0)
(-0.0215599 0.0710321 0)
(-0.0209358 0.0677743 0)
(-0.0203015 0.064613 0)
(-0.0196608 0.0615496 0)
(-0.0190163 0.0585848 0)
(-0.0183699 0.0557191 0)
(-0.0177248 0.0529524 0)
(-0.0170822 0.0502845 0)
(-0.0164444 0.0477148 0)
(-0.0158131 0.0452425 0)
(-0.0151899 0.0428664 0)
(-0.014576 0.0405851 0)
(-0.0139725 0.0383972 0)
(-0.0133805 0.036301 0)
(-0.012801 0.0342947 0)
(-0.0122348 0.0323761 0)
(-0.0116827 0.0305433 0)
(-0.0111452 0.0287941 0)
(-0.0106228 0.0271261 0)
(-0.0101157 0.025537 0)
(-0.00962435 0.0240245 0)
(-0.00914886 0.0225861 0)
(-0.00868937 0.0212194 0)
(-0.00824594 0.0199219 0)
(-0.00781857 0.0186911 0)
(-0.00740719 0.0175246 0)
(-0.0070117 0.01642 0)
(-0.00663195 0.0153747 0)
(-0.00626772 0.0143865 0)
(-0.00591878 0.013453 0)
(-0.00558486 0.0125718 0)
(-0.00526567 0.0117406 0)
(-0.00496088 0.0109573 0)
(-0.00467014 0.0102196 0)
(-0.00439309 0.00952538 0)
(-0.00412935 0.00887262 0)
(-0.00387853 0.00825929 0)
(-0.00364023 0.00768343 0)
(-0.00341404 0.00714316 0)
(-0.00319955 0.00663665 0)
(-0.00299634 0.00616215 0)
(-0.002804 0.00571795 0)
(-0.00262211 0.00530242 0)
(-0.00245025 0.00491399 0)
(-0.00228802 0.00455115 0)
(-0.00213501 0.00421246 0)
(-0.00199083 0.00389653 0)
(-0.00185507 0.00360205 0)
(-0.00172737 0.00332775 0)
(-0.00160733 0.00307242 0)
(-0.00149459 0.00283493 0)
(-0.0013888 0.00261417 0)
(-0.00128961 0.00240911 0)
(-0.00119669 0.00221876 0)
(-0.0011097 0.00204219 0)
(-0.00102834 0.00187851 0)
(-0.000952306 0.00172689 0)
(-0.000881299 0.00158653 0)
(-0.000815042 0.00145668 0)
(-0.000753266 0.00133663 0)
(-0.000695714 0.00122572 0)
(-0.000642139 0.00112332 0)
(-0.000592305 0.00102883 0)
(-0.000545988 0.00094171 0)
(-0.000502973 0.000861428 0)
(-0.000463056 0.000787494 0)
(-0.000426043 0.00071945 0)
(-0.000391752 0.000656865 0)
(-0.000360006 0.000599336 0)
(-0.000330643 0.000546484 0)
(-0.000303504 0.000497958 0)
(-0.000278445 0.000453427 0)
(-0.000255324 0.000412584 0)
(-0.000234013 0.000375142 0)
(-0.000214388 0.000340833 0)
(-0.000196334 0.000309409 0)
(-0.000179743 0.000280635 0)
(-0.000164513 0.000254298 0)
(-0.000150551 0.000230194 0)
(-0.000137767 0.000208137 0)
(-0.000126079 0.000187954 0)
(-0.000115413 0.00016948 0)
(-0.000105695 0.000152567 0)
(-9.68626e-05 0.000137073 0)
(-8.88535e-05 0.000122868 0)
(-8.16128e-05 0.00010983 0)
(-7.50897e-05 9.78447e-05 0)
(-6.92377e-05 8.68065e-05 0)
(-6.40148e-05 7.66157e-05 0)
(-5.93828e-05 6.71789e-05 0)
(-5.53079e-05 5.84084e-05 0)
(-5.17597e-05 5.0221e-05 0)
(-4.8712e-05 4.25383e-05 0)
(-4.61415e-05 3.52854e-05 0)
(-4.40287e-05 2.83908e-05 0)
(-4.23575e-05 2.17857e-05 0)
(-4.11157e-05 1.54036e-05 0)
(-4.02927e-05 9.17916e-06 0)
(-3.98827e-05 3.04933e-06 0)
(-0.025568 0.0742559 0)
(-0.0248625 0.070909 0)
(-0.0241427 0.0676568 0)
(-0.0234113 0.0645011 0)
(-0.0226724 0.061443 0)
(-0.0219292 0.0584833 0)
(-0.0211839 0.0556225 0)
(-0.0204399 0.0528606 0)
(-0.0196989 0.0501974 0)
(-0.0189633 0.0476322 0)
(-0.0182354 0.0451641 0)
(-0.0175167 0.0427921 0)
(-0.0168087 0.0405148 0)
(-0.0161128 0.0383307 0)
(-0.0154301 0.0362382 0)
(-0.0147619 0.0342352 0)
(-0.014109 0.03232 0)
(-0.0134723 0.0304904 0)
(-0.0128525 0.0287442 0)
(-0.01225 0.0270791 0)
(-0.0116653 0.0254928 0)
(-0.0110986 0.0239829 0)
(-0.0105503 0.022547 0)
(-0.0100204 0.0211826 0)
(-0.00950906 0.0198873 0)
(-0.00901622 0.0186587 0)
(-0.00854184 0.0174942 0)
(-0.00808577 0.0163915 0)
(-0.00764784 0.0153481 0)
(-0.00722781 0.0143616 0)
(-0.00682542 0.0134297 0)
(-0.00644036 0.01255 0)
(-0.00607227 0.0117203 0)
(-0.00572079 0.0109383 0)
(-0.00538551 0.0102019 0)
(-0.00506603 0.00950888 0)
(-0.00476189 0.00885725 0)
(-0.00447265 0.00824498 0)
(-0.00419784 0.00767012 0)
(-0.003937 0.00713078 0)
(-0.00368966 0.00662515 0)
(-0.00345532 0.00615147 0)
(-0.00323352 0.00570804 0)
(-0.00302376 0.00529323 0)
(-0.00282558 0.00490547 0)
(-0.0026385 0.00454326 0)
(-0.00246206 0.00420516 0)
(-0.00229579 0.00388978 0)
(-0.00213924 0.00359581 0)
(-0.00199197 0.00332198 0)
(-0.00185354 0.0030671 0)
(-0.00172353 0.00283001 0)
(-0.00160154 0.00260964 0)
(-0.00148716 0.00240493 0)
(-0.00138 0.00221492 0)
(-0.00127969 0.00203865 0)
(-0.00118587 0.00187526 0)
(-0.00109818 0.0017239 0)
(-0.0010163 0.00158378 0)
(-0.000939891 0.00145415 0)
(-0.000868653 0.00133431 0)
(-0.000802285 0.00122359 0)
(-0.000740503 0.00112137 0)
(-0.000683036 0.00102705 0)
(-0.000629623 0.000940079 0)
(-0.000580019 0.000859935 0)
(-0.000533987 0.00078613 0)
(-0.000491305 0.000718204 0)
(-0.000451761 0.000655727 0)
(-0.000415153 0.000598297 0)
(-0.000381291 0.000545537 0)
(-0.000349996 0.000497095 0)
(-0.000321097 0.000452641 0)
(-0.000294435 0.000411869 0)
(-0.00026986 0.000374492 0)
(-0.000247229 0.000340243 0)
(-0.000226409 0.000308873 0)
(-0.000207276 0.000280149 0)
(-0.000189714 0.000253857 0)
(-0.000173612 0.000229795 0)
(-0.00015887 0.000207777 0)
(-0.000145392 0.000187628 0)
(-0.000133092 0.000169187 0)
(-0.000121886 0.000152303 0)
(-0.0001117 0.000136836 0)
(-0.000102464 0.000122655 0)
(-9.41144e-05 0.000109639 0)
(-8.65921e-05 9.76752e-05 0)
(-7.98437e-05 8.66561e-05 0)
(-7.38207e-05 7.6483e-05 0)
(-6.84791e-05 6.70625e-05 0)
(-6.378e-05 5.83072e-05 0)
(-5.96884e-05 5.0134e-05 0)
(-5.61738e-05 4.24647e-05 0)
(-5.32096e-05 3.52243e-05 0)
(-5.07731e-05 2.83416e-05 0)
(-4.88459e-05 2.1748e-05 0)
(-4.74139e-05 1.53769e-05 0)
(-4.64648e-05 9.16327e-06 0)
(-4.59921e-05 3.04405e-06 0)
(-0.028958 0.0741087 0)
(-0.028159 0.0707684 0)
(-0.0273437 0.0675227 0)
(-0.0265154 0.0643732 0)
(-0.0256785 0.0613211 0)
(-0.0248367 0.0583674 0)
(-0.0239926 0.0555123 0)
(-0.0231499 0.0527559 0)
(-0.0223107 0.0500979 0)
(-0.0214776 0.0475377 0)
(-0.0206531 0.0450746 0)
(-0.0198392 0.0427073 0)
(-0.0190373 0.0404345 0)
(-0.0182491 0.0382548 0)
(-0.0174759 0.0361663 0)
(-0.0167191 0.0341674 0)
(-0.0159797 0.032256 0)
(-0.0152586 0.03043 0)
(-0.0145566 0.0286872 0)
(-0.0138742 0.0270254 0)
(-0.0132119 0.0254422 0)
(-0.0125702 0.0239353 0)
(-0.0119491 0.0225023 0)
(-0.011349 0.0211406 0)
(-0.0107698 0.0198479 0)
(-0.0102117 0.0186217 0)
(-0.00967437 0.0174596 0)
(-0.00915783 0.016359 0)
(-0.00866184 0.0153177 0)
(-0.00818613 0.0143331 0)
(-0.00773039 0.0134031 0)
(-0.00729427 0.0125251 0)
(-0.00687738 0.0116971 0)
(-0.00647929 0.0109166 0)
(-0.00609956 0.0101816 0)
(-0.00573771 0.00949003 0)
(-0.00539325 0.00883969 0)
(-0.00506566 0.00822863 0)
(-0.00475442 0.00765491 0)
(-0.004459 0.00711664 0)
(-0.00417886 0.00661202 0)
(-0.00391345 0.00613927 0)
(-0.00366224 0.00569672 0)
(-0.00342467 0.00528273 0)
(-0.00320022 0.00489575 0)
(-0.00298834 0.00453425 0)
(-0.0027885 0.00419682 0)
(-0.00260018 0.00388207 0)
(-0.00242287 0.00358868 0)
(-0.00225607 0.0033154 0)
(-0.00209929 0.00306102 0)
(-0.00195205 0.0028244 0)
(-0.00181388 0.00260446 0)
(-0.00168434 0.00240017 0)
(-0.00156297 0.00221052 0)
(-0.00144936 0.00203461 0)
(-0.0013431 0.00187154 0)
(-0.00124379 0.00172048 0)
(-0.00115105 0.00158064 0)
(-0.00106451 0.00145127 0)
(-0.000983825 0.00133167 0)
(-0.000908657 0.00122117 0)
(-0.000838684 0.00111915 0)
(-0.000773597 0.00102501 0)
(-0.000713103 0.000938215 0)
(-0.000656922 0.000858231 0)
(-0.000604787 0.000784572 0)
(-0.000556446 0.00071678 0)
(-0.000511658 0.000654428 0)
(-0.000470196 0.000597112 0)
(-0.000431845 0.000544456 0)
(-0.0003964 0.00049611 0)
(-0.00036367 0.000451744 0)
(-0.000333474 0.000411053 0)
(-0.00030564 0.00037375 0)
(-0.000280008 0.000339569 0)
(-0.000256428 0.00030826 0)
(-0.000234758 0.000279594 0)
(-0.000214867 0.000253354 0)
(-0.000196631 0.00022934 0)
(-0.000179934 0.000207365 0)
(-0.00016467 0.000187256 0)
(-0.000150738 0.000168851 0)
(-0.000138047 0.000152001 0)
(-0.00012651 0.000136564 0)
(-0.00011605 0.000122412 0)
(-0.000106593 0.000109422 0)
(-9.80731e-05 9.74816e-05 0)
(-9.043e-05 8.64844e-05 0)
(-8.36084e-05 7.63314e-05 0)
(-7.75586e-05 6.69297e-05 0)
(-7.22364e-05 5.81916e-05 0)
(-6.76022e-05 5.00347e-05 0)
(-6.36217e-05 4.23805e-05 0)
(-6.02645e-05 3.51545e-05 0)
(-5.7505e-05 2.82855e-05 0)
(-5.53223e-05 2.17049e-05 0)
(-5.37004e-05 1.53464e-05 0)
(-5.26255e-05 9.14513e-06 0)
(-5.20901e-05 3.03802e-06 0)
(-0.0323409 0.0739432 0)
(-0.0314486 0.0706104 0)
(-0.030538 0.0673719 0)
(-0.0296129 0.0642294 0)
(-0.0286783 0.0611842 0)
(-0.0277381 0.058237 0)
(-0.0267954 0.0553883 0)
(-0.0258543 0.0526381 0)
(-0.024917 0.049986 0)
(-0.0239866 0.0474316 0)
(-0.0230658 0.0449739 0)
(-0.0221568 0.0426119 0)
(-0.0212613 0.0403442 0)
(-0.020381 0.0381693 0)
(-0.0195175 0.0360855 0)
(-0.0186722 0.0340911 0)
(-0.0178464 0.0321839 0)
(-0.0170411 0.030362 0)
(-0.016257 0.0286231 0)
(-0.015495 0.026965 0)
(-0.0147553 0.0253854 0)
(-0.0140386 0.0238819 0)
(-0.013345 0.022452 0)
(-0.0126748 0.0210934 0)
(-0.012028 0.0198036 0)
(-0.0114046 0.0185801 0)
(-0.0108045 0.0174206 0)
(-0.0102276 0.0163225 0)
(-0.00967371 0.0152835 0)
(-0.00914242 0.0143011 0)
(-0.00863344 0.0133731 0)
(-0.00814638 0.0124972 0)
(-0.00768078 0.0116709 0)
(-0.0072362 0.0108922 0)
(-0.00681211 0.0101589 0)
(-0.00640799 0.00946883 0)
(-0.00602328 0.00881994 0)
(-0.00565742 0.00821025 0)
(-0.00530983 0.00763781 0)
(-0.00497989 0.00710075 0)
(-0.00466703 0.00659725 0)
(-0.00437062 0.00612556 0)
(-0.00409006 0.005684 0)
(-0.00382474 0.00527093 0)
(-0.00357406 0.00488481 0)
(-0.00333743 0.00452412 0)
(-0.00311424 0.00418745 0)
(-0.00290393 0.0038734 0)
(-0.00270591 0.00358066 0)
(-0.00251963 0.00330799 0)
(-0.00234453 0.00305418 0)
(-0.00218009 0.0028181 0)
(-0.00202578 0.00259865 0)
(-0.0018811 0.0023948 0)
(-0.00174555 0.00220559 0)
(-0.00161867 0.00203007 0)
(-0.0015 0.00186736 0)
(-0.00138908 0.00171664 0)
(-0.00128551 0.00157711 0)
(-0.00118886 0.00144803 0)
(-0.00109875 0.00132869 0)
(-0.00101481 0.00121844 0)
(-0.000936658 0.00111665 0)
(-0.000863968 0.00102272 0)
(-0.000796407 0.00093612 0)
(-0.000733662 0.000856314 0)
(-0.000675437 0.000782819 0)
(-0.000621449 0.000715179 0)
(-0.000571429 0.000652966 0)
(-0.000525124 0.000595778 0)
(-0.000482293 0.00054324 0)
(-0.000442707 0.000495002 0)
(-0.000406154 0.000450735 0)
(-0.00037243 0.000410135 0)
(-0.000341344 0.000372915 0)
(-0.000312718 0.00033881 0)
(-0.000286384 0.000307572 0)
(-0.000262183 0.00027897 0)
(-0.000239968 0.000252788 0)
(-0.000219601 0.000228828 0)
(-0.000200954 0.000206902 0)
(-0.000183906 0.000186838 0)
(-0.000168347 0.000168474 0)
(-0.000154173 0.000151661 0)
(-0.000141289 0.00013626 0)
(-0.000129606 0.000122139 0)
(-0.000119045 0.000109178 0)
(-0.00010953 9.72641e-05 0)
(-0.000100994 8.62914e-05 0)
(-9.33754e-05 7.61611e-05 0)
(-8.6619e-05 6.67803e-05 0)
(-8.06749e-05 5.80618e-05 0)
(-7.54995e-05 4.9923e-05 0)
(-7.10539e-05 4.22859e-05 0)
(-6.73046e-05 3.50761e-05 0)
(-6.42227e-05 2.82224e-05 0)
(-6.17849e-05 2.16565e-05 0)
(-5.99737e-05 1.53122e-05 0)
(-5.87732e-05 9.12472e-06 0)
(-5.81752e-05 3.03124e-06 0)
(-0.0357157 0.0737594 0)
(-0.0347303 0.0704349 0)
(-0.0337247 0.0672045 0)
(-0.0327031 0.0640698 0)
(-0.0316709 0.0610322 0)
(-0.0306326 0.0580923 0)
(-0.0295916 0.0552507 0)
(-0.0285522 0.0525073 0)
(-0.0275172 0.0498618 0)
(-0.0264897 0.0473137 0)
(-0.0254728 0.0448622 0)
(-0.0244689 0.042506 0)
(-0.0234799 0.040244 0)
(-0.0225078 0.0380745 0)
(-0.0215542 0.0359959 0)
(-0.0206207 0.0340063 0)
(-0.0197088 0.0321039 0)
(-0.0188194 0.0302865 0)
(-0.0179535 0.028552 0)
(-0.0171119 0.026898 0)
(-0.0162951 0.0253223 0)
(-0.0155036 0.0238225 0)
(-0.0147376 0.0223962 0)
(-0.0139974 0.021041 0)
(-0.0132831 0.0197543 0)
(-0.0125947 0.0185339 0)
(-0.011932 0.0173773 0)
(-0.0112949 0.0162819 0)
(-0.0106832 0.0152455 0)
(-0.0100965 0.0142656 0)
(-0.00953437 0.0133399 0)
(-0.00899647 0.0124661 0)
(-0.0084823 0.0116419 0)
(-0.00799131 0.0108652 0)
(-0.00752297 0.0101337 0)
(-0.00707668 0.00944529 0)
(-0.00665183 0.00879802 0)
(-0.00624779 0.00818984 0)
(-0.00586392 0.00761882 0)
(-0.00549956 0.0070831 0)
(-0.00515404 0.00658085 0)
(-0.0048267 0.00611034 0)
(-0.00451687 0.00566987 0)
(-0.00422386 0.00525783 0)
(-0.00394703 0.00487267 0)
(-0.0036857 0.00451288 0)
(-0.00343922 0.00417704 0)
(-0.00320696 0.00386377 0)
(-0.00298828 0.00357176 0)
(-0.00278256 0.00329977 0)
(-0.00258919 0.00304659 0)
(-0.00240759 0.00281109 0)
(-0.00223718 0.00259219 0)
(-0.0020774 0.00238885 0)
(-0.00192771 0.0022001 0)
(-0.00178759 0.00202502 0)
(-0.00165653 0.00186272 0)
(-0.00153404 0.00171237 0)
(-0.00141966 0.00157319 0)
(-0.00131292 0.00144443 0)
(-0.00121341 0.00132539 0)
(-0.0011207 0.00121541 0)
(-0.0010344 0.00111387 0)
(-0.000954125 0.00102018 0)
(-0.000879514 0.000933793 0)
(-0.000810222 0.000854185 0)
(-0.000745921 0.000780874 0)
(-0.000686299 0.000713402 0)
(-0.00063106 0.000651343 0)
(-0.000579922 0.000594297 0)
(-0.000532621 0.00054189 0)
(-0.000488905 0.000493772 0)
(-0.000448537 0.000449615 0)
(-0.000411294 0.000409116 0)
(-0.000376964 0.000371989 0)