/*--------------------------------*- C++ -*----------------------------------*\
| =========                 |                                                 |
| \\      /  F ield         | OpenFOAM: The Open Source CFD Toolbox           |
|  \\    /   O peration     | Version:  2406                                  |
|   \\  /    A nd           | Website:  www.openfoam.com                      |
|    \\/     M anipulation  |                                                 |
\*---------------------------------------------------------------------------*/
FoamFile
{
    version     2.0;
    format      ascii;
    arch        "LSB;label=32;scalar=64";
    class       volVectorField;
    location    "75";
    object      flux;
}
// * * * * * * * * * * * * * * * * * * * * * * * * * * * * * * * * * * * * * //

dimensions      [0 1 -1 1 0 0 0];

internalField   nonuniform List<vector> 
20000
(
(-0.0012201 0.0727012 0)
(-0.00121676 0.0702626 0)
(-0.00120996 0.0678345 0)
(-0.00119997 0.0654231 0)
(-0.00118718 0.0630348 0)
(-0.00117191 0.0606747 0)
(-0.00115419 0.0583476 0)
(-0.00113446 0.0560582 0)
(-0.0011131 0.0538099 0)
(-0.00109015 0.051606 0)
(-0.00106578 0.0494496 0)
(-0.00104025 0.0473432 0)
(-0.0010138 0.0452889 0)
(-0.000986599 0.0432882 0)
(-0.000958772 0.0413427 0)
(-0.000930452 0.0394534 0)
(-0.000901775 0.0376211 0)
(-0.000872872 0.0358465 0)
(-0.000843867 0.0341299 0)
(-0.000814868 0.0324712 0)
(-0.000785972 0.0308706 0)
(-0.000757266 0.0293276 0)
(-0.000728827 0.0278417 0)
(-0.000700723 0.0264124 0)
(-0.000673016 0.025039 0)
(-0.000645762 0.0237205 0)
(-0.000619009 0.0224561 0)
(-0.000592801 0.0212446 0)
(-0.000567174 0.020085 0)
(-0.000542161 0.0189761 0)
(-0.000517788 0.0179165 0)
(-0.000494077 0.0169051 0)
(-0.000471046 0.0159403 0)
(-0.000448709 0.015021 0)
(-0.000427075 0.0141456 0)
(-0.000406151 0.0133128 0)
(-0.00038594 0.0125211 0)
(-0.000366444 0.0117691 0)
(-0.000347659 0.0110554 0)
(-0.000329582 0.0103786 0)
(-0.000312206 0.00973718 0)
(-0.000295523 0.00912984 0)
(-0.000279523 0.00855516 0)
(-0.000264194 0.00801181 0)
(-0.000249523 0.00749845 0)
(-0.000235497 0.00701378 0)
(-0.000222101 0.00655652 0)
(-0.000209319 0.00612543 0)
(-0.000197134 0.0057193 0)
(-0.000185529 0.00533695 0)
(-0.000174488 0.00497723 0)
(-0.000163992 0.00463904 0)
(-0.000154023 0.0043213 0)
(-0.000144564 0.00402298 0)
(-0.000135595 0.00374308 0)
(-0.000127099 0.00348064 0)
(-0.000119059 0.00323472 0)
(-0.000111455 0.00300443 0)
(-0.00010427 0.00278892 0)
(-9.74861e-05 0.00258738 0)
(-9.10871e-05 0.002399 0)
(-8.50557e-05 0.00222305 0)
(-7.93754e-05 0.0020588 0)
(-7.403e-05 0.00190557 0)
(-6.9004e-05 0.0017627 0)
(-6.42821e-05 0.00162957 0)
(-5.98495e-05 0.00150559 0)
(-5.5692e-05 0.00139019 0)
(-5.17958e-05 0.00128283 0)
(-4.81474e-05 0.00118302 0)
(-4.47342e-05 0.00109026 0)
(-4.15438e-05 0.00100409 0)
(-3.85644e-05 0.000924091 0)
(-3.57846e-05 0.000849843 0)
(-3.31938e-05 0.000780961 0)
(-3.07815e-05 0.000717076 0)
(-2.85379e-05 0.000657843 0)
(-2.64538e-05 0.000602932 0)
(-2.45202e-05 0.000552034 0)
(-2.27287e-05 0.000504857 0)
(-2.10715e-05 0.000461125 0)
(-1.9541e-05 0.000420576 0)
(-1.81303e-05 0.000382966 0)
(-1.68327e-05 0.00034806 0)
(-1.56421e-05 0.000315639 0)
(-1.45527e-05 0.000285495 0)
(-1.35593e-05 0.000257432 0)
(-1.26568e-05 0.000231262 0)
(-1.18408e-05 0.000206808 0)
(-1.1107e-05 0.000183902 0)
(-1.04518e-05 0.000162382 0)
(-9.87161e-06 0.000142097 0)
(-9.36349e-06 0.000122898 0)
(-8.92471e-06 0.000104645 0)
(-8.55293e-06 8.72018e-05 0)
(-8.24615e-06 7.04358e-05 0)
(-8.0027e-06 5.42192e-05 0)
(-7.82127e-06 3.84269e-05 0)
(-7.70086e-06 2.2936e-05 0)
(-7.64081e-06 7.62535e-06 0)
(-0.00366001 0.0726833 0)
(-0.00364995 0.0702452 0)
(-0.00362953 0.0678177 0)
(-0.0035997 0.065407 0)
(-0.00356126 0.0630191 0)
(-0.00351529 0.0606597 0)
(-0.0034623 0.0583333 0)
(-0.00340321 0.0560443 0)
(-0.00333903 0.0537966 0)
(-0.00327013 0.0515933 0)
(-0.00319705 0.0494375 0)
(-0.00312051 0.0473316 0)
(-0.00304119 0.0452777 0)
(-0.00295957 0.0432775 0)
(-0.00287608 0.0413325 0)
(-0.00279112 0.0394436 0)
(-0.00270509 0.0376118 0)
(-0.0026184 0.0358377 0)
(-0.00253139 0.0341214 0)
(-0.0024444 0.0324632 0)
(-0.00235772 0.030863 0)
(-0.00227161 0.0293203 0)
(-0.0021863 0.0278348 0)
(-0.002102 0.0264059 0)
(-0.00201888 0.0250328 0)
(-0.00193713 0.0237147 0)
(-0.00185687 0.0224506 0)
(-0.00177826 0.0212394 0)
(-0.00170138 0.0200801 0)
(-0.00162635 0.0189714 0)
(-0.00155324 0.0179121 0)
(-0.00148211 0.0169009 0)
(-0.00141302 0.0159364 0)
(-0.00134601 0.0150173 0)
(-0.00128112 0.0141421 0)
(-0.00121835 0.0133095 0)
(-0.00115773 0.012518 0)
(-0.00109924 0.0117662 0)
(-0.00104289 0.0110527 0)
(-0.000988665 0.010376 0)
(-0.000936542 0.00973478 0)
(-0.000886497 0.00912758 0)
(-0.0008385 0.00855305 0)
(-0.000792517 0.00800984 0)
(-0.000748509 0.0074966 0)
(-0.000706434 0.00701205 0)
(-0.000666249 0.0065549 0)
(-0.000627905 0.00612392 0)
(-0.000591353 0.00571789 0)
(-0.000556542 0.00533563 0)
(-0.000523421 0.004976 0)
(-0.000491935 0.00463789 0)
(-0.000462032 0.00432023 0)
(-0.000433655 0.00402199 0)
(-0.000406752 0.00374216 0)
(-0.000381267 0.00347978 0)
(-0.000357146 0.00323392 0)
(-0.000334336 0.00300369 0)
(-0.000312783 0.00278824 0)
(-0.000292434 0.00258674 0)
(-0.000273239 0.00239841 0)
(-0.000255146 0.0022225 0)
(-0.000238107 0.00205829 0)
(-0.000222072 0.0019051 0)
(-0.000206995 0.00176227 0)
(-0.00019283 0.00162917 0)
(-0.000179534 0.00150522 0)
(-0.000167062 0.00138984 0)
(-0.000155375 0.00128252 0)
(-0.00014443 0.00118273 0)
(-0.000134192 0.00108999 0)
(-0.000124621 0.00100384 0)
(-0.000115684 0.000923863 0)
(-0.000107345 0.000849634 0)
(-9.95732e-05 0.000780768 0)
(-9.23369e-05 0.000716899 0)
(-8.56068e-05 0.00065768 0)
(-7.93548e-05 0.000602783 0)
(-7.35544e-05 0.000551898 0)
(-6.81805e-05 0.000504733 0)
(-6.32092e-05 0.000461011 0)
(-5.86182e-05 0.000420473 0)
(-5.43863e-05 0.000382871 0)
(-5.04939e-05 0.000347974 0)
(-4.69224e-05 0.000315561 0)
(-4.36546e-05 0.000285425 0)
(-4.06745e-05 0.000257368 0)
(-3.79673e-05 0.000231205 0)
(-3.55194e-05 0.000206757 0)
(-3.33183e-05 0.000183856 0)
(-3.13527e-05 0.000162342 0)
(-2.96124e-05 0.000142062 0)
(-2.80882e-05 0.000122868 0)
(-2.67719e-05 0.00010462 0)
(-2.56567e-05 8.71803e-05 0)
(-2.47364e-05 7.04184e-05 0)
(-2.40061e-05 5.42058e-05 0)
(-2.34619e-05 3.84175e-05 0)
(-2.31007e-05 2.29304e-05 0)
(-2.29206e-05 7.62348e-06 0)
(-0.00609907 0.0726474 0)
(-0.00608233 0.0702106 0)
(-0.00604822 0.0677842 0)
(-0.00599852 0.0653747 0)
(-0.00593446 0.062988 0)
(-0.00585776 0.0606298 0)
(-0.00576956 0.0583045 0)
(-0.00567118 0.0560167 0)
(-0.00556414 0.05377 0)
(-0.00544926 0.0515678 0)
(-0.00532749 0.0494131 0)
(-0.00520001 0.0473082 0)
(-0.00506784 0.0452554 0)
(-0.00493183 0.0432562 0)
(-0.00479268 0.0413121 0)
(-0.00465109 0.0394241 0)
(-0.00450774 0.0375933 0)
(-0.00436327 0.03582 0)
(-0.00421829 0.0341046 0)
(-0.00407333 0.0324472 0)
(-0.0039289 0.0308477 0)
(-0.0037854 0.0293059 0)
(-0.00364324 0.0278211 0)
(-0.00350275 0.0263929 0)
(-0.00336425 0.0250204 0)
(-0.00322801 0.023703 0)
(-0.00309428 0.0224395 0)
(-0.00296327 0.0212289 0)
(-0.00283517 0.0200702 0)
(-0.00271013 0.018962 0)
(-0.0025883 0.0179033 0)
(-0.00246977 0.0168925 0)
(-0.00235465 0.0159285 0)
(-0.00224299 0.0150099 0)
(-0.00213485 0.0141351 0)
(-0.00203025 0.0133029 0)
(-0.00192922 0.0125118 0)
(-0.00183177 0.0117604 0)
(-0.00173787 0.0110472 0)
(-0.0016475 0.0103709 0)
(-0.00156065 0.00972998 0)
(-0.00147725 0.00912308 0)
(-0.00139727 0.00854883 0)
(-0.00132064 0.00800588 0)
(-0.00124731 0.0074929 0)
(-0.0011772 0.00700859 0)
(-0.00111023 0.00655167 0)
(-0.00104634 0.0061209 0)
(-0.000985426 0.00571507 0)
(-0.000927418 0.005333 0)
(-0.000872224 0.00497354 0)
(-0.000819757 0.0046356 0)
(-0.000769926 0.0043181 0)
(-0.00072264 0.00402 0)
(-0.000677808 0.00374031 0)
(-0.000635341 0.00347806 0)
(-0.000595146 0.00323232 0)
(-0.000557135 0.00300221 0)
(-0.000521219 0.00278686 0)
(-0.00048731 0.00258546 0)
(-0.000455323 0.00239723 0)
(-0.000425174 0.00222141 0)
(-0.000396779 0.00205728 0)
(-0.000370059 0.00190416 0)
(-0.000344935 0.0017614 0)
(-0.000321331 0.00162836 0)
(-0.000299174 0.00150447 0)
(-0.000278391 0.00138916 0)
(-0.000258915 0.00128188 0)
(-0.000240678 0.00118214 0)
(-0.000223616 0.00108945 0)
(-0.000207668 0.00100335 0)
(-0.000192774 0.000923407 0)
(-0.000178879 0.000849214 0)
(-0.000165928 0.000780383 0)
(-0.000153869 0.000716546 0)
(-0.000142654 0.000657356 0)
(-0.000132236 0.000602486 0)
(-0.000122571 0.000551626 0)
(-0.000113615 0.000504484 0)
(-0.000105331 0.000460784 0)
(-9.76809e-05 0.000420265 0)
(-9.06289e-05 0.000382682 0)
(-8.41426e-05 0.000347802 0)
(-7.81911e-05 0.000315406 0)
(-7.27456e-05 0.000285284 0)
(-6.77796e-05 0.000257241 0)
(-6.32684e-05 0.000231091 0)
(-5.91892e-05 0.000206655 0)
(-5.55214e-05 0.000183766 0)
(-5.2246e-05 0.000162262 0)
(-4.93459e-05 0.000141992 0)
(-4.68059e-05 0.000122808 0)
(-4.46126e-05 0.000104568 0)
(-4.27541e-05 8.71373e-05 0)
(-4.12206e-05 7.03837e-05 0)
(-4.00037e-05 5.41791e-05 0)
(-3.90967e-05 3.83985e-05 0)
(-3.84948e-05 2.29191e-05 0)
(-3.81947e-05 7.61973e-06 0)
(-0.00853656 0.0725936 0)
(-0.00851322 0.0701587 0)
(-0.00846547 0.067734 0)
(-0.00839582 0.0653263 0)
(-0.0083062 0.0629414 0)
(-0.00819883 0.0605849 0)
(-0.0080754 0.0582613 0)
(-0.00793774 0.0559752 0)
(-0.00778787 0.0537302 0)
(-0.00762703 0.0515297 0)
(-0.00745663 0.0493765 0)
(-0.00727823 0.0472732 0)
(-0.00709326 0.0452218 0)
(-0.00690288 0.0432241 0)
(-0.0067081 0.0412815 0)
(-0.00650991 0.0393949 0)
(-0.00630926 0.0375654 0)
(-0.00610706 0.0357935 0)
(-0.00590414 0.0340794 0)
(-0.00570126 0.0324232 0)
(-0.0054991 0.0308249 0)
(-0.00529826 0.0292842 0)
(-0.00509928 0.0278005 0)
(-0.00490265 0.0263733 0)
(-0.00470879 0.0250019 0)
(-0.0045181 0.0236854 0)
(-0.00433093 0.0224229 0)
(-0.00414756 0.0212132 0)
(-0.00396826 0.0200553 0)
(-0.00379325 0.018948 0)
(-0.00362273 0.01789 0)
(-0.00345683 0.01688 0)
(-0.00329569 0.0159167 0)
(-0.00313941 0.0149988 0)
(-0.00298805 0.0141247 0)
(-0.00284165 0.0132931 0)
(-0.00270025 0.0125026 0)
(-0.00256384 0.0117517 0)
(-0.00243241 0.0110391 0)
(-0.00230594 0.0103632 0)
(-0.00218436 0.00972277 0)
(-0.00206764 0.00911632 0)
(-0.00195569 0.0085425 0)
(-0.00184844 0.00799996 0)
(-0.0017458 0.00748736 0)
(-0.00164767 0.0070034 0)
(-0.00155394 0.00654682 0)
(-0.00146451 0.00611637 0)
(-0.00137926 0.00571083 0)
(-0.00129806 0.00532905 0)
(-0.00122081 0.00496986 0)
(-0.00114738 0.00463217 0)
(-0.00107763 0.0043149 0)
(-0.00101145 0.00401703 0)
(-0.000948698 0.00373754 0)
(-0.000889257 0.00347548 0)
(-0.000832999 0.00322993 0)
(-0.000779796 0.00299998 0)
(-0.000729526 0.0027848 0)
(-0.000682066 0.00258355 0)
(-0.000637295 0.00239545 0)
(-0.000595096 0.00221976 0)
(-0.000555353 0.00205576 0)
(-0.000517955 0.00190275 0)
(-0.00048279 0.00176009 0)
(-0.000449753 0.00162716 0)
(-0.00041874 0.00150336 0)
(-0.000389652 0.00138813 0)
(-0.000362391 0.00128094 0)
(-0.000336866 0.00118127 0)
(-0.000312985 0.00108864 0)
(-0.000290663 0.00100261 0)
(-0.000269817 0.000922723 0)
(-0.000250369 0.000848586 0)
(-0.000232242 0.000779805 0)
(-0.000215364 0.000716015 0)
(-0.000199667 0.000656869 0)
(-0.000185085 0.00060204 0)
(-0.000171556 0.000551217 0)
(-0.000159022 0.00050411 0)
(-0.000147427 0.000460443 0)
(-0.000136719 0.000419954 0)
(-0.000126849 0.000382399 0)
(-0.000117771 0.000347545 0)
(-0.00010944 0.000315172 0)
(-0.000101819 0.000285073 0)
(-9.48681e-05 0.000257051 0)
(-8.85539e-05 0.00023092 0)
(-8.28445e-05 0.000206502 0)
(-7.77108e-05 0.00018363 0)
(-7.31263e-05 0.000162142 0)
(-6.90672e-05 0.000141887 0)
(-6.55121e-05 0.000122717 0)
(-6.24422e-05 0.000104491 0)
(-5.9841e-05 8.70729e-05 0)
(-5.76946e-05 7.03317e-05 0)
(-5.59913e-05 5.41391e-05 0)
(-5.47219e-05 3.83701e-05 0)
(-5.38795e-05 2.29022e-05 0)
(-5.34594e-05 7.6141e-06 0)
(-0.0109719 0.0725218 0)
(-0.0109419 0.0700894 0)
(-0.0108806 0.0676671 0)
(-0.0107911 0.0652618 0)
(-0.0106759 0.0628793 0)
(-0.0105379 0.060525 0)
(-0.0103792 0.0582038 0)
(-0.0102023 0.0559199 0)
(-0.0100097 0.0536771 0)
(-0.00980292 0.0514788 0)
(-0.00958393 0.0493277 0)
(-0.00935467 0.0472265 0)
(-0.00911693 0.0451772 0)
(-0.00887222 0.0431814 0)
(-0.00862186 0.0412407 0)
(-0.00836712 0.039356 0)
(-0.00810923 0.0375283 0)
(-0.00784934 0.0357581 0)
(-0.00758854 0.0340457 0)
(-0.00732778 0.0323912 0)
(-0.00706795 0.0307945 0)
(-0.00680981 0.0292552 0)
(-0.00655406 0.027773 0)
(-0.00630133 0.0263473 0)
(-0.00605217 0.0249772 0)
(-0.00580708 0.023662 0)
(-0.0055665 0.0224007 0)
(-0.00533082 0.0211922 0)
(-0.00510037 0.0200355 0)
(-0.00487543 0.0189293 0)
(-0.00465626 0.0178723 0)
(-0.00444304 0.0168634 0)
(-0.00423593 0.015901 0)
(-0.00403506 0.0149839 0)
(-0.00384051 0.0141107 0)
(-0.00365235 0.01328 0)
(-0.00347061 0.0124902 0)
(-0.00329528 0.0117401 0)
(-0.00312636 0.0110282 0)
(-0.0029638 0.010353 0)
(-0.00280754 0.00971317 0)
(-0.00265752 0.00910732 0)
(-0.00251364 0.00853406 0)
(-0.00237579 0.00799205 0)
(-0.00224386 0.00747996 0)
(-0.00211773 0.00699648 0)
(-0.00199727 0.00654035 0)
(-0.00188232 0.00611032 0)
(-0.00177274 0.00570519 0)
(-0.00166839 0.00532378 0)
(-0.0015691 0.00496495 0)
(-0.00147471 0.00462759 0)
(-0.00138507 0.00431064 0)
(-0.0013 0.00401306 0)
(-0.00121935 0.00373385 0)
(-0.00114295 0.00347205 0)
(-0.00107065 0.00322674 0)
(-0.00100227 0.00299702 0)
(-0.000937654 0.00278205 0)
(-0.000876653 0.002581 0)
(-0.00081911 0.00239309 0)
(-0.000764872 0.00221757 0)
(-0.000713791 0.00205373 0)
(-0.000665722 0.00190087 0)
(-0.000620526 0.00175835 0)
(-0.000578063 0.00162555 0)
(-0.000538203 0.00150188 0)
(-0.000500816 0.00138676 0)
(-0.000465779 0.00127967 0)
(-0.00043297 0.0011801 0)
(-0.000402277 0.00108757 0)
(-0.000373587 0.00100162 0)
(-0.000346794 0.000921812 0)
(-0.000321797 0.000847748 0)
(-0.000298498 0.000779035 0)
(-0.000276806 0.000715308 0)
(-0.00025663 0.000656221 0)
(-0.000237888 0.000601445 0)
(-0.0002205 0.000550673 0)
(-0.00020439 0.000503613 0)
(-0.000189487 0.000459988 0)
(-0.000175724 0.00041954 0)
(-0.000163038 0.000382022 0)
(-0.00015137 0.000347202 0)
(-0.000140663 0.000314861 0)
(-0.000130867 0.000284792 0)
(-0.000121933 0.000256797 0)
(-0.000113818 0.000230692 0)
(-0.000106479 0.000206298 0)
(-9.9881e-05 0.000183448 0)
(-9.39886e-05 0.000161982 0)
(-8.87715e-05 0.000141747 0)
(-8.42021e-05 0.000122596 0)
(-8.02564e-05 0.000104388 0)
(-7.69131e-05 8.6987e-05 0)
(-7.41544e-05 7.02623e-05 0)
(-7.19652e-05 5.40857e-05 0)
(-7.03337e-05 3.83323e-05 0)
(-6.92509e-05 2.28796e-05 0)
(-6.87109e-05 7.60659e-06 0)
(-0.0134045 0.0724322 0)
(-0.0133679 0.0700027 0)
(-0.0132931 0.0675835 0)
(-0.0131837 0.0651811 0)
(-0.013043 0.0628016 0)
(-0.0128743 0.0604502 0)
(-0.0126805 0.0581318 0)
(-0.0124644 0.0558508 0)
(-0.012229 0.0536108 0)
(-0.0119764 0.0514152 0)
(-0.0117089 0.0492668 0)
(-0.0114288 0.0471682 0)
(-0.0111384 0.0451213 0)
(-0.0108394 0.0431281 0)
(-0.0105335 0.0411897 0)
(-0.0102223 0.0393074 0)
(-0.00990719 0.037482 0)
(-0.00958968 0.0357139 0)
(-0.00927106 0.0340036 0)
(-0.0089525 0.0323512 0)
(-0.00863506 0.0307564 0)
(-0.00831968 0.0292191 0)
(-0.00800723 0.0277387 0)
(-0.00769846 0.0263147 0)
(-0.00739405 0.0249464 0)
(-0.00709462 0.0236328 0)
(-0.0068007 0.022373 0)
(-0.00651277 0.0211661 0)
(-0.00623122 0.0200107 0)
(-0.00595641 0.0189059 0)
(-0.00568864 0.0178503 0)
(-0.00542814 0.0168425 0)
(-0.00517511 0.0158814 0)
(-0.00492971 0.0149654 0)
(-0.00469203 0.0140933 0)
(-0.00446215 0.0132636 0)
(-0.00424011 0.0124748 0)
(-0.00402591 0.0117256 0)
(-0.00381953 0.0110145 0)
(-0.00362093 0.0103402 0)
(-0.00343003 0.00970117 0)
(-0.00324675 0.00909606 0)
(-0.00307096 0.00852352 0)
(-0.00290255 0.00798218 0)
(-0.00274137 0.00747072 0)
(-0.00258728 0.00698784 0)
(-0.0024401 0.00653227 0)
(-0.00229967 0.00610277 0)
(-0.0021658 0.00569814 0)
(-0.00203831 0.0053172 0)
(-0.001917 0.00495882 0)
(-0.00180169 0.00462188 0)
(-0.00169217 0.00430532 0)
(-0.00158824 0.0040081 0)
(-0.00148971 0.00372924 0)
(-0.00139637 0.00346776 0)
(-0.00130803 0.00322275 0)
(-0.00122449 0.00299332 0)
(-0.00114555 0.00277861 0)
(-0.00107102 0.00257781 0)
(-0.00100072 0.00239013 0)
(-0.000934459 0.00221483 0)
(-0.000872052 0.00205119 0)
(-0.000813326 0.00189852 0)
(-0.000758108 0.00175618 0)
(-0.000706231 0.00162354 0)
(-0.000657533 0.00150002 0)
(-0.000611857 0.00138505 0)
(-0.000569051 0.00127809 0)
(-0.000528968 0.00117864 0)
(-0.000491469 0.00108622 0)
(-0.000456418 0.00100038 0)
(-0.000423685 0.000920674 0)
(-0.000393146 0.000846701 0)
(-0.000364681 0.000778073 0)
(-0.000338179 0.000714425 0)
(-0.00031353 0.00065541 0)
(-0.000290633 0.000600702 0)
(-0.000269389 0.000549993 0)
(-0.000249707 0.000502991 0)
(-0.0002315 0.00045942 0)
(-0.000214686 0.000419022 0)
(-0.000199187 0.00038155 0)
(-0.000184931 0.000346773 0)
(-0.000171851 0.000314472 0)
(-0.000159883 0.00028444 0)
(-0.000148968 0.00025648 0)
(-0.000139053 0.000230407 0)
(-0.000130088 0.000206043 0)
(-0.000122027 0.000183222 0)
(-0.000114828 0.000161782 0)
(-0.000108454 0.000141572 0)
(-0.000102871 0.000122444 0)
(-9.80508e-05 0.000104259 0)
(-9.39663e-05 8.68796e-05 0)
(-9.05959e-05 7.01756e-05 0)
(-8.79213e-05 5.40189e-05 0)
(-8.5928e-05 3.8285e-05 0)
(-8.46052e-05 2.28513e-05 0)
(-8.39456e-05 7.5972e-06 0)
(-0.0158339 0.0723248 0)
(-0.0157906 0.0698989 0)
(-0.0157022 0.0674832 0)
(-0.015573 0.0650844 0)
(-0.0154068 0.0627084 0)
(-0.0152076 0.0603605 0)
(-0.0149787 0.0580456 0)
(-0.0147234 0.0557679 0)
(-0.0144453 0.0535313 0)
(-0.0141469 0.0513389 0)
(-0.0138309 0.0491937 0)
(-0.0135001 0.0470982 0)
(-0.013157 0.0450544 0)
(-0.0128038 0.0430641 0)
(-0.0124425 0.0411286 0)
(-0.0120749 0.0392491 0)
(-0.0117027 0.0374263 0)
(-0.0113277 0.0356609 0)
(-0.0109513 0.0339532 0)
(-0.010575 0.0323032 0)
(-0.0102 0.0307108 0)
(-0.0098275 0.0291757 0)
(-0.00945842 0.0276976 0)
(-0.00909369 0.0262757 0)
(-0.00873412 0.0249093 0)
(-0.00838042 0.0235977 0)
(-0.00803323 0.0223398 0)
(-0.00769311 0.0211346 0)
(-0.00736053 0.019981 0)
(-0.00703592 0.0188778 0)
(-0.00671962 0.0178238 0)
(-0.00641191 0.0168175 0)
(-0.00611303 0.0158578 0)
(-0.00582314 0.0149432 0)
(-0.00554238 0.0140724 0)
(-0.00527084 0.0132439 0)
(-0.00500856 0.0124563 0)
(-0.00475554 0.0117082 0)
(-0.00451176 0.0109982 0)
(-0.00427717 0.0103248 0)
(-0.00405167 0.00968677 0)
(-0.00383517 0.00908257 0)
(-0.00362752 0.00851087 0)
(-0.00342859 0.00797033 0)
(-0.0032382 0.00745963 0)
(-0.00305618 0.00697747 0)
(-0.00288233 0.00652258 0)
(-0.00271645 0.00609372 0)
(-0.00255831 0.00568969 0)
(-0.00240772 0.00530932 0)
(-0.00226443 0.00495146 0)
(-0.00212821 0.00461502 0)
(-0.00199884 0.00429893 0)
(-0.00187608 0.00400216 0)
(-0.00175969 0.0037237 0)
(-0.00164944 0.00346262 0)
(-0.00154509 0.00321797 0)
(-0.00144641 0.00298888 0)
(-0.00135316 0.00277449 0)
(-0.00126513 0.00257398 0)
(-0.00118209 0.00238659 0)
(-0.00110382 0.00221154 0)
(-0.0010301 0.00204814 0)
(-0.000960729 0.00189571 0)
(-0.000895504 0.00175358 0)
(-0.000834225 0.00162114 0)
(-0.000776701 0.00149779 0)
(-0.000722747 0.00138299 0)
(-0.000672182 0.00127619 0)
(-0.000624836 0.00117689 0)
(-0.000580541 0.00108461 0)
(-0.000539137 0.000998894 0)
(-0.000500471 0.000919308 0)
(-0.000464397 0.000845445 0)
(-0.000430774 0.000776919 0)
(-0.000399469 0.000713365 0)
(-0.000370353 0.000654438 0)
(-0.000343305 0.000599812 0)
(-0.000318212 0.000549177 0)
(-0.000294963 0.000502245 0)
(-0.000273456 0.000458739 0)
(-0.000253595 0.0004184 0)
(-0.000235287 0.000380984 0)
(-0.000218447 0.000346259 0)
(-0.000202996 0.000314006 0)
(-0.000188859 0.000284018 0)
(-0.000175966 0.0002561 0)
(-0.000164254 0.000230065 0)
(-0.000153664 0.000205738 0)
(-0.000144142 0.00018295 0)
(-0.000135639 0.000161543 0)
(-0.00012811 0.000141362 0)
(-0.000121515 0.000122263 0)
(-0.000115821 0.000104104 0)
(-0.000110996 8.67508e-05 0)
(-0.000107015 7.00715e-05 0)
(-0.000103856 5.39389e-05 0)
(-0.000101501 3.82282e-05 0)
(-9.99387e-05 2.28175e-05 0)
(-9.91595e-05 7.58594e-06 0)
(-0.0182593 0.0721995 0)
(-0.0182094 0.0697778 0)
(-0.0181075 0.0673663 0)
(-0.0179585 0.0649716 0)
(-0.0177669 0.0625997 0)
(-0.0175371 0.0602559 0)
(-0.0172731 0.057945 0)
(-0.0169787 0.0556713 0)
(-0.016658 0.0534385 0)
(-0.016314 0.0512499 0)
(-0.0159496 0.0491084 0)
(-0.0155681 0.0470166 0)
(-0.0151725 0.0449763 0)
(-0.0147652 0.0429894 0)
(-0.0143485 0.0410573 0)
(-0.0139245 0.0391811 0)
(-0.0134953 0.0373615 0)
(-0.0130628 0.0355992 0)
(-0.0126288 0.0338944 0)
(-0.0121949 0.0322472 0)
(-0.0117625 0.0306576 0)
(-0.0113329 0.0291252 0)
(-0.0109073 0.0276496 0)
(-0.0104867 0.0262302 0)
(-0.010072 0.0248662 0)
(-0.00966414 0.0235568 0)
(-0.00926377 0.0223011 0)
(-0.00887155 0.021098 0)
(-0.00848803 0.0199464 0)
(-0.0081137 0.0188451 0)
(-0.00774894 0.0177929 0)
(-0.0073941 0.0167884 0)
(-0.00704943 0.0158303 0)
(-0.00671514 0.0149173 0)
(-0.00639138 0.014048 0)
(-0.00607824 0.0132209 0)
(-0.00577578 0.0124347 0)
(-0.005484 0.0116879 0)
(-0.00520288 0.0109791 0)
(-0.00493235 0.010307 0)
(-0.00467231 0.00966999 0)
(-0.00442264 0.00906683 0)
(-0.00418319 0.00849612 0)
(-0.00395379 0.00795652 0)
(-0.00373424 0.00744671 0)
(-0.00352433 0.00696538 0)
(-0.00332385 0.00651128 0)
(-0.00313255 0.00608316 0)
(-0.0029502 0.00567983 0)
(-0.00277653 0.00530012 0)
(-0.0026113 0.00494288 0)
(-0.00245422 0.00460702 0)
(-0.00230503 0.00429148 0)
(-0.00216346 0.00399522 0)
(-0.00202925 0.00371725 0)
(-0.0019021 0.00345662 0)
(-0.00178177 0.00321239 0)
(-0.00166797 0.0029837 0)
(-0.00156044 0.00276968 0)
(-0.00145893 0.00256952 0)
(-0.00136316 0.00238245 0)
(-0.0012729 0.00220771 0)
(-0.00118789 0.0020446 0)
(-0.00110789 0.00189242 0)
(-0.00103268 0.00175054 0)
(-0.000962013 0.00161833 0)
(-0.000895677 0.0014952 0)
(-0.000833458 0.0013806 0)
(-0.000775148 0.00127398 0)
(-0.000720549 0.00117486 0)
(-0.000669469 0.00108273 0)
(-0.000621723 0.000997164 0)
(-0.000577134 0.000917716 0)
(-0.000535534 0.000843981 0)
(-0.000496761 0.000775574 0)
(-0.00046066 0.00071213 0)
(-0.000427084 0.000653305 0)
(-0.000395894 0.000598773 0)
(-0.000366956 0.000548226 0)
(-0.000340146 0.000501375 0)
(-0.000315345 0.000457944 0)
(-0.000292441 0.000417676 0)
(-0.000271328 0.000380324 0)
(-0.000251909 0.000345659 0)
(-0.000234091 0.000313462 0)
(-0.000217789 0.000283527 0)
(-0.000202921 0.000255657 0)
(-0.000189415 0.000229667 0)
(-0.000177203 0.000205382 0)
(-0.000166222 0.000182633 0)
(-0.000156416 0.000161263 0)
(-0.000147734 0.000141117 0)
(-0.000140129 0.000122051 0)
(-0.000133563 0.000103924 0)
(-0.000127999 8.66006e-05 0)
(-0.000123408 6.99502e-05 0)
(-0.000119765 5.38455e-05 0)
(-0.000117049 3.81621e-05 0)
(-0.000115248 2.2778e-05 0)
(-0.000114349 7.57281e-06 0)
(-0.0206803 0.0720563 0)
(-0.0206238 0.0696394 0)
(-0.0205084 0.0672327 0)
(-0.0203396 0.0648428 0)
(-0.0201225 0.0624756 0)
(-0.0198623 0.0601365 0)
(-0.0195633 0.0578302 0)
(-0.0192299 0.0555609 0)
(-0.0188667 0.0533326 0)
(-0.018477 0.0511483 0)
(-0.0180643 0.0490111 0)
(-0.0176322 0.0469233 0)
(-0.0171841 0.0448872 0)
(-0.0167228 0.0429042 0)
(-0.0162509 0.0409759 0)
(-0.0157707 0.0391034 0)
(-0.0152846 0.0372874 0)
(-0.0147948 0.0355286 0)
(-0.0143033 0.0338272 0)
(-0.0138118 0.0321833 0)
(-0.0133221 0.0305968 0)
(-0.0128355 0.0290674 0)
(-0.0123535 0.0275948 0)
(-0.0118771 0.0261782 0)
(-0.0114074 0.0248169 0)
(-0.0109455 0.0235101 0)
(-0.010492 0.0222569 0)
(-0.0100478 0.0210562 0)
(-0.00961343 0.0199069 0)
(-0.00918947 0.0188078 0)
(-0.00877635 0.0177576 0)
(-0.00837446 0.0167551 0)
(-0.00798409 0.0157989 0)
(-0.00760548 0.0148878 0)
(-0.00723879 0.0140201 0)
(-0.00688413 0.0131947 0)
(-0.00654157 0.0124101 0)
(-0.00621111 0.0116647 0)
(-0.00589272 0.0109574 0)
(-0.00558632 0.0102865 0)
(-0.0052918 0.00965081 0)
(-0.00500903 0.00904885 0)
(-0.00473783 0.00847928 0)
(-0.00447801 0.00794075 0)
(-0.00422935 0.00743194 0)
(-0.00399161 0.00695157 0)
(-0.00376455 0.00649837 0)
(-0.00354789 0.0060711 0)
(-0.00334136 0.00566857 0)
(-0.00314467 0.00528961 0)
(-0.00295752 0.00493308 0)
(-0.00277961 0.00459789 0)
(-0.00261065 0.00428297 0)
(-0.00245031 0.0039873 0)
(-0.0022983 0.00370988 0)
(-0.0021543 0.00344976 0)
(-0.00201801 0.00320603 0)
(-0.00188912 0.00297778 0)
(-0.00176734 0.00276419 0)
(-0.00165236 0.00256443 0)
(-0.0015439 0.00237773 0)
(-0.00144167 0.00220334 0)
(-0.00134539 0.00204054 0)
(-0.00125479 0.00188867 0)
(-0.0011696 0.00174707 0)
(-0.00108956 0.00161512 0)
(-0.00101443 0.00149224 0)
(-0.000943964 0.00137786 0)
(-0.000877923 0.00127146 0)
(-0.000816085 0.00117253 0)
(-0.000758232 0.00108059 0)
(-0.000704155 0.000995188 0)
(-0.000653655 0.000915897 0)
(-0.000606539 0.000842308 0)
(-0.000562625 0.000774036 0)
(-0.000521737 0.000710719 0)
(-0.00048371 0.00065201 0)
(-0.000448384 0.000597586 0)
(-0.00041561 0.00054714 0)
(-0.000385245 0.000500381 0)
(-0.000357155 0.000457037 0)
(-0.000331214 0.000416848 0)
(-0.000307303 0.000379571 0)
(-0.000285309 0.000344974 0)
(-0.000265129 0.000312841 0)
(-0.000246665 0.000282965 0)
(-0.000229826 0.00025515 0)
(-0.000214529 0.000229212 0)
(-0.000200698 0.000204975 0)
(-0.000188261 0.000182272 0)
(-0.000177155 0.000160943 0)
(-0.000167321 0.000140838 0)
(-0.000158709 0.000121809 0)
(-0.000151272 0.000103718 0)
(-0.00014497 8.64291e-05 0)
(-0.00013977 6.98117e-05 0)
(-0.000135644 5.37388e-05 0)
(-0.000132569 3.80865e-05 0)
(-0.000130528 2.27329e-05 0)
(-0.00012951 7.55781e-06 0)
(-0.0230961 0.0718954 0)
(-0.023033 0.0694839 0)
(-0.0229041 0.0670826 0)
(-0.0227156 0.064698 0)
(-0.0224732 0.0623361 0)
(-0.0221826 0.0600022 0)
(-0.0218487 0.057701 0)
(-0.0214763 0.0554369 0)
(-0.0210707 0.0532135 0)
(-0.0206354 0.0510341 0)
(-0.0201745 0.0489016 0)
(-0.019692 0.0468186 0)
(-0.0191916 0.0447869 0)
(-0.0186764 0.0428084 0)
(-0.0181493 0.0408844 0)
(-0.017613 0.0390161 0)
(-0.0170701 0.0372042 0)
(-0.0165231 0.0354492 0)
(-0.0159741 0.0337516 0)
(-0.0154253 0.0321114 0)
(-0.0148783 0.0305285 0)
(-0.0143349 0.0290025 0)
(-0.0137966 0.0275331 0)
(-0.0132646 0.0261197 0)
(-0.0127401 0.0247615 0)
(-0.0122241 0.0234576 0)
(-0.0117177 0.0222072 0)
(-0.0112216 0.0210092 0)
(-0.0107365 0.0198624 0)
(-0.010263 0.0187658 0)
(-0.00980159 0.0177179 0)
(-0.00935275 0.0167177 0)
(-0.00891678 0.0157637 0)
(-0.00849394 0.0148545 0)
(-0.00808442 0.0139888 0)
(-0.00768833 0.0131652 0)
(-0.00730575 0.0123823 0)
(-0.00693669 0.0116387 0)
(-0.0065811 0.0109329 0)
(-0.00623891 0.0102636 0)
(-0.00590998 0.00962926 0)
(-0.00559418 0.00902865 0)
(-0.0052913 0.00846034 0)
(-0.00500112 0.00792302 0)
(-0.00472342 0.00741535 0)
(-0.00445791 0.00693605 0)
(-0.00420432 0.00648386 0)
(-0.00396235 0.00605754 0)
(-0.00373169 0.00565591 0)
(-0.00351202 0.0052778 0)
(-0.00330301 0.00492207 0)
(-0.00310433 0.00458762 0)
(-0.00291562 0.00427341 0)
(-0.00273655 0.0039784 0)
(-0.00256678 0.0037016 0)
(-0.00240596 0.00344206 0)
(-0.00225375 0.00319887 0)
(-0.00210981 0.00297113 0)
(-0.0019738 0.00275802 0)
(-0.00184539 0.0025587 0)
(-0.00172426 0.00237242 0)
(-0.00161008 0.00219842 0)
(-0.00150256 0.00203599 0)
(-0.00140137 0.00188445 0)
(-0.00130623 0.00174317 0)
(-0.00121684 0.00161151 0)
(-0.00113294 0.0014889 0)
(-0.00105424 0.00137478 0)
(-0.000980481 0.00126862 0)
(-0.000911419 0.00116991 0)
(-0.000846808 0.00107818 0)
(-0.000786414 0.000992966 0)
(-0.000730014 0.000913852 0)
(-0.000677395 0.000840428 0)
(-0.00062835 0.000772309 0)
(-0.000582686 0.000709132 0)
(-0.000540216 0.000650555 0)
(-0.000500764 0.000596252 0)
(-0.000464161 0.000545918 0)
(-0.000430249 0.000499264 0)
(-0.000398878 0.000456017 0)
(-0.000369907 0.000415918 0)
(-0.000343202 0.000378724 0)
(-0.000318639 0.000344205 0)
(-0.000296101 0.000312143 0)
(-0.00027548 0.000282333 0)
(-0.000256674 0.000254581 0)
(-0.00023959 0.0002287 0)
(-0.000224143 0.000204517 0)
(-0.000210254 0.000181865 0)
(-0.00019785 0.000160584 0)
(-0.000186868 0.000140523 0)
(-0.000177249 0.000121538 0)
(-0.000168943 0.000103487 0)
(-0.000161905 8.62362e-05 0)
(-0.000156098 6.96559e-05 0)
(-0.00015149 5.36189e-05 0)
(-0.000148055 3.80015e-05 0)
(-0.000145776 2.26821e-05 0)
(-0.00014464 7.54094e-06 0)
(-0.0255063 0.0717168 0)
(-0.0254366 0.0693113 0)
(-0.0252942 0.0669159 0)
(-0.0250861 0.0645373 0)
(-0.0248184 0.0621812 0)
(-0.0244974 0.0598531 0)
(-0.0241287 0.0575576 0)
(-0.0237175 0.0552991 0)
(-0.0232694 0.0530812 0)
(-0.0227888 0.0509073 0)
(-0.0222798 0.0487801 0)
(-0.021747 0.0467022 0)
(-0.0211943 0.0446756 0)
(-0.0206253 0.042702 0)
(-0.0200432 0.0407829 0)
(-0.019451 0.0389191 0)
(-0.0188515 0.0371117 0)
(-0.0182473 0.0353612 0)
(-0.0176411 0.0336678 0)
(-0.017035 0.0320316 0)
(-0.0164309 0.0304526 0)
(-0.0158308 0.0289305 0)
(-0.0152363 0.0274647 0)
(-0.0146488 0.0260548 0)
(-0.0140695 0.0246999 0)
(-0.0134998 0.0233993 0)
(-0.0129405 0.022152 0)
(-0.0123926 0.020957 0)
(-0.0118568 0.0198131 0)
(-0.0113339 0.0187191 0)
(-0.0108244 0.0176739 0)
(-0.0103287 0.0166761 0)
(-0.00984728 0.0157245 0)
(-0.00938031 0.0148176 0)
(-0.00892805 0.0139541 0)
(-0.00849063 0.0131325 0)
(-0.00806813 0.0123516 0)
(-0.00766055 0.0116098 0)
(-0.00726785 0.0109057 0)
(-0.00688995 0.010238 0)
(-0.00652671 0.00960534 0)
(-0.00617795 0.00900621 0)
(-0.00584346 0.00843932 0)
(-0.00552301 0.00790333 0)
(-0.00521632 0.00739692 0)
(-0.0049231 0.00691881 0)
(-0.00464305 0.00646774 0)
(-0.00437583 0.00604249 0)
(-0.00412111 0.00564186 0)
(-0.00387851 0.00526468 0)
(-0.00364769 0.00490984 0)
(-0.00342827 0.00457622 0)
(-0.00321987 0.00426279 0)
(-0.00302212 0.00396851 0)
(-0.00283463 0.0036924 0)
(-0.00265703 0.00343351 0)
(-0.00248893 0.00319092 0)
(-0.00232997 0.00296375 0)
(-0.00217977 0.00275117 0)
(-0.00203796 0.00255235 0)
(-0.00190419 0.00236652 0)
(-0.0017781 0.00219295 0)
(-0.00165935 0.00203093 0)
(-0.00154761 0.00187977 0)
(-0.00144254 0.00173884 0)
(-0.00134383 0.00160751 0)
(-0.00125116 0.00148521 0)
(-0.00116425 0.00137137 0)
(-0.0010828 0.00126547 0)
(-0.00100653 0.001167 0)
(-0.000935175 0.0010755 0)
(-0.000868479 0.000990499 0)
(-0.000806194 0.000911582 0)
(-0.000748083 0.00083834 0)
(-0.000693921 0.00077039 0)
(-0.000643491 0.00070737 0)
(-0.00059659 0.000648939 0)
(-0.00055302 0.000594771 0)
(-0.000512598 0.000544562 0)
(-0.000475147 0.000498024 0)