/*--------------------------------*- C++ -*----------------------------------*\
| =========                 |                                                 |
| \\      /  F ield         | OpenFOAM: The Open Source CFD Toolbox           |
|  \\    /   O peration     | Version:  2406                                  |
|   \\  /    A nd           | Website:  www.openfoam.com                      |
|    \\/     M anipulation  |                                                 |
\*---------------------------------------------------------------------------*/
FoamFile
{
    version     2.0;
    format      ascii;
    arch        "LSB;label=32;scalar=64";
    class       volScalarField;
    location    "30";
    object      gradTy;
}
// * * * * * * * * * * * * * * * * * * * * * * * * * * * * * * * * * * * * * //

dimensions      [0 -1 0 1 0 0 0];

internalField   nonuniform List<scalar> 
20000
(
187.406
175.376
163.996
153.242
143.086
133.505
124.472
115.964
107.958
100.429
93.3556
86.7161
80.4887
74.6523
69.1873
64.0747
59.2956
54.8319
50.6662
46.7818
43.1629
39.7941
36.6608
33.749
31.0452
28.5366
26.2111
24.0571
22.0635
20.2199
18.5166
16.9441
15.4935
14.1566
12.9254
11.7924
10.7508
9.79397
8.91565
8.11009
7.37187
6.6959
6.07743
5.51204
4.99557
4.52419
4.09428
3.70253
3.34583
3.0213
2.72627
2.45827
2.21502
1.99441
1.79448
1.61344
1.44963
1.30153
1.16773
1.04694
0.937992
0.839787
0.751337
0.671733
0.600144
0.535812
0.478043
0.426206
0.379727
0.338081
0.300792
0.267429
0.237599
0.210946
0.187147
0.16591
0.146972
0.130094
0.115059
0.101673
0.0897605
0.0791625
0.0697364
0.0613532
0.053897
0.0472631
0.0413573
0.0360944
0.0313976
0.0271974
0.0234309
0.0200408
0.0169748
0.0141852
0.0116279
0.00926183
0.00704886
0.00495277
0.00293903
0.000974259
187.36
175.333
163.956
153.204
143.051
133.472
124.442
115.936
107.931
100.404
93.3328
86.6948
80.4686
74.6338
69.1703
64.059
59.281
54.8184
50.6537
46.7702
43.1522
39.7843
36.6518
33.7407
31.0375
28.5296
26.2046
24.0511
22.058
20.215
18.512
16.9399
15.4897
14.1531
12.9222
11.7895
10.7482
9.79155
8.91345
8.10809
7.37005
6.69425
6.07593
5.51068
4.99434
4.52307
4.09327
3.70162
3.345
3.02055
2.72559
2.45766
2.21447
1.99391
1.79404
1.61304
1.44927
1.30121
1.16744
1.04669
0.93776
0.83958
0.751152
0.671567
0.599996
0.53568
0.477925
0.426101
0.379633
0.337997
0.300718
0.267363
0.23754
0.210894
0.187101
0.165869
0.146936
0.130062
0.115031
0.101648
0.0897384
0.079143
0.0697192
0.0613381
0.0538838
0.0472515
0.0413471
0.0360855
0.0313899
0.0271908
0.0234252
0.0200359
0.0169707
0.0141817
0.011625
0.00925957
0.00704714
0.00495156
0.00293832
0.000974024
187.267
175.246
163.875
153.129
142.98
133.406
124.38
115.878
107.878
100.355
93.2868
86.6519
80.4288
74.5969
69.1362
64.0274
59.2518
54.7913
50.6286
46.7471
43.1309
39.7646
36.6337
33.724
31.0222
28.5155
26.1917
24.0392
22.0471
20.205
18.5029
16.9315
15.482
14.1461
12.9158
11.7837
10.7429
9.78672
8.90905
8.10409
7.36641
6.69094
6.07294
5.50796
4.99188
4.52084
4.09125
3.69979
3.34335
3.01906
2.72425
2.45645
2.21338
1.99293
1.79315
1.61225
1.44856
1.30057
1.16687
1.04617
0.937298
0.839165
0.750781
0.671236
0.5997
0.535416
0.477689
0.425891
0.379446
0.337831
0.30057
0.267231
0.237423
0.21079
0.187008
0.165788
0.146864
0.129998
0.114974
0.101598
0.0896941
0.079104
0.0696849
0.0613079
0.0538572
0.0472282
0.0413268
0.0360678
0.0313744
0.0271774
0.0234136
0.020026
0.0169623
0.0141748
0.0116193
0.00925502
0.00704368
0.00494914
0.00293689
0.000973549
187.128
175.116
163.754
153.015
142.875
133.307
124.288
115.793
107.798
100.28
93.2177
86.5877
80.3693
74.5417
69.0851
63.98
59.2079
54.7507
50.5911
46.7125
43.099
39.7352
36.6066
33.6991
30.9993
28.4944
26.1723
24.0214
22.0308
20.19
18.4892
16.919
15.4706
14.1356
12.9062
11.775
10.7349
9.77947
8.90246
8.09809
7.36096
6.68599
6.06844
5.50388
4.98818
4.51749
4.08823
3.69705
3.34088
3.01682
2.72223
2.45463
2.21174
1.99146
1.79182
1.61105
1.44749
1.2996
1.166
1.0454
0.936604
0.838544
0.750225
0.670739
0.599257
0.535019
0.477336
0.425576
0.379165
0.337581
0.300347
0.267034
0.237247
0.210634
0.18687
0.165665
0.146755
0.129901
0.114889
0.101523
0.0896278
0.0790456
0.0696334
0.0612626
0.0538174
0.0471934
0.0412962
0.0360411
0.0313513
0.0271573
0.0233963
0.0200112
0.0169498
0.0141643
0.0116107
0.0092482
0.00703849
0.0049455
0.00293472
0.000972833
186.944
174.943
163.592
152.864
142.733
133.175
124.165
115.678
107.692
100.181
93.1256
86.5022
80.2899
74.4681
69.0169
63.9168
59.1494
54.6966
50.5411
46.6663
43.0564
39.696
36.5704
33.6658
30.9687
28.4662
26.1464
23.9977
22.009
20.17
18.4709
16.9023
15.4553
14.1216
12.8935
11.7634
10.7243
9.76981
8.89366
8.09009
7.35369
6.67938
6.06244
5.49844
4.98325
4.51303
4.08419
3.6934
3.33758
3.01384
2.71954
2.45221
2.20956
1.98949
1.79005
1.60946
1.44606
1.29832
1.16485
1.04436
0.935679
0.837716
0.749485
0.670077
0.598665
0.534491
0.476865
0.425156
0.378791
0.337247
0.300051
0.26677
0.237013
0.210426
0.186686
0.165502
0.14661
0.129773
0.114776
0.101423
0.0895394
0.0789676
0.0695647
0.0612022
0.0537644
0.0471468
0.0412555
0.0360056
0.0313204
0.0271306
0.0233733
0.0199915
0.0169331
0.0141504
0.0115993
0.0092391
0.00703157
0.00494063
0.00293184
0.000971877
186.713
174.727
163.39
152.675
142.557
133.011
124.012
115.535
107.558
100.058
93.0105
86.3953
80.1907
74.3761
68.9316
63.8379
59.0763
54.629
50.4786
46.6087
43.0032
39.6469
36.5253
33.6242
30.9304
28.4311
26.1141
23.968
21.9818
20.1451
18.4481
16.8814
15.4362
14.1042
12.8775
11.7488
10.7111
9.75774
8.88267
8.0801
7.3446
6.67113
6.05495
5.49165
4.9771
4.50745
4.07914
3.68884
3.33345
3.01012
2.71618
2.44918
2.20683
1.98703
1.78784
1.60747
1.44427
1.29672
1.16341
1.04307
0.934523
0.836682
0.748559
0.66925
0.597926
0.533831
0.476276
0.424631
0.378323
0.336831
0.299681
0.266441
0.236721
0.210166
0.186455
0.165297
0.146429
0.129613
0.114634
0.101298
0.089429
0.0788702
0.0694789
0.0611267
0.0536981
0.0470887
0.0412047
0.0359612
0.0312818
0.0270971
0.0233445
0.0199669
0.0169123
0.0141329
0.011585
0.00922772
0.00702291
0.00493455
0.00292823
0.000970681
186.436
174.468
163.147
152.448
142.346
132.813
123.828
115.364
107.399
99.9091
92.8725
86.2671
80.0717
74.2658
68.8293
63.7431
58.9886
54.5479
50.4037
46.5395
42.9394
39.5881
36.4711
33.5743
30.8845
28.3889
26.0754
23.9325
21.9492
20.1152
18.4207
16.8563
15.4133
14.0833
12.8584
11.7314
10.6952
9.74327
8.86949
8.06811
7.3337
6.66123
6.04597
5.4835
4.96971
4.50076
4.07309
3.68337
3.32851
3.00566
2.71215
2.44554
2.20355
1.98408
1.78519
1.60509
1.44213
1.29479
1.16169
1.04153
0.933137
0.835441
0.747449
0.668257
0.597039
0.533039
0.47557
0.424001
0.377762
0.336332
0.299236
0.266046
0.23637
0.209854
0.186179
0.165052
0.146212
0.129421
0.114464
0.101147
0.0892964
0.0787533
0.0693759
0.0610362
0.0536185
0.0470189
0.0411436
0.0359079
0.0312354
0.027057
0.0233099
0.0199373
0.0168872
0.014112
0.0115679
0.00921407
0.00701252
0.00492725
0.0029239
0.000969245
186.113
174.166
162.865
152.184
142.099
132.583
123.613
115.164
107.213
99.736
92.7116
86.1177
79.933
74.1371
68.71
63.6327
58.8864
54.4534
50.3164
46.4589
42.865
39.5195
36.4079
33.5162
30.831
28.3397
26.0302
23.891
21.9112
20.0804
18.3888
16.8271
15.3866
14.0589
12.8362
11.7111
10.6767
9.72638
8.85413
8.05413
7.321
6.64969
6.03549
5.474
4.9611
4.49297
4.06603
3.67698
3.32274
3.00045
2.70745
2.44131
2.19974
1.98065
1.7821
1.60231
1.43963
1.29255
1.15967
1.03972
0.931521
0.833994
0.746154
0.6671
0.596005
0.532116
0.474746
0.423267
0.377108
0.335749
0.298718
0.265585
0.235961
0.209491
0.185856
0.164767
0.145959
0.129197
0.114266
0.100972
0.0891419
0.078617
0.0692559
0.0609305
0.0535257
0.0469376
0.0410725
0.0358458
0.0311814
0.0270102
0.0232696
0.0199029
0.016858
0.0140876
0.0115479
0.00919814
0.0070004
0.00491873
0.00291884
0.00096757
185.744
173.82
162.542
151.883
141.817
132.321
123.368
114.936
107
99.5383
92.5278
85.947
79.7745
73.9901
68.5738
63.5065
58.7697
54.3455
50.2167
46.3668
42.7801
39.4412
36.3357
33.4497
30.7699
28.2835
25.9786
23.8436
21.8677
20.0405
18.3523
16.7937
15.3561
14.031
12.8107
11.6878
10.6555
9.7071
8.83657
8.03816
7.30648
6.63651
6.02353
5.46315
4.95127
4.48406
4.05797
3.6697
3.31616
2.9945
2.70209
2.43647
2.19538
1.97672
1.77857
1.59913
1.43678
1.28999
1.15737
1.03766
0.929675
0.832341
0.744675
0.665778
0.594824
0.531062
0.473805
0.422428
0.376361
0.335084
0.298126
0.265059
0.235493
0.209076
0.185488
0.16444
0.14567
0.128941
0.11404
0.100772
0.0889654
0.0784614
0.0691188
0.0608099
0.0534198
0.0468447
0.0409912
0.0357749
0.0311197
0.0269567
0.0232236
0.0198635
0.0168247
0.0140598
0.011525
0.00917995
0.00698655
0.004909
0.00291307
0.000965656
185.329
173.432
162.179
151.543
141.5
132.025
123.093
114.679
106.761
99.316
92.3212
85.755
79.5964
73.8249
68.4207
63.3647
58.6384
54.2241
50.1045
46.2633
42.6845
39.3531
36.2546
33.375
30.7011
28.2203
25.9206
23.7904
21.8189
19.9958
18.3113
16.7562
15.3218
13.9997
12.7821
11.6617
10.6317
9.68542
8.81684
8.02021
7.29017
6.62169
6.01008
5.45095
4.94021
4.47405
4.04891
3.6615
3.30875
2.98781
2.69605
2.43103
2.19047
1.97231
1.7746
1.59556
1.43357
1.28711
1.15479
1.03534
0.927599
0.830483
0.743013
0.664291
0.593496
0.529876
0.472748
0.421485
0.375521
0.334336
0.297461
0.264467
0.234968
0.208609
0.185074
0.164073
0.145345
0.128653
0.113785
0.100548
0.0887669
0.0782863
0.0689646
0.0606743
0.0533006
0.0467402
0.0408997
0.0356951
0.0310503
0.0268966
0.0231718
0.0198192
0.0167872
0.0140284
0.0114994
0.00915949
0.00697098
0.00489806
0.00290658
0.000963504
184.868
173.001
161.776
151.167
141.149
131.697
122.787
114.394
106.496
99.0693
92.0918
85.5419
79.3986
73.6414
68.2506
63.2072
58.4927
54.0894
49.98
46.1483
42.5785
39.2554
36.1645
33.2921
30.6249
28.1502
25.8561
23.7312
21.7647
19.9461
18.2658
16.7146
15.2837
13.9649
12.7503
11.6328
10.6053
9.66136
8.79493
8.00028
7.27205
6.60524
5.99515
5.43741
4.92794
4.46293
4.03885
3.6524
3.30053
2.98039
2.68936
2.42499
2.18503
1.96741
1.77019
1.5916
1.43001
1.28391
1.15192
1.03277
0.925295
0.82842
0.741167
0.662641
0.592022
0.52856
0.471573
0.420438
0.374588
0.333506
0.296722
0.26381
0.234384
0.208091
0.184615
0.163666
0.144984
0.128334
0.113503
0.100298
0.0885465
0.078092
0.0687934
0.0605237
0.0531683
0.0466242
0.0407982
0.0356065
0.0309733
0.0268299
0.0231143
0.01977
0.0167455
0.0139936
0.0114708
0.00913677
0.00695369
0.00488592
0.00289937
0.000961115
184.362
172.527
161.333
150.753
140.762
131.336
122.451
114.081
106.204
98.798
91.8397
85.3077
79.1812
73.4398
68.0638
63.0342
58.3326
53.9413
49.8432
46.022
42.4619
39.1479
36.0655
33.2009
30.541
28.0731
25.7854
23.6663
21.7051
19.8915
18.2158
16.6688
15.2418
13.9266
12.7154
11.6009
10.5762
9.63491
8.77085
7.97838
7.25214
6.58715
5.97873
5.42252
4.91444
4.45071
4.02779
3.6424
3.29149
2.97223
2.68199
2.41835
2.17905
1.96202
1.76534
1.58724
1.42609
1.2804
1.14877
1.02995
0.922762
0.826152
0.739139
0.660827
0.590401
0.527114
0.470283
0.419288
0.373563
0.332593
0.29591
0.263089
0.233743
0.207522
0.18411
0.163218
0.144587
0.127983
0.113192
0.100024
0.0883043
0.0778784
0.0686052
0.0603581
0.0530229
0.0464967
0.0406867
0.0355092
0.0308886
0.0267566
0.0230511
0.019716
0.0166997
0.0139554
0.0114395
0.0091118
0.00693469
0.00487256
0.00289145
0.000958488
183.811
172.011
160.85
150.302
140.341
130.943
122.084
113.74
105.887
98.5024
91.5649
85.0525
78.9443
73.2201
67.8601
62.8456
58.1581
53.7799
49.6941
45.8843
42.3349
39.0308
35.9576
33.1016
30.4496
27.9891
25.7082
23.5955
21.6401
19.832
18.1613
16.619
15.1962
13.885
12.6774
11.5662
10.5446
9.60608
8.74461
7.95451
7.23045
6.56744
5.96084
5.4063
4.89974
4.4374
4.01574
3.63151
3.28165
2.96334
2.67397
2.41111
2.17253
1.95615
1.76006
1.58249
1.42183
1.27657
1.14533
1.02686
0.920002
0.823681
0.736928
0.658851
0.588635
0.525537
0.468876
0.418034
0.372446
0.331598
0.295025
0.262302
0.233044
0.206901
0.183559
0.16273
0.144155
0.1276
0.112854
0.0997245
0.0880403
0.0776456
0.0684002
0.0601777
0.0528644
0.0463577
0.0405651
0.035403
0.0307963
0.0266766
0.0229822
0.0196571
0.0166499
0.0139137
0.0114053
0.00908457
0.00691397
0.00485801
0.00288281
0.000955625
183.214
171.453
160.328
149.814
139.885
130.518
121.688
113.37
105.543
98.1825
91.2675
84.7762
78.6879
72.9823
67.6397
62.6415
57.9692
53.6052
49.5327
45.7353
42.1974
38.904
35.8408
32.9941
30.3507
27.8982
25.6247
23.5188
21.5698
19.7676
18.1023
16.565
15.1469
13.8399
12.6362
11.5286
10.5103
9.57488
8.71621
7.92867
7.20696
6.54612
5.94149
5.38874
4.88383
4.42299
4.0027
3.61971
3.27099
2.95372
2.66529
2.40328
2.16548
1.9498
1.75434
1.57735
1.41721
1.27242
1.14161
1.02353
0.917014
0.821006
0.734535
0.656712
0.586724
0.523831
0.467354
0.416677
0.371236
0.330522
0.294067
0.26145
0.232287
0.20623
0.182963
0.162202
0.143687
0.127186
0.112487
0.0994009
0.0877546
0.0773936
0.0681782
0.0599824
0.0526929
0.0462073
0.0404335
0.0352882
0.0306964
0.0265901
0.0229077
0.0195933
0.0165958
0.0138686
0.0113683
0.00905511
0.00689155
0.00484225
0.00287346
0.000952526
182.571
170.852
159.766
149.289
139.395
130.061
121.261
112.973
105.173
97.8384
90.9476
84.4791
78.4121
72.7264
67.4027
62.4219
57.766
53.4174
49.3591
45.575
42.0495
38.7676
35.7152
32.8784
30.2443
27.8004
25.5349
23.4364
21.4942
19.6983
18.0389
16.5069
15.0938
13.7914
12.5919
11.4882
10.4735
9.54132
8.68566
7.90088
7.1817
6.52317
5.92066
5.36985
4.86671
4.40748
3.98867
3.60703
3.25952
2.94336
2.65594
2.39486
2.15789
1.94296
1.7482
1.57183
1.41224
1.26796
1.13761
1.01994
0.913801
0.818129
0.731961
0.65441
0.584668
0.521995
0.465716
0.415217
0.369936
0.329364
0.293037
0.260534
0.231473
0.205507
0.182322
0.161634
0.143184
0.126741
0.112093
0.0990527
0.0874472
0.0771225
0.0679394
0.0597724
0.0525084
0.0460455
0.0402919
0.0351646
0.0305889
0.026497
0.0228275
0.0195247
0.0165377
0.01382
0.0113285
0.00902341
0.00686742
0.0048253
0.0028634
0.000949191
181.884
170.209
159.165
148.727
138.87
129.571
120.805
112.548
104.777
97.4701
90.6052
84.1611
78.117
72.4527
67.149
62.187
57.5486
53.2163
49.1733
45.4034
41.8912
38.6217
35.5807
32.7547
30.1305
27.6958
25.4388
23.3482
21.4133
19.6241
17.971
16.4448
15.037
13.7394
12.5445
11.445
10.4341
9.5054
8.65296
7.87114
7.15467
6.49862
5.89837
5.34964
4.84839
4.39089
3.97366
3.59345
3.24726
2.93228
2.64595
2.38585
2.14976
1.93565
1.74162
1.56591
1.40693
1.26319
1.13333
1.0161
0.910362
0.81505
0.729206
0.651948
0.582468
0.520031
0.463964
0.413654
0.368544
0.328124
0.291934
0.259554
0.230602
0.204734
0.181636
0.161025
0.142645
0.126264
0.111672
0.0986801
0.0871183
0.0768324
0.0676839
0.0595476
0.0523109
0.0458723
0.0401403
0.0350324
0.0304739
0.0263973
0.0227417
0.0194513
0.0164756
0.013768
0.0112859
0.00898949
0.0068416
0.00480716
0.00285264
0.000945623
181.152
169.523
158.524
148.128
138.312
129.05
120.318
112.095
104.355
97.0778
90.2405
83.8224
77.8025
72.1611
66.8787
61.9367
57.3169
53.0021
48.9754
45.2207
41.7226
38.4662
35.4375
32.6228
30.0092
27.5843
25.3364
23.2542
21.3271
19.5451
17.8986
16.3786
14.9765
13.6841
12.494
11.3989
10.3921
9.46714
8.61814
7.83946
7.12587
6.47246
5.87463
5.32811
4.82888
4.37322
3.95767
3.57899
3.23419
2.92048
2.6353
2.37624
2.14111
1.92786
1.73461
1.55961
1.40127
1.2581
1.12877
1.01202
0.906698
0.81177
0.726272
0.649324
0.580124
0.517938
0.462097
0.41199
0.367061
0.326804
0.29076
0.25851
0.229675
0.20391
0.180905
0.160378
0.142071
0.125756
0.111222
0.0982831
0.0867679
0.0765234
0.0674116
0.059308
0.0521005
0.0456878
0.0399789
0.0348915
0.0303513
0.0262912
0.0226502
0.0193731
0.0164093
0.0137127
0.0112405
0.00895335
0.0068141
0.00478783
0.00284117
0.000941821
180.375
168.797
157.844
147.493
137.718
128.496
119.802
111.614
103.908
96.6615
89.8536
83.4629
77.4689
71.8516
66.5919
61.6711
57.0712
52.7748
48.7654
45.0268
41.5437
38.3013
35.2856
32.4829
29.8805
27.466
25.2277
23.1545
21.2357
19.4613
17.8219
16.3084
14.9122
13.6255
12.4404
11.35
10.3475
9.42655
8.58118
7.80584
7.09532
6.44471
5.84944
5.30526
4.80817
4.35447
3.9407
3.56364
3.22032
2.90796
2.624
2.36606
2.13193
1.9196
1.72717
1.55292
1.39526
1.25271
1.12393
1.00768
0.902811
0.80829
0.723158
0.64654
0.577637
0.515718
0.460116
0.410223
0.365487
0.325403
0.289513
0.257401
0.22869
0.203036
0.18013
0.15969
0.141462
0.125217
0.110746
0.0978619
0.086396
0.0761954
0.0671227
0.0590539
0.0518772
0.0454921
0.0398076
0.034742
0.0302213
0.0261785
0.0225532
0.0192901
0.016339
0.0136539
0.0111924
0.00891499
0.00678491
0.00476733
0.002829
0.000937787
179.554
168.028
157.125
146.821
137.091
127.911
119.257
111.106
103.435
96.2214
89.4445
83.0829
77.1162
71.5245
66.2887
61.3903
56.8113
52.5345
48.5433
44.8217
41.3545
38.1269
35.1249
32.335
29.7445
27.341
25.1128
23.049
21.139
19.3727
17.7407
16.2341
14.8443
13.5634
12.3838
11.2984
10.3004
9.38363
8.54211
7.7703
7.06301
6.41536
5.82281
5.2811
4.78628
4.33464
3.92275
3.54741
3.20566
2.89472
2.61205
2.35528
2.12223
1.91086
1.7193
1.54585
1.38891
1.24701
1.11881
1.00309
0.898701
0.80461
0.719866
0.643597
0.575007
0.51337
0.458021
0.408356
0.363823
0.323922
0.288195
0.25623
0.227649
0.202112
0.17931
0.158963
0.140819
0.124647
0.110242
0.0974166
0.0860028
0.0758487
0.0668173
0.0587852
0.0516412
0.0452851
0.0396265
0.0345839
0.0300838
0.0260594
0.0224506
0.0192023
0.0162647
0.0135918
0.0111415
0.00887444
0.00675405
0.00474564
0.00281613
0.000933521
178.688
167.218
156.368
146.114
136.43
127.294
118.682
110.57
102.936
95.7575
89.0133
82.6824
76.7444
71.1797
65.9691
61.0943
56.5374
52.2813
48.3093
44.6057
41.1551
37.9431
34.9556
32.1791
29.6011
27.2092
24.9918
22.9379
21.0371
19.2793
17.6552
16.1558
14.7728
13.498
12.3241
11.2439
10.2507
9.33839
8.50093
7.73284
7.02896
6.38443
5.79474
5.25564
4.76321
4.31375
3.90384
3.53031
3.1902
2.88077
2.59946
2.34393
2.112
1.90164
1.71102
1.5384
1.38221
1.241
1.11342
0.998254
0.894369
0.800732
0.716396
0.640495
0.572236
0.510896
0.455814
0.406388
0.36207
0.322361
0.286806
0.254995
0.226552
0.201138
0.178446
0.158197
0.14014
0.124046
0.109711
0.0969472
0.0855884
0.0754832
0.0664954
0.058502
0.0513924
0.0450669
0.0394356
0.0344173
0.0299388
0.0259339
0.0223424
0.0191098
0.0161864
0.0135264
0.0110878
0.0088317
0.00672152
0.00472278
0.00280257
0.000929025
177.779
166.367
155.572
145.37
135.736
126.646
118.078
110.007
102.412
95.27
88.5601
82.2614
76.3537
70.8173
65.6333
60.7833
56.2496
52.0151
48.0634
44.3786
40.9456
37.7499
34.7776
32.0153
29.4504
27.0706
24.8645
22.8211
20.93
19.1812
17.5653
16.0736
14.6976
13.4293
12.2614
11.1867
10.1986
9.29085
8.45765
7.69348
6.99318
6.35193
5.76524
5.22889
4.73896
4.29178
3.88397
3.51234
3.17396
2.8661
2.58623
2.332
2.10124
1.89196
1.70231
1.53057
1.37517
1.23468
1.10775
0.993172
0.889816
0.796656
0.712749
0.637235
0.569323
0.508295
0.453493
0.404319
0.360227
0.32072
0.285347
0.253697
0.225399
0.200115
0.177538
0.157392
0.139427
0.123415
0.109152
0.0964538
0.0851529
0.0750992
0.066157
0.0582043
0.0511309
0.0448376
0.0392349
0.0342422
0.0297865
0.025802
0.0222288
0.0190126
0.016104
0.0134576
0.0110314
0.00878677
0.00668733
0.00469876
0.00278831
0.0009243
176.825
165.474
154.737
144.59
135.008
125.967
117.445
109.417
101.863
94.759
88.0851
81.8202
75.9442
70.4375
65.2812
60.4573
55.9479
51.7361
47.8056
44.1405
40.726
37.5474
34.5911
31.8436
29.2924
26.9254
24.7312
22.6987
20.8177
19.0783
17.4711
15.9874
14.6187
13.3573
12.1956
11.1266
10.1439
9.24101
8.41229
7.65221
6.95567
6.31786
5.73432
5.20084
4.71354
4.26877
3.86314
3.4935
3.15694
2.85073
2.57236
2.31949
2.08997
1.88182
1.69318
1.52236
1.3678
1.22806
1.10181
0.987846
0.885044
0.792383
0.708927
0.633817
0.56627
0.505569
0.451062
0.402151
0.358295
0.319
0.283817
0.252337
0.22419
0.199041
0.176586
0.156548
0.138679
0.122753
0.108567
0.0959367
0.0846964
0.0746965
0.0658023
0.0578923
0.0508568
0.0445972
0.0390246
0.0340587
0.0296269
0.0256637
0.0221096
0.0189107
0.0160177
0.0133854
0.0109723
0.00873968
0.00665149
0.00467358
0.00277337
0.000919346
175.828
164.541
153.865
143.775
134.246
125.257
116.782
108.8
101.288
94.2246
87.5884
81.3588
75.5159
70.0402
64.9131
60.1163
55.6324
51.4443
47.536
43.8916
40.4963
37.3357
34.396
31.664
29.1272
26.7736
24.5917
22.5707
20.7003
18.9707
17.3726
15.8972
14.5363
13.2819
12.1268
11.0639
10.0867
9.1889
8.36485
7.60906
6.91644
6.28223
5.70198
5.17151
4.68696
4.24469
3.84135
3.4738
3.13914
2.83465
2.55785
2.30641
2.07819
1.87121
1.68363
1.51377
1.36009
1.22113
1.0956
0.982276
0.880053
0.787915
0.70493
0.630243
0.563077
0.502719
0.448518
0.399884
0.356275
0.317202
0.282216
0.250914
0.222926
0.197919
0.17559
0.155666
0.137897
0.122061
0.107955
0.0953959
0.0842189
0.0742755
0.0654314
0.0575659
0.0505701
0.0443459
0.0388047
0.0338667
0.0294599
0.025519
0.021985
0.0188041
0.0159274
0.01331
0.0109105
0.00869043
0.006614
0.00464724
0.00275774
0.000914166
174.787
163.567
152.954
142.924
133.452
124.515
116.091
108.156
100.689
93.667
87.07
80.8773
75.069
69.6257
64.5289
59.7605
55.3031
51.1399
47.2546
43.6318
40.2566
37.1147
34.1924
31.4766
28.9548
26.6151
24.4462
22.4371
20.5778
18.8584
17.2698
15.8031
14.4503
13.2033
12.055
10.9984
10.027
9.13452
8.31534
7.56403
6.87551
6.24506
5.66823
5.14091
4.65922
4.21957
3.81862
3.45324
3.12056
2.81788
2.54271
2.29276
2.06589
1.86013
1.67367
1.50482
1.35204
1.21391
1.08912
0.976463
0.874846
0.783253
0.700758
0.626514
0.559745
0.499744
0.445864
0.397518
0.354167
0.315325
0.280547
0.24943
0.221607
0.196748
0.174552
0.154745
0.137082
0.121339
0.107316
0.0948315
0.0837207
0.0738361
0.0650444
0.0572254
0.050271
0.0440836
0.0385751
0.0336664
0.0292856
0.0253681
0.021855
0.0186929
0.0158332
0.0132313
0.0108459
0.00863903
0.00657489
0.00461976
0.00274143
0.000908759
173.704
162.553
152.006
142.038
132.625
123.743
115.371
107.486
100.064
93.0862
86.5302
80.3759
74.6035
69.194
64.1288
59.39
54.9602
50.8228
46.9616
43.3613
40.007
36.8846
33.9804
31.2815
28.7753
26.4501
24.2946
22.298
20.4502
18.7415
17.1627
15.7051
14.3607
13.1215
11.9803
10.9302
9.96479
9.07788
8.26379
7.51713
6.83288
6.20634
5.63309
5.10904
4.63033
4.19341
3.79494
3.43184
3.10121
2.80041
2.52695
2.27855
2.05308
1.8486
1.66329
1.49549
1.34366
1.20638
1.08236
0.970409
0.869422
0.778397
0.696414
0.62263
0.556275
0.496646
0.4431
0.395053
0.351972
0.31337
0.278808
0.247883
0.220234
0.195529
0.17347
0.153786
0.136232
0.120587
0.106651
0.0942438
0.0832018
0.0733785
0.0646412
0.0568708
0.0499594
0.0438104
0.0383361
0.0334578
0.0291042
0.0252109
0.0217195
0.0185771
0.0157351
0.0131493
0.0107787
0.0085855
0.00653415
0.00459113
0.00272444
0.000903129
172.577
161.499
151.02
141.116
131.764
122.941
114.623
106.789
99.4155
92.4825
85.969
79.8546
74.1197
68.7453
63.7129
59.0048
54.6038
50.4932
46.6571
43.0801
39.7476
36.6454
33.76
31.0786
28.5887
26.2786
24.137
22.1534
20.3176
18.6199
17.0514
15.6033
14.2675
13.0364
11.9026
10.8593
9.90017
9.01901
8.21019
7.46838
6.78857
6.16609
5.59656
5.0759
4.6003
4.16622
3.77033
3.40958
3.0811
2.78225
2.51056
2.26377
2.03977
1.83661
1.6525
1.48579
1.33494
1.19856
1.07534
0.964116
0.863784
0.77335
0.691898
0.618592
0.552668
0.493425
0.440227
0.392492
0.349689
0.311338
0.277
0.246276
0.218806
0.194261
0.172345
0.152788
0.135349
0.119805
0.10596
0.0936327
0.0826624
0.0729027
0.0642222
0.0565021
0.0496356
0.0435264
0.0380876
0.0332409
0.0289155
0.0250475
0.0215788
0.0184567
0.0156331
0.0130641
0.0107089
0.00852986
0.0064918
0.00456138
0.00270679
0.000897275
171.408
160.405
149.997
140.16
130.872
122.108
113.847
106.065
98.742
91.856
85.3866
79.3136
73.6176
68.2796
63.2813
58.6051
54.2339
50.1511
46.341
42.7883
39.4783
36.3971
33.5313
30.868
28.395
26.1005
23.9735
22.0033
20.1799
18.4938
16.9359
15.4976
14.1709
12.9481
11.822
10.7858
9.8331
8.95791
8.15457
7.41778
6.74258
6.12431
5.55864
5.04151
4.56914
4.13799
3.74479
3.38648
3.06023
2.7634
2.49355
2.24843
2.02595
1.82417
1.64131
1.47572
1.3259
1.19044
1.06806
0.957586
0.857933
0.768111
0.687211
0.614402
0.548924
0.490083
0.437245
0.389833
0.347321
0.309229
0.275124
0.244608
0.217324
0.192945
0.171178
0.151754
0.134432
0.118994
0.105242
0.0929986
0.0821026
0.072409
0.0637872
0.0561194
0.0492994
0.0432316
0.0378297
0.0330158
0.0287197
0.0248779
0.0214326
0.0183317
0.0155273
0.0129756
0.0106363
0.0084721
0.00644784
0.00453049
0.00268846
0.0008912
170.197
159.271
148.937
139.17
129.947
121.245
113.042
105.315
98.0441
91.2068
84.7831
78.753
73.0973
67.797
62.8341
58.1909
53.8506
49.7967
46.0135
42.4858
39.1993
36.1399
33.2943
30.6499
28.1943
25.9161
23.8041
21.8478
20.0373
18.3631
16.8162
15.3881
14.0707
12.8566
11.7384
10.7096
9.7636
8.8946
8.09694
7.36536
6.69493
6.08103
5.51936
5.00588
4.53685
4.10875
3.71833
3.36255
3.0386
2.74387
2.47593
2.23254
2.01163
1.81128
1.62971
1.4653
1.31653
1.18203
1.06051
0.950818
0.85187
0.762683
0.682355
0.610061
0.545045
0.48662
0.434155
0.387078
0.344866
0.307044
0.273179
0.24288
0.215788
0.191582
0.169968
0.150681
0.133482
0.118153
0.104499
0.0923415
0.0815225
0.0718974
0.0633366
0.0557229
0.0489511
0.0429262
0.0375624
0.0327825
0.0285168
0.0247021
0.0212812
0.0182022
0.0154176
0.0128839
0.0105612
0.00841226
0.0064023
0.00449849
0.00266947
0.000884905
168.943
158.098
147.84
138.145
128.99
120.352
112.209
104.54
97.3221
90.5351
84.1587
78.1731
72.5589
67.2977
62.3713
57.7624
53.454
49.4299
45.6746
42.173
38.9106
35.8737
33.0491
30.4242
27.9867
25.7252
23.6288
21.6869
19.8897
18.2279
16.6923
15.2747
13.9671
12.7619
11.652
10.6307
9.6917
8.8291
8.03731
7.31112
6.64562
6.03625
5.47871
4.96902
4.50344
4.07849
3.69094
3.33779
3.01622
2.72366
2.4577
2.2161
1.99682
1.79794
1.61771
1.4545
1.30683
1.17332
1.0527
0.943817
0.845597
0.757067
0.67733
0.605568
0.541032
0.483037
0.430959
0.384228
0.342327
0.304783
0.271168
0.241091
0.214199
0.190171
0.168717
0.149572
0.132499
0.117283
0.103729
0.0916617
0.0809223
0.0713681
0.0628703
0.0553127
0.0485908
0.0426102
0.0372859
0.0325412
0.0283069
0.0245203
0.0211246
0.0180682
0.0153041
0.0127891
0.0104835
0.00835034
0.00635517
0.00446538
0.00264982
0.000878391
167.648
156.886
146.707
137.086
128.001
119.43
111.349
103.738
96.576
89.8411
83.5135
77.5738
72.0027
66.7818
61.8932
57.3196
53.0442
49.051
45.3245
41.8497
38.6123
35.5987
32.7958
30.1909
27.7721
25.528
23.4476
21.5207
19.7373
18.0881
16.5644
15.1576
13.86
12.664
11.5626
10.5492
9.6174
8.76142
7.9757
7.25507
6.59468
5.98998
5.43671
4.93093
4.46892
4.04723
3.66265
3.3122
2.9931
2.70278
2.43886
2.19912
1.98151
1.78416
1.60531
1.44336
1.29682
1.16433
1.04463
0.936582
0.839115
0.751264
0.672138
0.600926
0.536885
0.479334
0.427655
0.381283
0.339703
0.302447
0.26909
0.239243
0.212557
0.188714
0.167423
0.148426
0.131484
0.116384
0.102934
0.0909592
0.0803021
0.0708212
0.0623885
0.0548888
0.0482184
0.0422836
0.0370001
0.0322918
0.02809
0.0243324
0.0209627
0.0179298
0.0151868
0.0126911
0.0104031
0.00828635
0.00630648
0.00443116
0.00262952
0.000871661
166.312
155.636
145.537
135.993
126.981
118.477
110.462
102.911
95.8061
89.1249
82.8478
76.9554
71.4287
66.2494
61.3998
56.8626
52.6214
48.66
44.9631
41.516
38.3045
35.3149
32.5343
29.9502
27.5507
25.3245
23.2607
21.3491
19.5799
17.9439
16.4323
15.0368
13.7495
12.5631
11.4705
10.4651
9.54074
8.69157
7.91212
7.19724
6.54211
5.94222
5.39337
4.89162
4.43329
4.01496
3.63345
3.2858
2.96924
2.68124
2.41942
2.18159
1.96572
1.76994
1.59251
1.43185
1.28648
1.15505
1.03631
0.929116
0.832427
0.745275
0.666781
0.596136
0.532605
0.475513
0.424246
0.378244
0.336995
0.300037
0.266945
0.237336
0.210863
0.18721
0.166089
0.147243
0.130436
0.115457
0.102114
0.0902343
0.0796621
0.0702567
0.0618913
0.0544514
0.0478341
0.0419467
0.0367053
0.0320345
0.0278661
0.0241385
0.0207957
0.0177869
0.0150658
0.01259
0.0103202
0.00822032
0.00625622
0.00439585
0.00260856
0.000864715
164.934
154.347
144.332
134.867
125.929
117.496
109.547
102.059
95.0126
88.3867
82.1616
76.318
70.8371
65.7007
60.8912
56.3916
52.1855
48.257
44.5907
41.1722
37.9872
35.0224
32.2649
29.7022
27.3226
25.1148
23.0681
21.1723
19.4178
17.7953
16.2962
14.9123
13.6357
12.459
11.3755
10.3784
9.46171
8.61958
7.84659
7.13762
6.48792
5.89301
5.3487
4.85111
4.39657
3.98171
3.60336
3.25858
2.94465
2.65903
2.39938
2.16352
1.94944
1.75528
1.57932
1.41999
1.27582
1.14548
1.02772
0.921421
0.825533
0.739103
0.661258
0.591199
0.528194
0.471575
0.420733
0.375111
0.334205
0.297552
0.264734
0.235371
0.209117
0.185659
0.164714
0.146023
0.129356
0.114501
0.101268
0.089487
0.0790025
0.069675
0.0613788
0.0540005
0.047438
0.0415993
0.0364014
0.0317693
0.0276354
0.0239386
0.0206235
0.0176396
0.0149411
0.0124857
0.0102348
0.00815226
0.00620443
0.00435946
0.00258697
0.000857556
163.516
153.019
143.091
133.707
124.846
116.486
108.605
101.182
94.1956
87.6267
81.4551
75.6618
70.228
65.1358
60.3676
55.9068
51.7368
47.842
44.2073
40.8182
37.6606
34.7213
31.9874
29.4468
27.0876
24.8988
22.8697
20.9902
19.2508
17.6423
16.1561
14.784
13.5184
12.3519
11.2777
10.2892
9.38036
8.54547
7.77912
7.07625
6.43214
5.84234
5.30271
4.80939
4.35877
3.94747
3.57238
3.23056
2.91933
2.63617
2.37875
2.14491
1.93267
1.74018
1.56574
1.40778
1.26485
1.13563
1.01889
0.913499
0.818435
0.732748
0.655573
0.586116
0.523653
0.467521
0.417116
0.371886
0.331331
0.294994
0.262458
0.233347
0.207319
0.184063
0.163298
0.144768
0.128244
0.113516
0.100398
0.0887177
0.0783233
0.069076
0.0608511
0.0535363
0.0470303
0.0412417
0.0360884
0.0314962
0.0273978
0.0237328
0.0204462
0.017488
0.0148126
0.0123784
0.0101468
0.00808219
0.0061511
0.00432199
0.00256473
0.000850185
162.057
151.654
141.814
132.514
123.732
115.447
107.636
100.279
93.3554
86.8451
80.7285
74.9869
69.6016
64.5548
59.8292
55.4081
51.2753
47.4153
43.813
40.4541
37.3247
34.4116
31.7021
29.1841
26.846
24.6767
22.6657
20.803
19.0791
17.4849
16.012
14.6522
13.3978
12.2417
11.1771
10.1974
9.29669
8.46924
7.70973
7.01313
6.37476
5.79023
5.25542
4.7665
4.31989
3.91226
3.54051
3.20175
2.89329
2.61265
2.35753
2.12578
1.91544
1.72466
1.55178
1.39522
1.25357
1.1255
1.0098
0.905351
0.811135
0.726213
0.649726
0.580889
0.518983
0.463351
0.413395
0.36857
0.328376
0.292363
0.260117
0.231266
0.20547
0.182422
0.161841
0.143477
0.1271
0.112504
0.0995022
0.0879266
0.0776248
0.06846
0.0603085
0.0530589
0.0466109
0.040874
0.0357666
0.0312153
0.0271535
0.0235212
0.0202639
0.017332
0.0146806
0.012268
0.0100564
0.00801012
0.00609625
0.00428345
0.00254186
0.000842604