/*--------------------------------*- C++ -*----------------------------------*\
| =========                 |                                                 |
| \\      /  F ield         | OpenFOAM: The Open Source CFD Toolbox           |
|  \\    /   O peration     | Version:  2406                                  |
|   \\  /    A nd           | Website:  www.openfoam.com                      |
|    \\/     M anipulation  |                                                 |
\*---------------------------------------------------------------------------*/
FoamFile
{
    version     2.0;
    format      ascii;
    arch        "LSB;label=32;scalar=64";
    class       volScalarField;
    location    "135";
    object      T;
}
// * * * * * * * * * * * * * * * * * * * * * * * * * * * * * * * * * * * * * //

dimensions      [0 0 0 1 0 0 0];

internalField   nonuniform List<scalar> 
20000
(
299.955
299.987
300.016
300.043
300.067
300.089
300.109
300.127
300.142
300.156
300.168
300.178
300.187
300.194
300.2
300.205
300.208
300.211
300.212
300.213
300.212
300.211
300.21
300.207
300.205
300.201
300.198
300.194
300.189
300.185
300.18
300.175
300.17
300.164
300.159
300.154
300.148
300.143
300.137
300.132
300.127
300.121
300.116
300.111
300.106
300.101
300.097
300.092
300.088
300.083
300.079
300.075
300.071
300.067
300.064
300.06
300.057
300.054
300.051
300.048
300.045
300.042
300.04
300.037
300.035
300.033
300.031
300.029
300.027
300.025
300.024
300.022
300.02
300.019
300.018
300.017
300.015
300.014
300.013
300.012
300.011
300.01
300.01
300.009
300.008
300.007
300.007
300.006
300.005
300.005
300.004
300.004
300.003
300.003
300.002
300.002
300.001
300.001
300.001
300
299.864
299.96
300.049
300.129
300.202
300.268
300.327
300.38
300.427
300.468
300.504
300.534
300.561
300.582
300.6
300.614
300.624
300.632
300.636
300.638
300.637
300.634
300.629
300.622
300.614
300.604
300.593
300.581
300.568
300.554
300.539
300.524
300.509
300.493
300.477
300.461
300.445
300.428
300.412
300.396
300.38
300.364
300.349
300.334
300.319
300.304
300.29
300.276
300.263
300.25
300.237
300.225
300.213
300.202
300.191
300.181
300.171
300.161
300.152
300.143
300.135
300.127
300.119
300.112
300.105
300.099
300.092
300.087
300.081
300.076
300.071
300.066
300.061
300.057
300.053
300.049
300.046
300.043
300.039
300.037
300.034
300.031
300.029
300.026
300.024
300.022
300.02
300.018
300.016
300.015
300.013
300.011
300.01
300.008
300.007
300.006
300.004
300.003
300.002
300.001
299.773
299.934
300.081
300.215
300.337
300.447
300.545
300.633
300.711
300.78
300.839
300.891
300.934
300.97
301
301.023
301.04
301.052
301.06
301.062
301.061
301.056
301.048
301.037
301.023
301.006
300.988
300.968
300.946
300.923
300.899
300.874
300.848
300.822
300.795
300.768
300.741
300.714
300.687
300.66
300.633
300.607
300.581
300.556
300.531
300.507
300.483
300.46
300.438
300.416
300.395
300.375
300.356
300.337
300.319
300.301
300.285
300.269
300.253
300.239
300.225
300.212
300.199
300.187
300.175
300.164
300.154
300.144
300.135
300.126
300.118
300.11
300.102
300.095
300.089
300.082
300.077
300.071
300.066
300.061
300.056
300.052
300.048
300.044
300.04
300.037
300.033
300.03
300.027
300.024
300.022
300.019
300.017
300.014
300.012
300.01
300.007
300.005
300.003
300.001
299.683
299.908
300.114
300.301
300.472
300.625
300.763
300.887
300.996
301.091
301.175
301.247
301.307
301.358
301.399
301.432
301.456
301.473
301.483
301.487
301.485
301.478
301.467
301.451
301.431
301.409
301.383
301.355
301.324
301.292
301.258
301.223
301.187
301.15
301.113
301.075
301.037
300.999
300.961
300.924
300.886
300.85
300.814
300.778
300.743
300.71
300.676
300.644
300.613
300.583
300.553
300.525
300.498
300.471
300.446
300.422
300.398
300.376
300.355
300.334
300.315
300.296
300.278
300.261
300.245
300.23
300.216
300.202
300.189
300.176
300.165
300.154
300.143
300.133
300.124
300.115
300.107
300.099
300.092
300.085
300.079
300.072
300.067
300.061
300.056
300.051
300.047
300.042
300.038
300.034
300.03
300.027
300.023
300.02
300.017
300.013
300.01
300.007
300.004
300.001
299.592
299.881
300.146
300.387
300.606
300.804
300.981
301.139
301.28
301.403
301.51
301.602
301.68
301.745
301.798
301.84
301.871
301.893
301.906
301.911
301.909
301.9
301.885
301.865
301.84
301.81
301.777
301.741
301.702
301.661
301.617
301.572
301.526
301.478
301.43
301.382
301.333
301.284
301.235
301.187
301.139
301.092
301.046
301
300.956
300.912
300.869
300.828
300.788
300.749
300.711
300.675
300.64
300.606
300.573
300.542
300.512
300.483
300.456
300.43
300.404
300.38
300.358
300.336
300.315
300.296
300.277
300.259
300.243
300.227
300.212
300.198
300.184
300.172
300.16
300.148
300.138
300.128
300.118
300.109
300.101
300.093
300.086
300.079
300.072
300.066
300.06
300.054
300.049
300.044
300.039
300.034
300.03
300.025
300.021
300.017
300.013
300.009
300.006
300.002
299.502
299.855
300.179
300.473
300.741
300.982
301.199
301.392
301.563
301.714
301.845
301.957
302.053
302.132
302.197
302.248
302.286
302.313
302.329
302.335
302.332
302.321
302.303
302.278
302.248
302.212
302.171
302.127
302.079
302.029
301.976
301.921
301.864
301.806
301.747
301.688
301.628
301.569
301.509
301.45
301.392
301.334
301.278
301.222
301.167
301.114
301.062
301.012
300.963
300.915
300.869
300.825
300.782
300.74
300.701
300.662
300.626
300.591
300.557
300.525
300.494
300.465
300.437
300.41
300.385
300.361
300.338
300.317
300.296
300.277
300.259
300.241
300.225
300.21
300.195
300.181
300.168
300.156
300.145
300.134
300.123
300.114
300.105
300.096
300.088
300.08
300.073
300.066
300.06
300.053
300.047
300.042
300.036
300.031
300.026
300.021
300.016
300.012
300.007
300.002
299.412
299.829
300.211
300.559
300.875
301.16
301.416
301.644
301.847
302.024
302.179
302.312
302.425
302.519
302.595
302.656
302.701
302.732
302.751
302.758
302.755
302.742
302.72
302.691
302.655
302.613
302.565
302.513
302.456
302.396
302.334
302.269
302.202
302.133
302.064
301.994
301.924
301.853
301.783
301.713
301.644
301.576
301.509
301.443
301.379
301.316
301.255
301.195
301.137
301.081
301.027
300.974
300.923
300.874
300.828
300.782
300.739
300.698
300.658
300.62
300.584
300.549
300.516
300.485
300.455
300.427
300.4
300.374
300.35
300.327
300.306
300.285
300.266
300.248
300.23
300.214
300.199
300.184
300.171
300.158
300.146
300.134
300.124
300.113
300.104
300.095
300.086
300.078
300.07
300.063
300.056
300.049
300.043
300.037
300.031
300.025
300.019
300.014
300.008
300.003
299.322
299.803
300.243
300.645
301.009
301.338
301.633
301.896
302.13
302.335
302.513
302.666
302.796
302.905
302.993
303.062
303.114
303.151
303.172
303.181
303.177
303.162
303.137
303.103
303.062
303.013
302.958
302.898
302.833
302.764
302.691
302.616
302.539
302.46
302.38
302.299
302.218
302.137
302.056
301.976
301.896
301.818
301.74
301.665
301.59
301.518
301.447
301.378
301.311
301.247
301.184
301.123
301.065
301.008
300.954
300.902
300.852
300.804
300.759
300.715
300.673
300.633
300.595
300.559
300.525
300.492
300.461
300.432
300.404
300.377
300.352
300.329
300.307
300.286
300.266
300.247
300.229
300.213
300.197
300.182
300.168
300.155
300.143
300.131
300.12
300.109
300.099
300.09
300.081
300.073
300.065
300.057
300.05
300.042
300.035
300.029
300.022
300.016
300.009
300.003
299.232
299.777
300.275
300.73
301.143
301.515
301.849
302.148
302.412
302.644
302.846
303.02
303.167
303.29
303.39
303.468
303.527
303.568
303.593
303.602
303.598
303.581
303.553
303.515
303.468
303.412
303.35
303.282
303.208
303.13
303.048
302.963
302.876
302.786
302.696
302.604
302.512
302.42
302.329
302.238
302.148
302.059
301.971
301.885
301.801
301.719
301.639
301.561
301.485
301.412
301.341
301.272
301.206
301.142
301.081
301.022
300.965
300.911
300.859
300.81
300.762
300.717
300.674
300.633
300.594
300.557
300.522
300.489
300.457
300.427
300.399
300.372
300.347
300.323
300.301
300.28
300.26
300.241
300.223
300.206
300.19
300.176
300.161
300.148
300.136
300.124
300.113
300.102
300.092
300.082
300.073
300.064
300.056
300.048
300.04
300.033
300.025
300.018
300.011
300.004
299.142
299.75
300.308
300.815
301.276
301.692
302.065
302.399
302.694
302.953
303.179
303.373
303.537
303.674
303.786
303.874
303.94
303.985
304.013
304.023
304.018
303.999
303.968
303.925
303.873
303.811
303.741
303.665
303.583
303.496
303.404
303.309
303.212
303.112
303.011
302.909
302.806
302.703
302.601
302.499
302.398
302.299
302.201
302.105
302.012
301.92
301.83
301.743
301.659
301.577
301.497
301.421
301.347
301.276
301.207
301.141
301.078
301.018
300.96
300.904
300.851
300.801
300.753
300.707
300.664
300.622
300.583
300.546
300.511
300.477
300.446
300.416
300.388
300.361
300.336
300.312
300.29
300.269
300.249
300.23
300.213
300.196
300.18
300.166
300.152
300.138
300.126
300.114
300.103
300.092
300.082
300.072
300.063
300.054
300.045
300.036
300.028
300.02
300.012
300.004
299.052
299.724
300.34
300.9
301.409
301.869
302.281
302.649
302.975
303.261
303.51
303.725
303.906
304.058
304.181
304.278
304.351
304.401
304.431
304.443
304.438
304.417
304.382
304.335
304.277
304.209
304.132
304.048
303.957
303.86
303.759
303.655
303.547
303.437
303.325
303.212
303.099
302.985
302.872
302.76
302.649
302.539
302.431
302.325
302.221
302.12
302.021
301.925
301.832
301.741
301.654
301.569
301.487
301.409
301.333
301.26
301.191
301.124
301.06
300.999
300.94
300.885
300.831
300.781
300.733
300.687
300.644
300.603
300.564
300.527
300.492
300.459
300.428
300.399
300.371
300.345
300.32
300.297
300.275
300.254
300.235
300.216
300.199
300.183
300.167
300.153
300.139
300.126
300.113
300.102
300.09
300.08
300.069
300.059
300.05
300.04
300.031
300.022
300.013
300.004
298.963
299.698
300.372
300.985
301.542
302.045
302.496
302.899
303.255
303.568
303.841
304.076
304.274
304.44
304.575
304.681
304.761
304.816
304.849
304.862
304.856
304.833
304.795
304.744
304.68
304.605
304.521
304.429
304.33
304.224
304.114
303.999
303.881
303.761
303.638
303.515
303.391
303.267
303.143
303.02
302.898
302.778
302.66
302.544
302.431
302.32
302.212
302.107
302.004
301.905
301.81
301.717
301.628
301.541
301.459
301.379
301.303
301.23
301.16
301.093
301.029
300.968
300.91
300.855
300.802
300.752
300.705
300.66
300.617
300.577
300.539
300.503
300.469
300.436
300.406
300.377
300.35
300.325
300.301
300.278
300.257
300.237
300.218
300.2
300.183
300.167
300.152
300.138
300.124
300.111
300.099
300.087
300.076
300.065
300.054
300.044
300.034
300.024
300.014
300.005
298.874
299.673
300.404
301.07
301.675
302.22
302.71
303.147
303.535
303.875
304.171
304.426
304.642
304.821
304.968
305.083
305.169
305.23
305.266
305.279
305.273
305.248
305.207
305.151
305.082
305.001
304.91
304.809
304.702
304.587
304.467
304.343
304.214
304.084
303.951
303.817
303.682
303.547
303.413
303.279
303.147
303.017
302.889
302.763
302.64
302.519
302.402
302.288
302.177
302.069
301.965
301.864
301.767
301.674
301.584
301.498
301.415
301.335
301.259
301.187
301.117
301.051
300.988
300.928
300.871
300.817
300.765
300.716
300.67
300.626
300.585
300.546
300.509
300.474
300.441
300.41
300.381
300.353
300.327
300.302
300.279
300.257
300.237
300.217
300.199
300.182
300.165
300.15
300.135
300.121
300.107
300.094
300.082
300.07
300.059
300.048
300.037
300.026
300.016
300.005
298.785
299.647
300.435
301.154
301.807
302.395
302.924
303.396
303.813
304.18
304.5
304.775
305.008
305.202
305.359
305.484
305.577
305.642
305.681
305.695
305.689
305.662
305.617
305.557
305.482
305.395
305.297
305.189
305.072
304.949
304.819
304.685
304.547
304.406
304.262
304.118
303.972
303.827
303.682
303.538
303.395
303.255
303.116
302.981
302.848
302.718
302.591
302.468
302.348
302.232
302.12
302.011
301.907
301.806
301.709
301.616
301.526
301.44
301.358
301.28
301.205
301.134
301.066
301.001
300.94
300.881
300.826
300.773
300.723
300.676
300.631
300.589
300.549
300.511
300.476
300.442
300.411
300.381
300.353
300.326
300.301
300.278
300.255
300.234
300.215
300.196
300.178
300.161
300.145
300.13
300.116
300.102
300.089
300.076
300.063
300.051
300.04
300.028
300.017
300.006
298.697
299.621
300.467
301.238
301.938
302.57
303.137
303.643
304.091
304.485
304.828
305.122
305.372
305.58
305.75
305.883
305.983
306.053
306.094
306.11
306.103
306.074
306.027
305.962
305.882
305.788
305.682
305.566
305.442
305.309
305.17
305.026
304.878
304.726
304.573
304.417
304.261
304.105
303.95
303.795
303.643
303.492
303.343
303.198
303.055
302.916
302.78
302.648
302.519
302.395
302.274
302.158
302.046
301.937
301.833
301.733
301.637
301.545
301.457
301.373
301.293
301.216
301.144
301.074
301.008
300.945
300.886
300.829
300.776
300.725
300.677
300.632
300.589
300.549
300.51
300.474
300.44
300.408
300.378
300.35
300.323
300.298
300.274
300.251
300.23
300.21
300.191
300.173
300.156
300.14
300.124
300.109
300.095
300.081
300.068
300.055
300.043
300.03
300.018
300.006
298.608
299.595
300.499
301.322
302.069
302.744
303.349
303.889
304.368
304.788
305.154
305.469
305.736
305.958
306.139
306.281
306.388
306.462
306.507
306.524
306.516
306.485
306.434
306.365
306.279
306.179
306.067
305.943
305.81
305.668
305.52
305.366
305.208
305.046
304.882
304.716
304.55
304.383
304.217
304.052
303.889
303.728
303.57
303.414
303.262
303.113
302.968
302.827
302.69
302.557
302.428
302.304
302.184
302.068
301.957
301.85
301.748
301.65
301.556
301.466
301.381
301.299
301.221
301.147
301.076
301.009
300.946
300.885
300.828
300.774
300.723
300.675
300.629
300.586
300.545
300.506
300.47
300.436
300.404
300.373
300.345
300.318
300.292
300.268
300.246
300.224
300.204
300.185
300.167
300.149
300.133
300.117
300.102
300.087
300.073
300.059
300.045
300.032
300.019
300.006
298.521
299.57
300.53
301.406
302.2
302.917
303.561
304.135
304.644
305.091
305.479
305.814
306.098
306.334
306.526
306.677
306.791
306.87
306.917
306.935
306.927
306.894
306.84
306.767
306.676
306.569
306.45
306.318
306.176
306.026
305.868
305.705
305.537
305.365
305.19
305.014
304.837
304.66
304.483
304.308
304.134
303.963
303.795
303.629
303.468
303.309
303.155
303.005
302.859
302.718
302.581
302.449
302.322
302.199
302.081
301.967
301.858
301.754
301.654
301.559
301.468
301.381
301.298
301.219
301.144
301.073
301.005
300.941
300.88
300.823
300.769
300.717
300.669
300.623
300.579
300.538
300.5
300.464
300.429
300.397
300.367
300.338
300.311
300.285
300.261
300.238
300.217
300.196
300.177
300.159
300.141
300.124
300.108
300.092
300.077
300.063
300.048
300.034
300.021
300.007
298.433
299.544
300.562
301.489
302.33
303.089
303.771
304.379
304.918
305.391
305.803
306.158
306.458
306.708
306.912
307.072
307.193
307.276
307.326
307.345
307.336
307.302
307.245
307.167
307.07
306.958
306.831
306.692
306.541
306.382
306.215
306.042
305.864
305.682
305.497
305.31
305.123
304.935
304.748
304.563
304.379
304.198
304.019
303.844
303.673
303.505
303.342
303.183
303.028
302.879
302.734
302.594
302.459
302.329
302.204
302.084
301.968
301.858
301.752
301.651
301.554
301.462
301.375
301.291
301.212
301.136
301.065
300.997
300.933
300.872
300.814
300.76
300.708
300.659
300.614
300.57
300.529
300.491
300.455
300.421
300.388
300.358
300.329
300.302
300.277
300.253
300.23
300.208
300.188
300.168
300.149
300.131
300.114
300.098
300.082
300.066
300.051
300.036
300.022
300.007
298.346
299.519
300.593
301.571
302.459
303.261
303.981
304.623
305.191
305.691
306.126
306.5
306.817
307.081
307.296
307.465
307.592
307.681
307.733
307.754
307.744
307.708
307.647
307.565
307.463
307.344
307.211
307.063
306.905
306.737
306.561
306.378
306.19
305.998
305.802
305.605
305.407
305.209
305.012
304.816
304.622
304.431
304.243
304.058
303.877
303.7
303.527
303.36
303.197
303.039
302.886
302.738
302.596
302.458
302.326
302.199
302.078
301.961
301.849
301.743
301.641
301.544
301.451
301.363
301.279
301.199
301.124
301.052
300.984
300.92
300.859
300.802
300.747
300.696
300.648
300.602
300.559
300.518
300.48
300.444
300.41
300.378
300.348
300.319
300.292
300.267
300.242
300.22
300.198
300.177
300.158
300.139
300.121
300.103
300.086
300.07
300.054
300.038
300.023
300.008
298.259
299.494
300.624
301.654
302.588
303.432
304.189
304.865
305.463
305.989
306.447
306.84
307.174
307.452
307.678
307.856
307.99
308.083
308.139
308.16
308.15
308.112
308.048
307.961
307.854
307.729
307.588
307.434
307.267
307.09
306.904
306.712
306.514
306.312
306.106
305.899
305.691
305.482
305.275
305.069
304.864
304.663
304.465
304.27
304.08
303.894
303.712
303.536
303.364
303.198
303.037
302.882
302.732
302.587
302.448
302.315
302.186
302.064
301.946
301.834
301.727
301.624
301.527
301.434
301.346
301.262
301.183
301.107
301.036
300.968
300.904
300.844
300.787
300.733
300.682
300.634
300.588
300.545
300.505
300.467
300.431
300.398
300.366
300.336
300.307
300.281
300.255
300.231
300.208
300.187
300.166
300.146
300.127
300.109
300.091
300.074
300.057
300.04
300.024
300.008
298.173
299.469
300.655
301.736
302.716
303.602
304.397
305.106
305.734
306.286
306.766
307.179
307.53
307.821
308.059
308.246
308.386
308.484
308.542
308.564
308.554
308.514
308.447
308.356
308.244
308.112
307.964
307.802
307.627
307.441
307.247
307.045
306.837
306.624
306.409
306.191
305.973
305.754
305.536
305.32
305.105
304.894
304.686
304.482
304.282
304.087
303.896
303.711
303.531
303.356
303.187
303.024
302.867
302.715
302.569
302.429
302.295
302.166
302.043
301.925
301.812
301.705
301.603
301.505
301.413
301.325
301.241
301.162
301.087
301.016
300.949
300.886
300.826
300.769
300.715
300.665
300.617
300.572
300.53
300.49
300.453
300.417
300.384
300.352
300.323
300.294
300.268
300.243
300.219
300.196
300.174
300.153
300.133
300.114
300.095
300.077
300.06
300.042
300.025
300.008
298.087
299.444
300.685
301.817
302.844
303.771
304.603
305.346
306.003
306.581
307.084
307.516
307.883
308.189
308.437
308.633
308.78
308.882
308.943
308.966
308.955
308.913
308.843
308.748
308.631
308.493
308.338
308.168
307.985
307.791
307.587
307.375
307.158
306.936
306.71
306.482
306.253
306.024
305.796
305.569
305.345
305.124
304.906
304.692
304.483
304.278
304.079
303.885
303.697
303.514
303.337
303.166
303.002
302.843
302.69
302.543
302.403
302.268
302.139
302.015
301.897
301.785
301.678
301.576
301.479
301.387
301.3
301.217
301.138
301.064
300.994
300.927
300.864
300.805
300.749
300.696
300.646
300.599
300.555
300.513
300.474
300.437
300.402
300.369
300.338
300.308
300.28
300.254
300.229
300.205
300.182
300.16
300.14
300.119
300.1
300.081
300.063
300.044
300.027
300.009
298.002
299.419
300.716
301.898
302.971
303.939
304.808
305.584
306.271
306.875
307.4
307.852
308.235
308.554
308.813
309.018
309.171
309.278
309.342
309.366
309.355
309.311
309.238
309.138
309.016
308.872
308.71
308.533
308.341
308.138
307.925
307.704
307.477
307.245
307.009
306.771
306.532
306.293
306.055
305.818
305.584
305.352
305.125
304.902
304.683
304.469
304.261
304.058
303.862
303.671
303.486
303.308
303.135
302.97
302.81
302.657
302.51
302.369
302.234
302.105
301.982
301.865
301.753
301.646
301.545
301.449
301.358
301.271
301.189
301.111
301.038
300.968
300.903
300.841
300.782
300.727
300.675
300.626
300.58
300.536
300.495
300.456
300.42
300.385
300.353
300.322
300.293
300.265
300.239
300.214
300.19
300.168
300.146
300.125
300.104
300.085
300.065
300.046
300.028
300.009
297.917
299.394
300.746
301.979
303.097
304.106
305.013
305.821
306.537
307.167
307.714
308.185
308.584
308.917
309.188
309.401
309.561
309.672
309.738
309.764
309.752
309.706
309.63
309.526
309.398
309.249
309.08
308.895
308.695
308.484
308.262
308.031
307.795
307.552
307.307
307.059
306.809
306.56
306.312
306.065
305.821
305.58
305.342
305.11
304.882
304.659
304.442
304.231
304.025
303.827
303.634
303.448
303.269
303.096
302.929
302.77
302.616
302.469
302.329
302.194
302.066
301.944
301.827
301.716
301.611
301.51
301.415
301.325
301.24
301.159
301.082
301.01
300.941
300.877
300.816
300.758
300.704
300.653
300.604
300.559
300.516
300.476
300.438
300.402
300.368
300.336
300.305
300.277
300.249
300.223
300.198
300.175
300.152
300.13
300.109
300.088
300.068
300.048
300.029
300.01
297.833
299.37
300.777
302.059
303.222
304.273
305.216
306.057
306.802
307.457
308.026
308.516
308.932
309.278
309.559
309.781
309.948
310.063
310.133
310.159
310.147
310.099
310.02
309.912
309.779
309.623
309.448
309.255
309.047
308.827
308.596
308.357
308.11
307.858
307.603
307.344
307.085
306.826
306.567
306.31
306.056
305.805
305.559
305.317
305.079
304.848
304.622
304.402
304.188
303.981
303.781
303.588
303.401
303.221
303.048
302.882
302.722
302.569
302.423
302.283
302.15
302.023
301.901
301.786
301.676
301.572
301.473
301.379
301.29
301.206
301.126
301.05
300.979
300.912
300.849
300.789
300.732
300.679
300.629
300.582
300.537
300.495
300.455
300.418
300.383
300.349
300.318
300.288
300.259
300.232
300.206
300.182
300.158
300.135
300.113
300.092
300.071
300.05
300.03
300.01
297.749
299.346
300.807
302.138
303.347
304.438
305.417
306.291
307.065
307.745
308.337
308.846
309.277
309.637
309.929
310.159
310.332
310.452
310.524
310.552
310.539
310.489
310.407
310.295
310.157
309.995
309.813
309.613
309.397
309.168
308.928
308.68
308.424
308.162
307.896
307.628
307.359
307.089
306.821
306.554
306.29
306.03
305.774
305.522
305.276
305.035
304.8
304.572
304.35
304.135
303.927
303.726
303.532
303.345
303.166
302.993
302.827
302.669
302.517
302.372
302.233
302.101
301.975
301.855
301.741
301.632
301.53
301.432
301.34
301.252
301.169
301.091
301.017
300.947
300.881
300.819
300.761
300.705
300.653
300.604
300.558
300.514
300.473
300.434
300.397
300.363
300.33
300.299
300.269
300.241
300.214
300.189
300.164
300.141
300.118
300.095
300.074
300.052
300.031
300.01
297.666
299.321
300.836
302.218
303.471
304.602
305.617
306.523
307.326
308.031
308.645
309.173
309.62
309.993
310.296
310.535
310.714
310.839
310.913
310.942
310.928
310.877
310.792
310.676
310.532
310.365
310.176
309.968
309.744
309.507
309.258
309
308.735
308.464
308.188
307.91
307.631
307.352
307.073
306.797
306.523
306.253
305.987
305.726
305.471
305.221
304.978
304.741
304.511
304.288
304.072
303.864
303.663
303.469
303.283
303.104
302.932
302.767
302.61
302.459
302.315
302.178
302.048
301.923
301.805
301.693
301.586
301.485
301.389
301.298
301.213
301.131
301.055
300.982
300.914
300.85
300.789
300.731
300.677
300.626
300.578
300.533
300.49
300.45
300.412
300.376
300.342
300.31
300.279
300.25
300.222
300.196
300.17
300.146
300.122
300.099
300.076
300.054
300.032
300.011
297.583
299.297
300.866
302.296
303.593
304.765
305.816
306.754
307.585
308.316
308.951
309.497
309.961
310.347
310.661
310.908
311.094
311.223
311.3
311.329
311.315
311.262
311.174
311.054
310.905
310.732
310.536
310.321
310.089
309.844
309.586
309.319
309.044
308.763
308.478
308.19
307.901
307.612
307.324
307.037
306.754
306.474
306.199
305.929
305.664
305.406
305.154
304.909
304.671
304.44
304.217
304.001
303.793
303.592
303.399
303.214
303.036
302.865
302.702
302.546
302.397
302.255
302.12
301.991
301.869
301.753
301.642
301.538
301.438
301.344
301.256
301.171
301.092
301.017
300.946
300.88
300.817
300.757
300.701
300.649
300.599
300.552
300.508
300.466
300.427
300.39
300.354
300.321
300.289
300.259
300.23
300.203
300.176
300.151
300.126
300.102
300.079
300.056
300.034
300.011
297.501
299.273
300.896
302.374
303.715
304.927
306.014
306.984
307.843
308.598
309.255
309.82
310.299
310.698
311.022
311.278
311.47
311.604
311.683
311.714
311.699
311.645
311.553
311.429
311.275
311.096
310.893
310.671
310.432
310.178
309.912
309.635
309.351
309.061
308.766
308.468
308.169
307.87
307.572
307.276
306.983
306.694
306.409
306.13
305.857
305.59
305.329
305.076
304.829
304.591
304.36
304.137
303.921
303.714
303.514
303.323
303.139
302.963
302.794
302.633
302.479
302.332
302.192
302.059
301.932
301.812
301.698
301.59
301.487
301.39
301.298
301.211
301.129
301.052
300.978
300.909
300.844
300.783
300.725
300.671
300.619
300.571
300.525
300.482
300.441
300.403
300.366
300.332
300.299
300.268
300.238
300.21
300.182
300.156
300.131
300.106
300.082
300.058
300.035
300.012
297.42
299.25
300.925
302.451
303.837
305.087
306.21
307.211
308.099
308.878
309.556
310.14
310.634
311.046
311.382
311.646
311.844
311.982
312.064
312.095
312.081
312.024
311.93
311.801
311.643
311.457
311.248
311.019
310.772
310.51
310.235
309.949
309.656
309.356
309.052
308.744
308.436
308.127
307.819
307.513
307.211
306.912
306.618
306.33
306.048
305.772
305.503
305.241
304.987
304.74
304.502
304.271
304.049
303.835
303.629
303.431
303.241
303.059
302.885
302.719
302.56
302.408
302.264
302.126
301.995
301.871
301.753
301.642
301.536
301.435
301.34
301.251
301.166
301.086
301.01
300.939
300.872
300.809
300.749
300.692
300.639
300.589
300.542
300.498
300.456
300.416
300.378
300.343
300.309
300.277
300.246
300.216
300.188
300.161
300.135
300.109
300.084
300.06
300.036
300.012
297.339
299.226
300.954
302.528
303.957
305.246
306.404
307.437
308.352
309.156
309.856
310.457
310.967
311.392
311.738
312.01
312.215
312.357
312.442
312.474
312.459
312.401
312.303
312.171
312.007
311.816
311.601
311.364
311.109
310.839
310.555
310.261
309.958
309.649
309.335
309.018
308.7
308.381
308.064
307.748
307.436
307.129
306.826
306.528
306.237
305.952
305.675
305.405
305.143
304.889
304.643
304.405
304.176
303.955
303.743
303.538
303.343
303.155
302.975
302.804
302.64
302.483
302.334
302.193
302.058
301.93
301.808
301.693
301.584
301.48
301.382
301.29
301.202
301.12
301.042
300.968
300.899
300.834
300.772
300.714
300.659
300.608
300.559
300.513
300.47
300.429
300.39
300.353
300.318
300.285
300.254
300.223
300.194
300.166
300.139
300.113
300.087
300.062
300.037
300.012
297.259
299.203
300.982
302.604
304.076
305.404
306.597
307.661
308.604
309.432
310.152
310.772
311.298
311.735
312.092
312.372
312.583
312.729
312.816
312.85
312.834
312.774
312.674
312.537
312.369
312.172
311.95
311.706
311.444
311.165
310.873
310.57
310.258
309.94
309.616
309.29
308.962
308.634
308.307
307.982
307.66
307.343
307.031
306.725
306.425
306.132
305.846
305.568
305.298
305.036
304.783
304.538
304.302
304.074
303.855
303.645
303.443
303.25
303.065
302.888
302.719
302.558
302.405
302.259
302.12
301.988
301.863
301.744
301.631
301.525
301.424
301.329
301.239
301.154
301.073
300.998
300.926
300.859
300.795
300.736
300.679
300.626
300.576
300.529
300.484
300.442
300.402
300.364
300.328
300.294
300.261
300.23
300.2
300.171
300.143
300.116
300.09
300.064
300.038
300.013
297.18
299.18
301.011
302.68
304.194
305.561
306.788
307.883
308.853
309.705
310.447
311.084
311.625
312.076
312.442
312.731
312.947
313.098
313.188
313.222
313.206
313.144
313.041
312.901
312.727
312.525
312.296
312.046
311.775
311.489
311.188
310.876
310.556
310.228
309.895
309.559
309.222
308.884
308.547
308.213
307.882
307.556
307.235
306.92
306.611
306.309
306.015
305.729
305.451
305.182
304.921
304.669
304.426
304.192
303.967
303.751
303.543
303.344
303.154
302.972
302.798
302.632
302.474
302.324
302.181
302.046
301.917
301.794
301.679
301.569
301.465
301.367
301.275
301.187
301.104
301.027
300.953
300.884
300.819
300.757
300.699
300.644
300.593
300.544
300.498
300.455
300.414
300.375
300.338
300.302
300.269
300.237
300.206
300.176
300.147
300.119
300.092
300.066
300.039
300.013
297.101
299.157
301.039
302.755
304.311
305.716
306.978
308.103
309.1
309.976
310.738
311.394
311.95
312.413
312.789
313.086
313.309
313.464
313.556
313.592
313.575
313.511
313.405
313.261
313.083
312.875
312.64
312.382
312.104
311.809
311.501
311.18
310.85
310.513
310.171
309.826
309.479
309.132
308.786
308.443
308.103
307.767
307.437
307.113
306.796
306.486
306.183
305.889
305.604
305.327
305.059
304.8
304.55
304.309
304.078
303.855
303.642
303.438
303.242
303.055
302.876
302.706
302.544
302.389
302.242
302.103
301.97
301.845
301.726
301.613
301.506
301.405
301.31
301.22
301.135
301.055
300.98
300.909
300.841
300.778
300.719
300.662
300.609
300.559
300.512
300.467
300.425
300.385
300.347
300.311
300.276
300.243
300.212
300.181
300.151
300.123
300.095
300.067
300.04
300.013
297.023
299.134
301.067
302.829
304.427
305.87
307.166
308.321
309.345
310.245
311.027
311.701
312.271
312.747
313.134
313.438
313.667
313.826
313.921
313.957
313.94
313.875
313.766
313.618
313.435
313.221
312.98
312.715
312.43
312.127
311.81
311.481
311.142
310.796
310.445
310.091
309.734
309.378
309.023
308.67
308.321
307.976
307.637
307.304
306.979
306.66
306.35
306.048
305.754
305.47
305.195
304.929
304.672
304.425
304.188
303.959
303.74
303.53
303.329
303.137
302.954
302.779
302.612
302.453
302.303
302.159
302.023
301.894
301.772
301.656
301.547
301.443
301.345
301.253
301.166
301.084
301.006
300.933
300.864
300.799
300.738
300.68
300.626
300.574
300.526
300.48
300.437
300.395
300.356
300.319
300.284
300.25
300.217
300.186
300.156
300.126
300.097
300.069
300.041
300.014
296.945
299.112
301.095
302.902
304.542
306.023
307.352
308.538
309.588
310.511
311.314
312.004
312.59
313.078
313.475
313.787
314.022
314.185
314.283
314.32
314.302
314.235
314.124
313.972
313.784
313.564
313.317
313.045
312.753
312.442
312.117
311.779
311.432
311.077
310.716
310.353
309.987
309.621
309.257
308.895
308.537
308.183
307.835
307.494
307.16
306.833
306.515
306.205
305.904
305.612
305.33
305.057
304.794
304.54
304.296
304.062
303.837
303.622
303.416
303.219
303.03
302.851
302.68
302.517
302.362
302.215
302.076
301.943
301.818
301.699
301.587
301.481
301.38
301.286
301.196
301.112
301.032
300.957
300.886
300.82
300.757
300.698
300.642
300.589
300.539
300.492
300.448
300.406
300.366
300.327
300.291
300.256
300.223
300.191
300.16
300.129
300.1
300.071
300.042
300.014
296.869
299.09
301.122
302.975
304.656
306.174
307.536
308.751
309.828
310.774
311.597
312.305
312.906
313.406
313.813
314.133
314.374
314.541
314.641
314.679
314.661
314.592
314.478
314.322
314.129
313.904
313.651
313.372
313.072
312.754
312.421
312.074
311.718
311.354
310.985
310.612
310.237
309.862
309.489
309.118
308.751
308.388
308.032
307.682
307.339
307.004
306.678
306.36
306.052
305.753
305.463
305.184
304.914
304.654
304.404
304.164
303.933
303.713
303.501
303.299
303.106
302.922
302.747
302.58
302.422
302.271
302.128
301.992
301.864
301.742
301.627
301.518
301.415
301.318
301.226
301.14
301.058
300.981
300.909
300.84
300.776
300.715
300.658
300.604
300.553