/*--------------------------------*- C++ -*----------------------------------*\
| =========                 |                                                 |
| \\      /  F ield         | OpenFOAM: The Open Source CFD Toolbox           |
|  \\    /   O peration     | Version:  2406                                  |
|   \\  /    A nd           | Website:  www.openfoam.com                      |
|    \\/     M anipulation  |                                                 |
\*---------------------------------------------------------------------------*/
FoamFile
{
    version     2.0;
    format      ascii;
    arch        "LSB;label=32;scalar=64";
    class       volScalarField;
    location    "180";
    object      gradTy;
}
// * * * * * * * * * * * * * * * * * * * * * * * * * * * * * * * * * * * * * //

dimensions      [0 -1 0 1 0 0 0];

internalField   nonuniform List<scalar> 
20000
(
-264.642
-255.357
-246.045
-236.731
-227.439
-218.189
-209.001
-199.894
-190.885
-181.988
-173.217
-164.585
-156.105
-147.786
-139.636
-131.666
-123.88
-116.288
-108.892
-101.699
-94.7105
-87.9311
-81.3627
-75.0072
-68.8656
-62.9385
-57.2258
-51.7271
-46.4413
-41.3672
-36.503
-31.8465
-27.3954
-23.147
-19.0984
-15.2462
-11.5871
-8.11744
-4.83351
-1.73134
1.19312
3.94405
6.52569
8.94238
11.1985
13.2985
15.2469
17.048
18.7065
20.2268
21.6133
22.8705
24.0029
25.0147
25.9104
26.694
27.37
27.9423
28.4151
28.7923
29.0779
29.2756
29.3892
29.4224
29.3787
29.2615
29.0743
28.8203
28.5027
28.1247
27.6891
27.199
26.6571
26.0661
25.4288
24.7476
24.025
23.2634
22.4651
21.6323
20.7672
19.8718
18.9481
17.9981
17.0236
16.0264
15.0082
13.9709
12.9159
11.8449
10.7594
9.66093
8.55097
7.43093
6.30223
5.16624
4.02431
2.87778
1.72797
0.576209
-264.577
-255.294
-245.984
-236.673
-227.383
-218.135
-208.95
-199.845
-190.838
-181.943
-173.174
-164.545
-156.067
-147.749
-139.602
-131.633
-123.85
-116.259
-108.865
-101.673
-94.6871
-87.9094
-81.3426
-74.9887
-68.8486
-62.923
-57.2117
-51.7143
-46.4299
-41.357
-36.494
-31.8387
-27.3887
-23.1413
-19.0936
-15.2424
-11.5842
-8.11544
-4.83231
-1.73091
1.19283
3.94308
6.52408
8.94017
11.1957
13.2952
15.2431
17.0438
18.7019
20.2218
21.608
22.8649
23.997
25.0086
25.904
26.6875
27.3632
27.9354
28.4081
28.7852
29.0707
29.2684
29.382
29.4151
29.3714
29.2543
29.0671
28.8132
28.4957
28.1177
27.6823
27.1923
26.6505
26.0597
25.4225
24.7415
24.0191
23.2577
22.4596
21.627
20.7621
19.8669
18.9434
17.9936
17.0194
16.0224
15.0045
13.9674
12.9127
11.8419
10.7567
9.65854
8.54886
7.4291
6.30068
5.16496
4.02331
2.87707
1.72755
0.576067
-264.446
-255.168
-245.863
-236.556
-227.271
-218.027
-208.847
-199.747
-190.743
-181.853
-173.089
-164.464
-155.99
-147.676
-139.533
-131.568
-123.789
-116.202
-108.812
-101.623
-94.6403
-87.8659
-81.3025
-74.9517
-68.8147
-62.8919
-57.1835
-51.6888
-46.407
-41.3366
-36.476
-31.8229
-27.3752
-23.1299
-19.0842
-15.2349
-11.5785
-8.11143
-4.82993
-1.73005
1.19224
3.94113
6.52086
8.93576
11.1902
13.2887
15.2356
17.0354
18.6927
20.2118
21.5973
22.8536
23.9851
24.9962
25.8912
26.6743
27.3497
27.9216
28.3941
28.771
29.0564
29.2539
29.3675
29.4006
29.3569
29.2399
29.0528
28.799
28.4817
28.1039
27.6686
27.1789
26.6374
26.0468
25.41
24.7293
24.0072
23.2462
22.4485
21.6163
20.7518
19.8571
18.9341
17.9848
17.011
16.0145
14.9971
13.9605
12.9063
11.8361
10.7514
9.65377
8.54464
7.42543
6.29757
5.16241
4.02133
2.87565
1.72669
0.575782
-264.25
-254.978
-245.681
-236.381
-227.102
-217.866
-208.692
-199.599
-190.602
-181.718
-172.961
-164.342
-155.874
-147.567
-139.43
-131.471
-123.697
-116.116
-108.731
-101.548
-94.5702
-87.8008
-81.2423
-74.8962
-68.7637
-62.8454
-57.1412
-51.6506
-46.3726
-41.306
-36.449
-31.7994
-27.3549
-23.1128
-19.0701
-15.2236
-11.5699
-8.10542
-4.82635
-1.72877
1.19136
3.93821
6.51603
8.92915
11.1819
13.2788
15.2243
17.0228
18.6788
20.1968
21.5813
22.8367
23.9674
24.9777
25.872
26.6545
27.3295
27.901
28.3731
28.7497
29.0349
29.2323
29.3457
29.3789
29.3352
29.2182
29.0313
28.7777
28.4606
28.0831
27.6481
27.1587
26.6176
26.0276
25.3912
24.711
23.9895
23.229
22.4319
21.6003
20.7365
19.8424
18.9201
17.9714
16.9984
16.0026
14.986
13.9502
12.8968
11.8273
10.7435
9.64663
8.53831
7.41993
6.2929
5.15859
4.01835
2.87352
1.72542
0.575356
-263.989
-254.726
-245.438
-236.147
-226.878
-217.651
-208.486
-199.401
-190.414
-181.539
-172.79
-164.18
-155.72
-147.421
-139.292
-131.341
-123.575
-116.001
-108.624
-101.448
-94.4767
-87.7141
-81.162
-74.8222
-68.6958
-62.7833
-57.0847
-51.5996
-46.3268
-41.2652
-36.413
-31.768
-27.3279
-23.0899
-19.0512
-15.2086
-11.5585
-8.09741
-4.82158
-1.72706
1.19019
3.93433
6.5096
8.92033
11.1709
13.2657
15.2093
17.006
18.6604
20.1769
21.56
22.8141
23.9437
24.953
25.8465
26.6282
27.3025
27.8734
28.345
28.7213
29.0062
29.2034
29.3168
29.3498
29.3062
29.1894
29.0026
28.7492
28.4324
28.0553
27.6208
27.1319
26.5913
26.0018
25.3661
24.6866
23.9658
23.206
22.4097
21.579
20.716
19.8228
18.9014
17.9537
16.9816
15.9868
14.9712
13.9364
12.884
11.8156
10.7328
9.6371
8.52987
7.4126
6.28669
5.15349
4.01438
2.87068
1.72371
0.574788
-263.664
-254.412
-245.135
-235.855
-226.597
-217.382
-208.228
-199.155
-190.179
-181.315
-172.576
-163.977
-155.528
-147.239
-139.12
-131.179
-123.423
-115.858
-108.489
-101.322
-94.36
-87.6057
-81.0617
-74.7298
-68.611
-62.7058
-57.0142
-51.5358
-46.2696
-41.2142
-36.368
-31.7287
-27.2941
-23.0614
-19.0277
-15.1898
-11.5442
-8.08741
-4.81562
-1.72493
1.18872
3.92947
6.50156
8.90931
11.1571
13.2493
15.1905
16.985
18.6373
20.152
21.5334
22.786
23.9141
24.9222
25.8145
26.5953
27.2688
27.839
28.31
28.6858
28.9703
29.1673
29.2805
29.3136
29.27
29.1533
28.9668
28.7137
28.3973
28.0207
27.5867
27.0984
26.5585
25.9697
25.3347
24.6561
23.9361
23.1774
22.382
21.5523
20.6904
19.7983
18.878
17.9315
16.9606
15.9671
14.9527
13.9192
12.8681
11.801
10.7196
9.62519
8.51934
7.40345
6.27892
5.14713
4.00942
2.86713
1.72158
0.574077
-263.272
-254.035
-244.771
-235.506
-226.261
-217.059
-207.919
-198.86
-189.897
-181.045
-172.32
-163.734
-155.297
-147.02
-138.913
-130.984
-123.239
-115.686
-108.328
-101.172
-94.22
-87.4757
-80.9415
-74.6189
-68.5092
-62.6127
-56.9296
-51.4593
-46.2009
-41.1531
-36.314
-31.6816
-27.2536
-23.0272
-18.9995
-15.1672
-11.5271
-8.0754
-4.80847
-1.72236
1.18696
3.92364
6.49191
8.89609
11.1405
13.2297
15.1679
16.9598
18.6097
20.1221
21.5014
22.7521
23.8786
24.8852
25.7762
26.5558
27.2283
27.7977
28.268
28.6433
28.9274
29.1241
29.2371
29.2701
29.2266
29.11
28.9238
28.6711
28.3552
27.9791
27.5458
27.0582
26.5191
25.9312
25.2971
24.6195
23.9006
23.143
22.3488
21.5203
20.6597
19.7689
18.85
17.9049
16.9354
15.9434
14.9305
13.8985
12.849
11.7835
10.7037
9.61091
8.50669
7.39246
6.2696
5.13949
4.00347
2.86288
1.71903
0.573226
-262.816
-253.594
-244.347
-235.098
-225.869
-216.683
-207.559
-198.515
-189.568
-180.732
-172.022
-163.45
-155.028
-146.766
-138.673
-130.757
-123.026
-115.485
-108.141
-100.997
-94.0567
-87.3242
-80.8012
-74.4896
-68.3905
-62.5043
-56.831
-51.3702
-46.1209
-41.0818
-36.2511
-31.6267
-27.2064
-22.9873
-18.9665
-15.1409
-11.5071
-8.06141
-4.80014
-1.71938
1.1849
3.91684
6.48067
8.88068
11.1212
13.2067
15.1416
16.9304
18.5774
20.0872
21.4642
22.7127
23.8373
24.8421
25.7316
26.5098
27.1811
27.7495
28.219
28.5936
28.8772
29.0736
29.1864
29.2194
29.1759
29.0596
28.8737
28.6214
28.3061
27.9306
27.498
27.0113
26.4731
25.8863
25.2533
24.5768
23.8592
23.1029
22.3101
21.483
20.6239
19.7347
18.8173
17.8739
16.9061
15.9158
14.9047
13.8744
12.8267
11.7631
10.6851
9.59425
8.49195
7.37965
6.25874
5.13058
3.99653
2.85792
1.71605
0.572232
-262.295
-253.092
-243.862
-234.631
-225.421
-216.254
-207.148
-198.122
-189.192
-180.373
-171.681
-163.126
-154.721
-146.475
-138.398
-130.498
-122.782
-115.256
-107.926
-100.796
-93.8703
-87.151
-80.6411
-74.342
-68.2549
-62.3804
-56.7183
-51.2684
-46.0295
-41.0003
-36.1792
-31.564
-27.1524
-22.9417
-18.9289
-15.1109
-11.4843
-8.04542
-4.79062
-1.71597
1.18256
3.90908
6.46782
8.86307
11.0992
13.1806
15.1116
16.8968
18.5406
20.0474
21.4216
22.6677
23.79
24.7929
25.6805
26.4573
27.1272
27.6945
28.1631
28.537
28.82
29.016
29.1286
29.1614
29.1181
29.002
28.8164
28.5647
28.2499
27.8752
27.4435
26.9577
26.4206
25.8349
25.2032
24.5281
23.8119
23.0571
22.2659
21.4405
20.583
19.6955
18.78
17.8384
16.8726
15.8842
14.8751
13.8469
12.8013
11.7398
10.6639
9.57523
8.47512
7.36502
6.24633
5.12041
3.98861
2.85225
1.71265
0.571098
-261.709
-252.527
-243.318
-234.107
-224.918
-215.771
-206.685
-197.679
-188.769
-179.971
-171.297
-162.762
-154.375
-146.148
-138.089
-130.206
-122.508
-114.999
-107.685
-100.571
-93.6606
-86.9564
-80.461
-74.176
-68.1025
-62.2411
-56.5917
-51.1539
-45.9267
-40.9088
-36.0984
-31.4936
-27.0918
-22.8905
-18.8867
-15.0772
-11.4586
-8.02746
-4.77992
-1.71213
1.17992
3.90035
6.45338
8.84328
11.0744
13.1511
15.0779
16.8591
18.4992
20.0026
21.3738
22.6171
23.7369
24.7375
25.6232
26.3982
27.0667
27.6326
28.1002
28.4732
28.7556
28.9512
29.0635
29.0963
29.0531
28.9372
28.7521
28.5009
28.1869
27.813
27.3822
26.8975
26.3616
25.7772
25.147
24.4733
23.7587
23.0056
22.2161
21.3926
20.537
19.6515
18.7381
17.7986
16.8349
15.8487
14.8419
13.816
12.7727
11.7136
10.6401
9.55385
8.45619
7.34857
6.23238
5.10898
3.9797
2.84588
1.70882
0.569822
-261.059
-251.899
-242.713
-233.526
-224.359
-215.235
-206.172
-197.188
-188.3
-179.523
-170.872
-162.357
-153.991
-145.785
-137.746
-129.883
-122.203
-114.713
-107.418
-100.321
-93.4279
-86.7404
-80.2611
-73.9917
-67.9333
-62.0864
-56.4511
-51.0268
-45.8126
-40.8071
-36.0087
-31.4153
-27.0245
-22.8336
-18.8397
-15.0397
-11.4302
-8.00751
-4.76804
-1.70787
1.17699
3.89066
6.43735
8.82131
11.0469
13.1185
15.0404
16.8172
18.4532
19.9529
21.3207
22.5609
23.6779
24.676
25.5595
26.3326
26.9994
27.564
28.0304
28.4025
28.6842
28.8792
28.9913
29.024
28.9809
28.8653
28.6806
28.4301
28.1168
27.7439
27.3142
26.8307
26.2961
25.7132
25.0845
24.4125
23.6997
22.9484
22.1609
21.3394
20.486
19.6027
18.6915
17.7544
16.793
15.8094
14.805
13.7817
12.741
11.6845
10.6137
9.53011
8.43518
7.33031
6.21689
5.09628
3.96981
2.83881
1.70458
0.568407
-260.344
-251.209
-242.049
-232.886
-223.745
-214.645
-205.607
-196.648
-187.785
-179.032
-170.404
-161.913
-153.57
-145.385
-137.369
-129.527
-121.869
-114.399
-107.124
-100.047
-93.1721
-86.5029
-80.0413
-73.7891
-67.7473
-61.9164
-56.2965
-50.8871
-45.6871
-40.6954
-35.9101
-31.3293
-26.9505
-22.7711
-18.7881
-14.9985
-11.3989
-7.98558
-4.75498
-1.7032
1.17377
3.88001
6.41973
8.79716
11.0166
13.0825
14.9992
16.7712
18.4027
19.8983
21.2623
22.4991
23.6131
24.6085
25.4896
26.2605
26.9255
27.4885
27.9536
28.3247
28.6056
28.8002
28.9119
28.9446
28.9015
28.7863
28.6021
28.3522
28.0398
27.6679
27.2394
26.7572
26.2241
25.6428
25.0158
24.3457
23.6348
22.8856
22.1003
21.281
20.4299
19.549
18.6404
17.7058
16.7471
15.7661
14.7645
13.7439
12.7061
11.6525
10.5846
9.50402
8.41208
7.31024
6.19987
5.08233
3.95895
2.83104
1.69991
0.56685
-259.565
-250.458
-241.325
-232.19
-223.075
-214.003
-204.992
-196.06
-187.223
-178.496
-169.894
-161.428
-153.11
-144.95
-136.958
-129.14
-121.504
-114.057
-106.803
-99.7473
-92.8934
-86.2441
-79.8018
-73.5683
-67.5446
-61.7312
-56.1281
-50.7348
-45.5504
-40.5736
-35.8027
-31.2356
-26.8699
-22.703
-18.7319
-14.9536
-11.3647
-7.96168
-4.74075
-1.6981
1.17026
3.86841
6.40052
8.77084
10.9837
13.0434
14.9544
16.721
18.3476
19.8387
21.1987
22.4318
23.5424
24.5348
25.4133
26.1819
26.8449
27.4063
27.87
28.24
28.52
28.714
28.8254
28.858
28.8151
28.7002
28.5165
28.2674
27.9559
27.5851
27.1579
26.6772
26.1457
25.5661
24.9409
24.2728
23.5641
22.8171
22.0341
21.2173
20.3688
19.4906
18.5846
17.6528
16.697
15.7189
14.7203
13.7028
12.6681
11.6176
10.553
9.47558
8.38692
7.28837
6.18132
5.06712
3.9471
2.82257
1.69482
0.565154
-258.722
-249.644
-240.541
-231.436
-222.351
-213.308
-204.326
-195.423
-186.615
-177.917
-169.342
-160.904
-152.613
-144.48
-136.513
-128.72
-121.109
-113.686
-106.456
-99.4234
-92.5917
-85.964
-79.5427
-73.3294
-67.3252
-61.5307
-55.9458
-50.57
-45.4025
-40.4419
-35.6864
-31.1341
-26.7826
-22.6292
-18.6711
-14.9051
-11.3278
-7.93582
-4.72535
-1.69258
1.16646
3.85585
6.37973
8.74236
10.948
13.001
14.9058
16.6667
18.2881
19.7743
21.1298
22.3589
23.466
24.4552
25.3308
26.0969
26.7577
27.3173
27.7795
28.1482
28.4274
28.6207
28.7318
28.7642
28.7215
28.6069
28.4239
28.1756
27.8651
27.4955
27.0697
26.5905
26.0608
25.483
24.8599
24.194
23.4876
22.743
21.9626
21.1484
20.3026
19.4273
18.5242
17.5955
16.6427
15.6678
14.6725
13.6583
12.6269
11.5799
10.5187
9.44481
8.35968
7.2647
6.16125
5.05067
3.93428
2.8134
1.68932
0.563319
-257.815
-248.769
-239.698
-230.624
-221.572
-212.56
-203.61
-194.738
-185.961
-177.293
-168.749
-160.34
-152.078
-143.973
-136.034
-128.269
-120.685
-113.288
-106.083
-99.0749
-92.2671
-85.6627
-79.2639
-73.0724
-67.0893
-61.315
-55.7497
-50.3928
-45.2434
-40.3001
-35.5613
-31.025
-26.6887
-22.5499
-18.6056
-14.8528
-11.2881
-7.90801
-4.70879
-1.68664
1.16238
3.84233
6.35737
8.71172
10.9096
12.9555
14.8536
16.6083
18.224
19.705
21.0558
22.2806
23.3837
24.3694
25.242
26.0054
26.6639
27.2215
27.6821
28.0496
28.3278
28.5204
28.6311
28.6634
28.6208
28.5067
28.3243
28.0769
27.7675
27.3992
26.9748
26.4973
25.9694
25.3937
24.7728
24.1092
23.4052
22.6633
21.8856
21.0743
20.2315
19.3592
18.4593
17.5338
16.5844
15.6129
14.6211
13.6104
12.5827
11.5393
10.4818
9.4117
8.33037
7.23924
6.13965
5.03296
3.92049
2.80354
1.6834
0.561344
-256.845
-247.833
-238.795
-229.756
-220.738
-211.76
-202.844
-194.005
-185.261
-176.626
-168.113
-159.736
-151.506
-143.431
-135.522
-127.786
-120.231
-112.861
-105.684
-98.702
-91.9198
-85.3403
-78.9655
-72.7973
-66.8367
-61.0842
-55.5399
-50.2031
-45.0731
-40.1484
-35.4275
-30.9082
-26.5883
-22.465
-18.5356
-14.7969
-11.2456
-7.87824
-4.69106
-1.68029
1.158
3.82787
6.33345
8.67893
10.8686
12.9067
14.7976
16.5457
18.1554
19.6308
20.9765
22.1967
23.2957
24.2777
25.147
25.9075
26.5636
27.119
27.5779
27.944
28.2212
28.413
28.5233
28.5555
28.5131
28.3994
28.2177
27.9712
27.6629
27.296
26.8733
26.3976
25.8717
25.2981
24.6796
24.0184
23.3171
22.578
21.8032
20.995
20.1553
19.2863
18.3898
17.4678
16.522
15.5542
14.566
13.5592
12.5353
11.4959
10.4424
9.37627
8.29902
7.21199
6.11654
5.01402
3.90573
2.79299
1.67706
0.559231
-255.811
-246.835
-237.834
-228.831
-219.849
-210.908
-202.027
-193.224
-184.515
-175.915
-167.437
-159.093
-150.896
-142.854
-134.977
-127.272
-119.747
-112.407
-105.258
-98.3047
-91.5499
-84.9968
-78.6477
-72.5043
-66.5677
-60.8384
-55.3163
-50.001
-44.8916
-39.9868
-35.2849
-30.7838
-26.4812
-22.3746
-18.461
-14.7374
-11.2004
-7.84652
-4.67218
-1.67353
1.15334
3.81247
6.30796
8.644
10.8248
12.8548
14.7381
16.4791
18.0823
19.5518
20.8921
22.1074
23.2019
24.18
25.0457
25.8033
26.4567
27.0099
27.4669
27.8315
28.1076
28.2987
28.4085
28.4406
28.3983
28.2851
28.1041
27.8586
27.5516
27.1862
26.7651
26.2913
25.7675
25.1963
24.5802
23.9218
23.2233
22.4871
21.7154
20.9104
20.0742
19.2087
18.3158
17.3975
16.4555
15.4916
14.5074
13.5046
12.4849
11.4496
10.4003
9.33853
8.26561
7.18296
6.09192
4.99383
3.89001
2.78174
1.67031
0.55698
-254.714
-245.777
-236.814
-227.85
-218.906
-210.004
-201.161
-192.395
-183.724
-175.16
-166.719
-158.411
-150.249
-142.241
-134.398
-126.726
-119.233
-111.925
-104.807
-97.8832
-91.1573
-84.6323
-78.3104
-72.1934
-66.2823
-60.5775
-55.0791
-49.7866
-44.6991
-39.8153
-35.1336
-30.6518
-26.3677
-22.2786
-18.3818
-14.6742
-11.1523
-7.81287
-4.65214
-1.66635
1.1484
3.79612
6.28091
8.60693
10.7784
12.7996
14.6749
16.4085
18.0047
19.468
20.8025
22.0126
23.1024
24.0763
24.9383
25.6926
26.3432
26.8941
27.3491
27.7122
27.987
28.1773
28.2867
28.3186
28.2765
28.1638
27.9836
27.7391
27.4335
27.0696
26.6504
26.1786
25.657
25.0883
24.4748
23.8192
23.1237
22.3907
21.6223
20.8208
19.9881
19.1263
18.2373
17.3229
16.3849
15.4251
14.4452
13.4467
12.4313
11.4005
10.3557
9.29849
8.23017
7.15215
6.0658
4.97242
3.87333
2.76981
1.66315
0.554592
-253.554
-244.658
-235.736
-226.813
-217.91
-209.047
-200.245
-191.519
-182.887
-174.363
-165.96
-157.69
-149.565
-141.594
-133.786
-126.149
-118.69
-111.416
-104.33
-97.4375
-90.7422
-84.2469
-77.9539
-71.8647
-65.9805
-60.3017
-54.8283
-49.5599
-44.4956
-39.6341
-34.9736
-30.5122
-26.2476
-22.1772
-18.2981
-14.6073
-11.1016
-7.7773
-4.63095
-1.65876
1.14318
3.77884
6.25231
8.56775
10.7293
12.7414
14.6081
16.3338
17.9228
19.3793
20.7078
21.9123
22.9972
23.9667
24.8248
25.5756
26.2233
26.7716
27.2246
27.586
27.8596
28.049
28.1579
28.1897
28.1478
28.0355
27.8562
27.6128
27.3085
26.9463
26.529
26.0594
25.5402
24.974
24.3634
23.7107
23.0184
22.2887
21.5239
20.726
19.8971
19.0392
18.1542
17.244
16.3103
15.3549
14.3794
13.3855
12.3747
11.3486
10.3086
9.25615
8.19269
7.11959
6.03818
4.94978
3.85569
2.7572
1.65557
0.552066
-252.332
-243.478
-234.6
-225.719
-216.859
-208.04
-199.28
-190.596
-182.006
-173.522
-165.16
-156.93
-148.844
-140.911
-133.141
-125.541
-118.118
-110.878
-103.827
-96.9678
-90.3048
-83.8408
-77.5781
-71.5182
-65.6624
-60.011
-54.564
-49.321
-44.2811
-39.443
-34.805
-30.3651
-26.1211
-22.0703
-18.2099
-14.5369
-11.048
-7.7398
-4.60863
-1.65076
1.13767
3.76062
6.22217
8.52644
10.6776
12.6799
14.5377
16.255
17.8364
19.2859
20.608
21.8067
22.8864
23.8511
24.7051
25.4523
26.0968
26.6425
27.0933
27.453
27.7253
27.9138
28.0221
28.0538
28.0121
27.9004
27.7219
27.4797
27.1769
26.8164
26.4011
25.9338
25.4171
24.8536
24.2459
23.5964
22.9074
22.1813
21.4201
20.6261
19.8012
18.9474
18.0667
17.1609
16.2317
15.2809
14.3101
13.321
12.3151
11.2939
10.2589
9.21152
8.1532
7.08526
6.00907
4.92592
3.83711
2.74391
1.64759
0.549405
-251.047
-242.239
-233.405
-224.57
-215.755
-206.981
-198.265
-189.626
-181.079
-172.639
-164.319
-156.131
-148.086
-140.194
-132.463
-124.902
-117.517
-110.314
-103.298
-96.4741
-89.845
-83.414
-77.1831
-71.1542
-65.3281
-59.7054
-54.2862
-49.0699
-44.0557
-39.2422
-34.6278
-30.2105
-25.9881
-21.9579
-18.1172
-14.4629
-10.9918
-7.7004
-4.58516
-1.64235
1.13188
3.74148
6.1905
8.48304
10.6233
12.6154
14.4636
16.1723
17.7456
19.1877
20.503
21.6957
22.7699
23.7297
24.5793
25.3228
25.964
26.5069
26.9554
27.3132
27.5841
27.7717
27.8795
27.911
27.8695
27.7583
27.5807
27.3398
27.0385
26.6799
26.2667
25.8017
25.2877
24.7271
24.1225
23.4763
22.7908
22.0683
21.3111
20.5211
19.7004
18.851
17.9747
17.0735
16.149
15.2031
14.2372
13.2531
12.2524
11.2364
10.2067
9.16463
8.11169
7.04919
5.97847
4.90084
3.81757
2.72994
1.6392
0.546608
-249.701
-240.94
-232.153
-223.366
-214.598
-205.87
-197.202
-188.609
-180.108
-171.713
-163.437
-155.293
-147.292
-139.442
-131.753
-124.232
-116.887
-109.722
-102.744
-95.9567
-89.3631
-82.9666
-76.7691
-70.7725
-64.9777
-59.3852
-53.995
-48.8067
-43.8194
-39.0317
-34.4421
-30.0485
-25.8487
-21.8401
-18.02
-14.3853
-10.9328
-7.65909
-4.56057
-1.63354
1.1258
3.72141
6.15729
8.43754
10.5663
12.5477
14.3861
16.0855
17.6504
19.0848
20.3931
21.5793
22.6477
23.6024
24.4475
25.1869
25.8247
26.3647
26.8108
27.1667
27.4362
27.6227
27.7299
27.7612
27.72
27.6094
27.4328
27.1931
26.8935
26.5368
26.1258
25.6633
25.152
24.5945
23.9931
23.3504
22.6686
21.95
21.1967
20.411
19.5947
18.7498
17.8783
16.9819
16.0624
15.1215
14.1609
13.1821
12.1866
11.1761
10.1519
9.11547
8.06818
7.01138
5.94641
4.87455
3.79709
2.7153
1.63041
0.543676
-248.292
-239.581
-230.844
-222.106
-213.388
-204.709
-196.089
-187.545
-179.092
-170.745
-162.516
-154.418
-146.461
-138.655
-131.01
-123.531
-116.227
-109.104
-102.165
-95.4155
-88.8592
-82.4987
-76.3362
-70.3734
-64.6113
-59.0503
-53.6905
-48.5315
-43.5723
-38.8116
-34.2478
-29.879
-25.7029
-21.717
-17.9184
-14.3042
-10.8712
-7.6159
-4.53485
-1.62433
1.11946
3.70043
6.12257
8.38995
10.5067
12.477
14.3049
15.9948
17.5508
18.9772
20.2781
21.4576
22.52
23.4693
24.3096
25.0449
25.6791
26.2161
26.6596
27.0135
27.2815
27.467
27.5736
27.6047
27.5637
27.4537
27.2781
27.0398
26.7418
26.3871
25.9785
25.5186
25.0102
24.4558
23.8578
23.2187
22.5407
21.8262
21.0772
20.2959
19.4842
18.6441
17.7775
16.8861
15.9718
15.0362
14.081
13.1077
12.1179
11.1131
10.0947
9.06406
8.02268
6.97184
5.91287
4.84706
3.77568
2.69999
1.62122
0.54061
-246.823
-238.163
-229.478
-220.792
-212.125
-203.498
-194.929
-186.435
-178.032
-169.734
-161.554
-153.504
-145.594
-137.835
-130.234
-122.8
-115.54
-108.458
-101.56
-94.8508
-88.3333
-82.0104
-75.8844
-69.9569
-64.2289
-58.7008
-53.3728
-48.2443
-43.3144
-38.5819
-34.0451
-29.7022
-25.5508
-21.5885
-17.8124
-14.2196
-10.8068
-7.57083
-4.50801
-1.61472
1.11283
3.67853
6.08634
8.3403
10.4445
12.4031
14.2203
15.9002
17.447
18.8649
20.158
21.3306
22.3867
23.3304
24.1658
24.8967
25.5271
26.0609
26.5018
26.8537
27.12
27.3044
27.4104
27.4413
27.4005
27.2913
27.1167
26.8798
26.5836
26.231
25.8247
25.3676
24.8622
24.311
23.7166
23.0813
22.4073
21.697
20.9525
20.1758
19.3689
18.5338
17.6723
16.7862
15.8773
14.9473
13.9977
13.0301
12.0462
11.0473
10.0349
9.01042
7.9752
6.93058
5.87788
4.81838
3.75334
2.68401
1.61162
0.537411
-245.293
-236.686
-228.055
-219.423
-210.81
-202.236
-193.72
-185.279
-176.928
-168.682
-160.552
-152.552
-144.692
-136.98
-129.427
-122.039
-114.823
-107.785
-100.931
-94.2628
-87.7856
-81.502
-75.414
-69.5232
-63.8307
-58.3369
-53.0419
-47.9451
-43.0458
-38.3427
-33.8341
-29.518
-25.3924
-21.4546
-17.7019
-14.1314
-10.7398
-7.52389
-4.48006
-1.60471
1.10593
3.65572
6.0486
8.28859
10.3798
12.3262
14.1321
15.8016
17.3388
18.7479
20.0331
21.1984
22.2479
23.1858
24.0159
24.7423
25.3688
25.8993
26.3375
26.6872
26.9519
27.1351
27.2404
27.2712
27.2306
27.1221
26.9485
26.7131
26.4188
26.0683
25.6646
25.2103
24.708
24.1603
23.5695
22.9382
22.2684
21.5625
20.8226
20.0507
19.2488
18.4188
17.5627
16.6821
15.7789
14.8546
13.9109
12.9494
11.9715
10.9788
9.97269
8.95455
7.92575
6.88761
5.84143
4.7885
3.73006
2.66736
1.60163
0.534079
-243.702
-235.151
-226.576
-218
-209.442
-200.925
-192.464
-184.078
-175.781
-167.588
-159.511
-151.563
-143.753
-136.092
-128.588
-121.248
-114.079
-107.086
-100.276
-93.6514
-87.2163
-80.9734
-74.9249
-69.0723
-63.4167
-57.9585
-52.6979
-47.6342
-42.7667
-38.094
-33.6146
-29.3266
-25.2277
-21.3155
-17.5871
-14.0397
-10.6702
-7.47509
-4.451
-1.5943
1.09876
3.63201
6.00937
8.23484
10.3124
12.2463
14.0405
15.6991
17.2263
18.6263
19.9031
21.0609
22.1036
23.0354
23.8602
24.5818
25.2043
25.7313
26.1667
26.5141
26.7771
26.9591
27.0638
27.0943
27.054
26.9462
26.7737
26.5399
26.2474
25.8993
25.4982
25.0468
24.5478
24.0036
23.4167
22.7894
22.124
21.4226
20.6875
19.9206
19.1239
18.2994
17.4488
16.5739
15.6765
14.7582
13.8207
12.8654
11.8939
10.9076
9.90801
8.89648
7.87435
6.84294
5.80355
4.75744
3.70587
2.65007
1.59124
0.530615
-242.051
-233.558
-225.041
-216.523
-208.024
-199.563
-191.16
-182.831
-174.59
-166.452
-158.43
-150.536
-142.779
-135.17
-127.716
-120.426
-113.306
-106.361
-99.5966
-93.017
-86.6255
-80.4248
-74.4173
-68.6043
-62.9871
-57.5659
-52.3409
-47.3115
-42.4769
-37.8359
-33.3869
-29.1279
-25.0568
-21.1711
-17.468
-13.9446
-10.5979
-7.42445
-4.42085
-1.5835
1.09132
3.60741
5.96866
8.17905
10.2426
12.1633
13.9453
15.5927
17.1096
18.5001
19.7683
20.9182
21.9539
22.8794
23.6985
24.4153
25.0336
25.557
25.9895
26.3345
26.5957
26.7765
26.8804
26.9108
26.8708
26.7636
26.5924
26.3601
26.0696
25.7238
25.3254
24.8771
24.3815
23.841
23.258
22.635
21.9741
21.2775
20.5474
19.7857
18.9944
18.1754
17.3306
16.4616
15.5703
14.6583
13.727
12.7782
11.8133
10.8337
9.84089
8.83621
7.821
6.79658
5.76423
4.72521
3.68077
2.63211
1.58046
0.52702
-240.34
-231.908
-223.451
-214.992
-206.553
-198.153
-189.809
-181.538
-173.356
-165.276
-157.311
-149.472
-141.77
-134.215
-126.814
-119.575
-112.505
-105.609
-98.8927
-92.3596
-86.0132
-79.8564
-73.8913
-68.1195
-62.5419
-57.1591
-51.9709
-46.9771
-42.1767
-37.5685
-33.1509
-28.9221
-24.8797
-21.0214
-17.3445
-13.8461
-10.523
-7.37198
-4.3896
-1.57231
1.08361
3.58191
5.92648
8.12124
10.1702
12.0774
13.8468
15.4825
16.9887
18.3694
19.6286
20.7704
21.7987
22.7177
23.531
24.2428
24.8566
25.3764
25.8058
26.1483
26.4077
26.5873
26.6904
26.7206
26.6808
26.5744
26.4044
26.1738
25.8853
25.542
25.1464
24.7013
24.2092
23.6725
23.0937
22.475
21.8188
21.1271
20.4021
19.6458
18.8601
18.047
17.2081
16.3453
15.4603
14.5547
13.63
12.6879
11.7298
10.7571
9.77134
8.77376
7.76573
6.74855
5.72349
4.69182
3.65475
2.61351
1.56929
0.523295
-238.57
-230.2
-221.805
-213.409
-205.032
-196.694
-188.411
-180.202
-172.079
-164.059
-156.152
-148.371
-140.726
-133.226
-125.88
-118.694
-111.676
-104.831
-98.1644
-91.6794
-85.3798
-79.2683
-73.3471
-67.6178
-62.0813
-56.7381
-51.5882
-46.6312
-41.8661
-37.2918
-32.9068
-28.7091
-24.6965
-20.8666
-17.2168
-13.7441
-10.4455
-7.31768
-4.35728
-1.56073
1.07563
3.55553
5.88283
8.06143
10.0953
11.9884
13.7448
15.3685
16.8636
18.2341
19.484
20.6174
21.6382
22.5503
23.3577
24.0642
24.6736
25.1895
25.6157
25.9558
26.2132
26.3914
26.4939
26.5238
26.4844
26.3787
26.21
25.981
25.6947
25.3539
24.9612
24.5194
24.0309
23.4981
22.9236
22.3095
21.6581
20.9715
20.2519
19.5011
18.7212
17.9141
17.0814
16.2249
15.3464
14.4475
13.5296
12.5945
11.6434
10.6779
9.69938
8.70914
7.70853
6.69885
5.68134
4.65726
3.62784
2.59426
1.55774
0.519441
-236.741
-228.435
-220.105
-211.773
-203.46
-195.186
-186.967
-178.82
-170.76
-162.801
-154.955
-147.234
-139.647
-132.205
-124.915
-117.784
-110.82
-104.028
-97.4119
-90.9766
-84.7253
-78.6607
-72.7849
-67.0995
-61.6054
-56.3032
-51.1927
-46.2737
-41.5452
-37.006
-32.6545
-28.489
-24.5072
-20.7067
-17.0848
-13.6387
-10.3654
-7.26159
-4.32387
-1.54876
1.06738
3.52827
5.83773
7.99963
10.0179
11.8965
13.6394
15.2507
16.7343
18.0943
19.3347
20.4594
21.4723
22.3775
23.1787
23.8797
24.4844
24.9964
25.4193
25.7568
26.0123
26.1891
26.2908
26.3204
26.2813
26.1765
26.009
25.7818
25.4977
25.1595
24.7699
24.3314
23.8466
23.318
22.7479
22.1385
21.4921
20.8108
20.0966
19.3516
18.5777
17.7767
16.9504
16.1005
15.2288
14.3367
13.4259
12.4979
11.5542
10.5961
9.62502
8.64238
7.64944
6.64749
5.63779
4.62156
3.60002
2.57437
1.54579
0.515459
-234.854
-226.614
-218.35
-210.085
-201.838
-193.63
-185.477
-177.395
-169.399
-161.503
-153.72
-146.06
-138.534
-131.151
-123.919
-116.846
-109.937
-103.198
-96.6353
-90.2513
-84.0498
-78.0336
-72.2046
-66.5645
-61.1143
-55.8543
-50.7846
-45.9048
-41.214
-36.711
-32.3942
-28.2619
-24.3118
-20.5416
-16.9486
-13.53
-10.2828
-7.2037
-4.28941
-1.53642
1.05887
3.50015
5.7912
7.93586
9.93804
11.8017
13.5307
15.1291
16.6009
17.9501
19.1805
20.2963
21.3011
22.1991
22.9939
23.6894
24.2892
24.7971
25.2167
25.5515
25.8049
25.9803
26.0812
26.1106
26.0718
25.9678
25.8017
25.5763
25.2945
24.959
24.5724
24.1375
23.6565
23.1321
22.5665
21.962
21.3207
20.6449
19.9364
19.1974
18.4296
17.635
16.8153
15.9722
15.1074
14.2224
13.3189
12.3983
11.462
10.5116
9.54829
8.57348
7.58846
6.5945
5.59284
4.58472
3.57133
2.55385
1.53347
0.51135
-232.909
-224.737
-216.542
-208.345
-200.167
-192.026
-183.94
-175.925
-167.996
-160.166
-152.447
-144.85
-137.387
-130.065
-122.893
-115.878
-109.026
-102.344
-95.8349
-89.5038
-83.3537
-77.3873
-71.6066
-66.0132
-60.6081
-55.3917
-50.364
-45.5246
-40.8726
-36.4069
-32.1259
-28.0278
-24.1104
-20.3714
-16.8082
-13.418
-10.1976
-7.14403
-4.25388
-1.52369
1.0501
3.47116
5.74323
7.87013
9.85572
11.7039
13.4186
15.0038
16.4634
17.8014
19.0217
20.1281
21.1247
22.0152
22.8034
23.4932
24.088
24.5917
25.0078
25.3398
25.5911
25.7652
25.8652
25.8943
25.8559
25.7527
25.588
25.3645
25.085
24.7522
24.3689
23.9375
23.4606
22.9405
22.3796
21.7801
21.1441
20.4739
19.7713
19.0384
18.277
17.4889
16.676
15.8399
14.9822
14.1046
13.2086
12.2956
11.3671
10.4245
9.4692
8.50247
7.5256
6.53988
5.54652
4.54674
3.54174
2.5327
1.52077
0.507115
-230.906
-222.805
-214.68
-206.553
-198.446
-190.375
-182.359
-174.413
-166.551
-158.788
-151.136
-143.605
-136.205
-128.946
-121.836
-114.881
-108.089
-101.464
-95.0109
-88.7342
-82.637
-76.7218
-70.9909
-65.4456
-60.0869
-54.9154
-49.9309
-45.1331
-40.5212
-36.0938
-31.8497
-27.7868
-23.9031
-20.1963
-16.6637
-13.3026
-10.1099
-7.08261
-4.2173
-1.51059
1.04107
3.44131
5.69384
7.80246
9.77098
11.6033
13.3032
14.8748
16.3219
17.6483
18.8581
19.9551
20.9431
21.8259
22.6074
23.2911
23.8809
24.3803
24.7928
25.1219
25.3711
25.5436
25.6427
25.6717
25.6335
25.5313
25.368
25.1464
24.8693
24.5394
24.1594
23.7317
23.2589
22.7433
22.1872
21.5928
20.9623
20.2978
19.6013
18.8747
18.1198
17.3386
16.5326
15.7037
14.8534
13.9833
13.095
12.1899
11.2694
10.3349
9.38778
8.42936
7.46089
6.48364
5.49883
4.50765
3.51129
2.51092
1.50769
0.502754
-228.847
-220.817
-212.765
-204.711
-196.675
-188.677
-180.732
-172.857
-165.066
-157.372
-149.788
-142.324
-134.99
-127.796
-120.749
-113.857
-107.125
-100.559
-94.1634
-87.9427
-81.8998
-76.0375
-70.3576
-64.8618
-59.551
-54.4256
-49.4856
-44.7305
-40.1597
-35.7719
-31.5656
-27.5389
-23.6899
-20.0161
-16.5151
-13.1839
-10.0198
-7.01943
-4.17968
-1.49712
1.03178
3.41061
5.64305
7.73286
9.68382
11.4998
13.1846
14.7421
16.1763
17.4909
18.6899
19.7771
20.7563
21.6312
22.4057
23.0834
23.6679
24.1628
24.5717
24.8979
25.1448
25.3158
25.414
25.4427
25.4049
25.3036
25.1417
24.922
24.6474
24.3205
23.9439
23.52
23.0514
22.5404
21.9893
21.4002
20.7753
20.1168
19.4264
18.7063
17.9582
17.1839
16.3851
15.5636
14.7209
13.8586
12.9782
12.0811
11.1688
10.2427
9.30404
8.35417
7.39434
6.42581
5.44978
4.46744
3.47997
2.48852
1.49424
0.498269
-226.73
-218.775
-210.797
-202.818
-194.857
-186.932
-179.061
-171.258
-163.539
-155.917
-148.403
-141.008
-133.742
-126.614
-119.633
-112.804
-106.134
-99.6288
-93.2927
-87.1295
-81.1425
-75.3344
-69.7071
-64.2621
-59.0003
-53.9223
-49.028
-44.3169
-39.7884
-35.4411
-31.2737
-27.2843
-23.4708
-19.831
-16.3623
-13.062
-9.9271
-6.95452
-4.14104
-1.48327
1.02224
3.37907
5.59087
7.66135
9.59427
11.3934
13.0627
14.6058
16.0267
17.3292
18.5171
19.5942
20.5643
21.4312
22.1985
22.8699
23.449
23.9394
24.3444
24.6676
24.9123
25.0817
25.179
25.2074
25.17
25.0696
24.9092
24.6916
24.4195
24.0956
23.7224
23.3025
22.8382
22.332
21.7859
21.2023
20.5832
19.9307
19.2468
18.5333
17.7921
17.025
16.2336
15.4197
14.5848
13.7305
12.8582
11.9694
11.0656
10.148
9.21801
8.27692
7.32597
6.36639
5.39938
4.42613
3.44779
2.46551
1.48043
0.493662
-224.558
-216.679
-208.778
-200.875
-192.99