/*--------------------------------*- C++ -*----------------------------------*\
| =========                 |                                                 |
| \\      /  F ield         | OpenFOAM: The Open Source CFD Toolbox           |
|  \\    /   O peration     | Version:  2406                                  |
|   \\  /    A nd           | Website:  www.openfoam.com                      |
|    \\/     M anipulation  |                                                 |
\*---------------------------------------------------------------------------*/
FoamFile
{
    version     2.0;
    format      ascii;
    arch        "LSB;label=32;scalar=64";
    class       volScalarField;
    location    "180";
    object      gradTx;
}
// * * * * * * * * * * * * * * * * * * * * * * * * * * * * * * * * * * * * * //

dimensions      [0 -1 0 1 0 0 0];

internalField   nonuniform List<scalar> 
20000
(
4.62966
4.64967
4.65669
4.65166
4.63571
4.60973
4.57415
4.52923
4.47677
4.41746
4.35094
4.27811
4.2001
4.11743
4.03035
3.93926
3.84473
3.74731
3.64748
3.54563
3.44207
3.33714
3.23117
3.12448
3.01737
2.91013
2.80303
2.69628
2.59012
2.48474
2.38032
2.27702
2.175
2.0744
1.97534
1.87794
1.78229
1.68849
1.59662
1.50675
1.41893
1.33322
1.24966
1.16828
1.0891
1.01215
0.937435
0.864965
0.794737
0.726747
0.660984
0.597435
0.536079
0.476894
0.419854
0.36493
0.312089
0.261296
0.212515
0.165706
0.120829
0.0778416
0.0367001
-0.00263986
-0.0402236
-0.0760971
-0.110307
-0.142899
-0.173921
-0.203418
-0.231438
-0.258027
-0.28323
-0.307091
-0.329656
-0.350967
-0.371067
-0.389997
-0.407797
-0.424506
-0.440162
-0.454801
-0.468459
-0.481167
-0.492958
-0.503863
-0.513909
-0.523123
-0.531531
-0.539155
-0.546018
-0.552137
-0.557532
-0.562218
-0.566209
-0.569516
-0.57215
-0.574119
-0.575428
-0.576081
13.8878
13.9478
13.9689
13.9541
13.9062
13.8276
13.7208
13.5871
13.4296
13.251
13.0514
12.8334
12.5995
12.3514
12.09
11.8167
11.5332
11.241
10.9416
10.636
10.3254
10.0106
9.6927
9.37265
9.05136
8.72968
8.40839
8.08819
7.76974
7.45362
7.14038
6.83051
6.52447
6.22269
5.92553
5.63335
5.34643
5.06506
4.78948
4.51988
4.25645
3.99934
3.74867
3.50454
3.26703
3.0362
2.81207
2.59468
2.38401
2.18006
1.98279
1.79216
1.6081
1.43057
1.25946
1.0947
0.936189
0.783824
0.637492
0.497078
0.362458
0.233506
0.110091
-0.00791893
-0.120661
-0.228273
-0.330893
-0.428662
-0.521719
-0.610205
-0.694258
-0.774018
-0.849619
-0.921198
-0.988886
-1.05281
-1.11311
-1.16989
-1.22329
-1.27341
-1.32038
-1.36429
-1.40526
-1.44338
-1.47875
-1.51146
-1.5416
-1.56924
-1.59446
-1.61733
-1.63792
-1.65628
-1.67246
-1.68652
-1.69849
-1.70841
-1.71631
-1.72221
-1.72614
-1.7281
23.1422
23.2422
23.278
23.2532
23.1735
23.0421
22.8639
22.6417
22.3793
22.081
21.7485
21.3856
20.996
20.5823
20.1466
19.6912
19.2188
18.732
18.2331
17.7239
17.2061
16.6816
16.1518
15.6185
15.0831
14.5471
14.0117
13.4781
12.9474
12.4207
11.8987
11.3823
10.8723
10.3694
9.87426
9.38737
8.90926
8.44039
7.98115
7.5319
7.09292
6.66447
6.24676
5.83994
5.44416
5.0595
4.68602
4.32376
3.9727
3.63284
3.30411
2.98644
2.67973
2.38388
2.09875
1.8242
1.56006
1.30616
1.06231
0.828326
0.603997
0.389112
0.183455
-0.0131961
-0.201069
-0.380392
-0.551397
-0.714318
-0.869389
-1.01684
-1.15691
-1.28982
-1.4158
-1.53508
-1.64787
-1.7544
-1.85488
-1.9495
-2.03848
-2.12201
-2.20027
-2.27345
-2.34171
-2.40524
-2.46418
-2.51869
-2.56891
-2.61497
-2.657
-2.69511
-2.72941
-2.76001
-2.78697
-2.8104
-2.83035
-2.84688
-2.86005
-2.86989
-2.87643
-2.8797
32.391
32.5306
32.5808
32.5465
32.4349
32.2512
32.0016
31.6905
31.3233
30.9055
30.4403
29.9326
29.3873
28.8081
28.1981
27.5607
26.8996
26.2184
25.5201
24.8073
24.0827
23.3484
22.6069
21.8605
21.1111
20.3609
19.6115
18.8647
18.122
17.3846
16.654
15.9313
15.2175
14.5136
13.8206
13.1391
12.4699
11.8136
11.1709
10.5421
9.92764
9.32796
8.7433
8.1739
7.61994
7.08155
6.55881
6.05176
5.56041
5.08472
4.62461
4.17998
3.7507
3.33661
2.93753
2.55325
2.18354
1.82817
1.48687
1.15937
0.845387
0.544622
0.256774
-0.01847
-0.281427
-0.532417
-0.771766
-0.999799
-1.21684
-1.42323
-1.61927
-1.8053
-1.98163
-2.14858
-2.30645
-2.45556
-2.59619
-2.72863
-2.85317
-2.97008
-3.07962
-3.18204
-3.27759
-3.36651
-3.44901
-3.5253
-3.59559
-3.66006
-3.71888
-3.77223
-3.82024
-3.86306
-3.9008
-3.93359
-3.96151
-3.98465
-4.00308
-4.01685
-4.02601
-4.03058
41.6323
41.8114
41.8755
41.8317
41.6882
41.4523
41.1314
40.7315
40.2596
39.7225
39.1247
38.4722
37.7713
37.0267
36.2426
35.4234
34.5739
33.6983
32.8008
31.8847
30.9532
30.0095
29.0565
28.097
27.1339
26.1696
25.2065
24.2466
23.292
22.3443
21.4053
20.4764
19.5589
18.6543
17.7634
16.8875
16.0274
15.1839
14.3578
13.5496
12.7599
11.9891
11.2377
10.5058
9.79384
9.10185
8.42998
7.77828
7.14675
6.53534
5.94397
5.37249
4.82074
4.28852
3.77558
3.28167
2.80649
2.34973
1.91106
1.49013
1.08657
0.699998
0.330029
-0.0237395
-0.361715
-0.684311
-0.991944
-1.28503
-1.564
-1.82926
-2.08123
-2.32033
-2.54697
-2.76155
-2.96446
-3.15611
-3.33686
-3.50708
-3.66715
-3.81741
-3.9582
-4.08985
-4.21266
-4.32694
-4.43298
-4.53104
-4.62138
-4.70424
-4.77985
-4.84841
-4.91012
-4.96515
-5.01367
-5.0558
-5.09169
-5.12143
-5.14512
-5.16282
-5.17459
-5.18047
50.8635
51.0821
51.16
51.1066
50.9313
50.643
50.251
49.7625
49.1859
48.5298
47.7994
47.0023
46.146
45.2362
44.2782
43.2775
42.2396
41.17
40.0734
38.9542
37.8162
36.6632
35.4988
34.3267
33.15
31.9719
30.7953
29.6226
28.4563
27.2985
26.1513
25.0164
23.8955
22.7903
21.7019
20.6318
19.581
18.5505
17.5412
16.5538
15.589
14.6474
13.7293
12.8352
11.9653
11.1199
10.2991
9.50288
8.73132
7.98436
7.26186
6.56368
5.8896
5.23937
4.6127
4.00928
3.42874
2.87071
2.33478
1.82052
1.32748
0.855201
0.403203
-0.0290031
-0.441915
-0.836036
-1.21188
-1.56995
-1.91077
-2.23484
-2.54268
-2.8348
-3.11169
-3.37384
-3.62174
-3.85588
-4.0767
-4.28467
-4.48023
-4.66381
-4.83581
-4.99665
-5.14669
-5.28631
-5.41585
-5.53566
-5.64603
-5.74726
-5.83963
-5.92339
-5.99879
-6.06602
-6.12529
-6.17677
-6.22062
-6.25695
-6.28589
-6.30752
-6.3219
-6.32908
60.0819
60.3402
60.432
60.3688
60.1618
59.8213
59.3582
58.7812
58.1002
57.325
56.4624
55.5208
54.5092
53.4345
52.3029
51.1208
49.8949
48.6315
47.3362
46.0141
44.6698
43.3078
41.9324
40.5478
39.1579
37.7664
36.3765
34.9913
33.6136
32.246
30.8908
29.5502
28.2263
26.9207
25.6351
24.371
23.1298
21.9125
20.7203
19.554
18.4143
17.302
16.2175
15.1614
14.1339
13.1352
12.1656
11.2251
10.3137
9.4314
8.57796
7.75324
6.957
6.18892
5.44868
4.7359
4.05015
3.39098
2.75792
2.15046
1.56807
1.01019
0.476277
-0.0342597
-0.522005
-0.987555
-1.43151
-1.85448
-2.25707
-2.63987
-3.00351
-3.34856
-3.67563
-3.9853
-4.27813
-4.55469
-4.81554
-5.0612
-5.29221
-5.50905
-5.71223
-5.90221
-6.07945
-6.24437
-6.3974
-6.53891
-6.66928
-6.78886
-6.89797
-6.99692
-7.08598
-7.1654
-7.23541
-7.29622
-7.34801
-7.39093
-7.42511
-7.45066
-7.46765
-7.47613
69.2854
69.5833
69.6891
69.6162
69.3775
68.9848
68.4507
67.7854
67.0001
66.1061
65.1113
64.0256
62.859
61.6197
60.3147
58.9516
57.5379
56.081
54.5873
53.0626
51.5123
49.9417
48.3556
46.759
45.1562
43.5515
41.9487
40.3513
38.7626
37.1855
35.6227
34.0768
32.55
31.0444
29.5619
28.1042
26.6728
25.2691
23.8942
22.5493
21.235
19.9523
18.7018
17.4838
16.2989
15.1473
14.0292
12.9446
11.8936
10.8761
9.89195
8.9409
8.02268
7.13695
6.28332
5.46135
4.67056
3.91042
3.18039
2.47987
1.80826
1.16494
0.549234
-0.0395078
-0.601967
-1.13883
-1.65079
-2.13855
-2.60281
-3.04425
-3.46359
-3.8615
-4.23867
-4.59577
-4.93346
-5.25239
-5.55319
-5.83649
-6.10287
-6.35294
-6.58724
-6.80632
-7.01071
-7.20089
-7.37736
-7.54055
-7.69089
-7.82879
-7.95462
-8.06872
-8.17142
-8.263
-8.34374
-8.41387
-8.47359
-8.52308
-8.5625
-8.59196
-8.61155
-8.62133
78.4717
78.8091
78.929
78.8464
78.576
78.1313
77.5264
76.7728
75.8835
74.8709
73.7442
72.5146
71.1933
69.7896
68.3116
66.7678
65.1667
63.5166
61.8249
60.098
58.3422
56.5633
54.7669
52.9586
51.1433
49.3258
47.5105
45.7014
43.902
42.1158
40.3458
38.5949
36.8657
35.1605
33.4815
31.8305
30.2093
28.6195
27.0623
25.539
24.0505
22.5977
21.1814
19.8019
18.4599
17.1556
15.8893
14.6609
13.4706
12.3181
11.2035
10.1263
9.08638
8.08322
7.11641
6.18545
5.28981
4.42889
3.60206
2.80867
2.04802
1.31939
0.622055
-0.0447463
-0.68178
-1.28982
-1.86967
-2.4221
-2.9479
-3.44788
-3.92282
-4.37349
-4.80066
-5.20511
-5.58757
-5.94879
-6.28947
-6.61033
-6.91204
-7.19525
-7.46062
-7.70875
-7.94024
-8.15564
-8.3555
-8.54033
-8.71061
-8.86679
-9.0093
-9.13853
-9.25484
-9.35857
-9.45001
-9.52944
-9.59708
-9.65313
-9.69778
-9.73114
-9.75333
-9.76441
87.6387
88.0155
88.1494
88.0572
87.7552
87.2586
86.5829
85.7414
84.7481
83.6172
82.3589
80.9857
79.5101
77.9423
76.2917
74.5675
72.7795
70.9366
69.0472
67.1186
65.1576
63.1709
61.1647
59.1451
57.1178
55.088
53.0607
51.0402
49.0306
47.0357
45.059
43.1036
41.1723
39.2679
37.3927
35.5489
33.7383
31.9628
30.2237
28.5224
26.8601
25.2376
23.6557
22.1152
20.6164
19.1597
17.7454
16.3736
15.0442
13.7571
12.5123
11.3093
10.1478
9.02749
7.94774
6.90803
5.90776
4.94627
4.02285
3.13678
2.28726
1.47352
0.694722
-0.0499739
-0.761425
-1.4405
-2.08808
-2.70504
-3.29228
-3.85066
-4.38108
-4.88439
-5.36147
-5.81316
-6.24031
-6.64372
-7.0242
-7.38254
-7.71949
-8.0358
-8.33216
-8.60928
-8.86781
-9.10837
-9.33158
-9.538
-9.72817
-9.9026
-10.0618
-10.2061
-10.336
-10.4518
-10.554
-10.6427
-10.7182
-10.7808
-10.8307
-10.8679
-10.8927
-10.9051
96.7841
97.2002
97.348
97.2462
96.9127
96.3643
95.6181
94.6887
93.5919
92.3429
90.9533
89.4368
87.8072
86.0758
84.2529
82.3489
80.3743
78.3391
76.2525
74.1226
71.957
69.7629
67.5474
65.3171
63.0782
60.8366
58.5977
56.3664
54.1471
51.944
49.761
47.6016
45.4688
43.3656
41.2948
39.2585
37.259
35.2982
33.3776
31.4988
29.663
27.8712
26.1243
24.423
22.7678
21.1591
19.5972
18.0822
16.6141
15.1927
13.818
12.4895
11.2068
9.96953
8.77711
7.62891
6.52425
5.46243
4.44265
3.46411
2.52595
1.62729
0.767218
-0.0551892
-0.840882
-1.59082
-2.30598
-2.98732
-3.63584
-4.25249
-4.83825
-5.39409
-5.92096
-6.41979
-6.8915
-7.33701
-7.7572
-8.15293
-8.52505
-8.87436
-9.20165
-9.50768
-9.79319
-10.0589
-10.3054
-10.5333
-10.7433
-10.936
-11.1117
-11.2711
-11.4146
-11.5425
-11.6553
-11.7532
-11.8367
-11.9058
-11.9609
-12.002
-12.0294
-12.0431
105.906
106.361
106.523
106.411
106.046
105.446
104.63
103.613
102.412
101.046
99.5253
97.8659
96.0827
94.1881
92.1934
90.1099
87.9492
85.7223
83.439
81.1083
78.7386
76.3377
73.9134
71.4729
69.023
66.5702
64.1203
61.6787
59.2502
56.8396
54.4508
52.0878
49.754
47.4527
45.1866
42.9585
40.7705
38.6249
36.5233
34.4675
32.4586
30.4979
28.5864
26.7247
24.9135
23.1533
21.4442
19.7864
18.1799
16.6246
15.1202
13.6665
12.263
10.9091
9.60431
8.3479
7.13914
5.97724
4.86135
3.79058
2.76401
1.78065
0.839525
-0.0603909
-0.920132
-1.74075
-2.52331
-3.26887
-3.9785
-4.65327
-5.29424
-5.90246
-6.47898
-7.02482
-7.541
-8.02849
-8.48828
-8.92131
-9.3285
-9.71073
-10.0689
-10.4037
-10.7162
-11.0069
-11.2766
-11.526
-11.7558
-11.9666
-12.159
-12.3334
-12.4903
-12.6303
-12.7537
-12.8609
-12.9522
-13.0279
-13.0881
-13.1332
-13.1631
-13.1781
115.001
115.495
115.671
115.55
115.154
114.502
113.615
112.511
111.208
109.724
108.073
106.271
104.334
102.277
100.111
97.8487
95.5025
93.0843
90.6049
88.0741
85.5008
82.8937
80.2612
77.6111
74.9509
72.2874
69.6271
66.9758
64.3388
61.7211
59.1271
56.5612
54.027
51.528
49.0673
46.6478
44.272
41.9421
39.66
37.4276
35.2462
33.1172
31.0414
29.0199
27.0532
25.1417
23.2858
21.4857
19.7412
18.0523
16.4188
14.8402
13.3162
11.846
10.4291
9.06483
7.75226
6.49057
5.27885
4.11612
3.00138
1.93358
0.911624
-0.0655779
-0.999155
-1.89025
-2.74001
-3.5496
-4.32018
-5.0529
-5.74892
-6.40938
-7.03541
-7.62813
-8.18863
-8.718
-9.21727
-9.68749
-10.1296
-10.5447
-10.9336
-11.2972
-11.6365
-11.9522
-12.245
-12.5159
-12.7655
-12.9943
-13.2032
-13.3926
-13.563
-13.7151
-13.8491
-13.9655
-14.0646
-14.1467
-14.2122
-14.2611
-14.2936
-14.3098
124.068
124.601
124.791
124.66
124.233
123.53
122.573
121.382
119.976
118.375
116.593
114.65
112.56
110.341
108.004
105.563
103.032
100.423
97.7485
95.018
92.2419
89.4292
86.5892
83.7301
80.8602
77.9867
75.1167
72.2563
69.4114
66.5873
63.7889
61.0206
58.2866
55.5906
52.9359
50.3257
47.7625
45.2489
42.7869
40.3785
38.0251
35.7282
33.4888
31.3079
29.1861
27.1239
25.1217
23.1796
21.2976
19.4756
17.7133
16.0103
14.366
12.78
11.2514
9.77952
8.36347
7.0023
5.69505
4.44065
3.23802
2.08602
0.983498
-0.0707488
-1.07793
-2.03928
-2.95604
-3.82946
-4.66079
-5.45128
-6.20218
-6.91471
-7.5901
-8.22955
-8.83424
-9.40535
-9.94399
-10.4513
-10.9283
-11.3761
-11.7956
-12.1879
-12.5539
-12.8945
-13.2105
-13.5027
-13.7719
-14.0189
-14.2442
-14.4485
-14.6324
-14.7964
-14.941
-15.0665
-15.1735
-15.2621
-15.3327
-15.3854
-15.4205
-15.438
133.104
133.677
133.88
133.74
133.281
132.527
131.501
130.223
128.714
126.996
125.085
123
120.759
118.377
115.87
113.252
110.536
107.738
104.868
101.939
98.9602
95.9427
92.8958
89.8285
86.7496
83.6668
80.5877
77.519
74.4669
71.4371
68.4349
65.465
62.5319
59.6395
56.7915
53.9911
51.2412
48.5445
45.9033
43.3194
40.7946
38.3304
35.928
33.5882
31.3118
29.0995
26.9515
24.8679
22.8488
20.8941
19.0034
17.1764
15.4124
13.7108
12.0709
10.4918
8.97261
7.51231
6.10984
4.76408
3.47386
2.23796
1.05513
-0.0759023
-1.15644
-2.18781
-3.17134
-4.10838
-5.00026
-5.84832
-6.65391
-7.41834
-8.14292
-8.82894
-9.47768
-10.0904
-10.6682
-11.2125
-11.7242
-12.2046
-12.6548
-13.0756
-13.4683
-13.8336
-14.1727
-14.4862
-14.775
-15.0399
-15.2816
-15.5008
-15.6981
-15.8741
-16.0292
-16.1639
-16.2786
-16.3737
-16.4494
-16.506
-16.5437
-16.5624
142.108
142.719
142.936
142.786
142.297
141.491
140.396
139.031
137.421
135.587
133.546
131.32
128.927
126.385
123.708
120.913
118.013
115.025
111.961
108.834
105.654
102.433
99.1795
95.9048
92.6175
89.3263
86.0389
82.7626
79.5041
76.2694
73.064
69.8933
66.7617
63.6737
60.633
57.6432
54.7073
51.8282
49.0083
46.2496
43.5541
40.9232
38.3582
35.8602
33.4299
31.0679
28.7745
26.55
24.3944
22.3074
20.2889
18.3382
16.4549
14.6382
12.8874
11.2015
9.57954
8.02046
6.52313
5.08633
3.70884
2.38934
1.1265
-0.0810371
-1.23467
-2.3358
-3.38586
-4.38628
-5.33849
-6.24392
-7.104
-7.92013
-8.69372
-9.42615
-10.1188
-10.7729
-11.3899
-11.9709
-12.5173
-13.0302
-13.5108
-13.9601
-14.3793
-14.7694
-15.1313
-15.466
-15.7744
-16.0572
-16.3153
-16.5493
-16.76
-16.9478
-17.1134
-17.2573
-17.3797
-17.4813
-17.5621
-17.6225
-17.6627
-17.6828
151.076
151.726
151.957
151.798
151.277
150.421
149.256
147.806
146.093
144.144
141.975
139.608
137.064
134.361
131.515
128.543
125.461
122.285
119.027
115.702
112.322
108.897
105.439
101.957
98.4626
94.9637
91.4689
87.9858
84.5216
81.0827
77.6751
74.3042
70.9751
67.6921
64.4596
61.2811
58.1599
55.0991
52.1012
49.1685
46.3028
43.5059
40.779
38.1233
35.5396
33.0286
30.5905
28.2256
25.9339
23.7153
21.5693
19.4955
17.4934
15.5621
13.7007
11.9084
10.1841
8.52663
6.9348
5.40733
3.9429
2.54013
1.19759
-0.086152
-1.31259
-2.48322
-3.59955
-4.6631
-5.6754
-6.63797
-7.55233
-8.41997
-9.24239
-10.021
-10.7574
-11.4528
-12.1087
-12.7264
-13.3073
-13.8525
-14.3634
-14.8411
-15.2868
-15.7015
-16.0863
-16.4421
-16.7699
-17.0706
-17.345
-17.5938
-17.8177
-18.0174
-18.1935
-18.3464
-18.4766
-18.5845
-18.6705
-18.7347
-18.7774
-18.7987
160.007
160.695
160.94
160.771
160.22
159.313
158.08
156.543
154.73
152.665
150.368
147.861
145.167
142.304
139.29
136.142
132.878
129.514
126.064
122.542
118.962
115.335
111.672
107.985
104.283
100.578
96.8763
93.1873
89.5183
85.8761
82.2671
78.6969
75.1709
71.6939
68.2702
64.9038
61.5982
58.3564
55.1813
52.0752
49.0401
46.0778
43.1897
40.3771
37.6406
34.9811
32.3989
29.8942
27.4671
25.1172
22.8444
20.6481
18.5275
16.482
14.5107
12.6124
10.7862
9.0307
7.34476
5.727
4.17599
2.69029
1.26839
-0.0912457
-1.39019
-2.63002
-3.81234
-4.93877
-6.01092
-7.03039
-7.9988
-8.91774
-9.78877
-10.6135
-11.3933
-12.1299
-12.8245
-13.4788
-14.094
-14.6715
-15.2125
-15.7185
-16.1905
-16.6297
-17.0372
-17.4141
-17.7613
-18.0798
-18.3704
-18.6339
-18.871
-19.0825
-19.269
-19.4309
-19.5689
-19.6832
-19.7742
-19.8422
-19.8875
-19.9101
168.899
169.625
169.883
169.706
169.124
168.167
166.864
165.243
163.328
161.149
158.724
156.078
153.234
150.212
147.031
143.708
140.262
136.711
133.069
129.352
125.573
121.744
117.878
113.986
110.079
106.167
102.26
98.3658
94.4929
90.6483
86.8387
83.0701
79.3482
75.678
72.064
68.5106
65.0212
61.5993
58.2477
54.969
51.7653
48.6384
45.5898
42.6208
39.7323
36.925
34.1993
31.5555
28.9934
26.513
24.1139
21.7955
19.5571
17.398
15.317
13.3133
11.3856
9.53254
7.75292
6.04525
4.40805
2.83979
1.33888
-0.0963171
-1.46744
-2.77617
-4.0242
-5.21322
-6.34495
-7.42108
-8.4433
-9.4133
-10.3327
-11.2033
-12.0264
-12.8039
-13.5372
-14.2278
-14.8772
-15.4868
-16.0579
-16.592
-17.0902
-17.5538
-17.984
-18.3818
-18.7483
-19.0845
-19.3912
-19.6694
-19.9197
-20.143
-20.3398
-20.5107
-20.6563
-20.777
-20.8731
-20.9449
-20.9926
-21.0165
177.749
178.513
178.785
178.598
177.985
176.978
175.608
173.901
171.887
169.592
167.041
164.256
161.263
158.083
154.735
151.238
147.612
143.874
140.042
136.13
132.153
128.123
124.054
119.958
115.846
111.73
107.618
103.52
99.4442
95.3982
91.3889
87.4229
83.5059
79.6434
75.8401
72.1004
68.4282
64.827
61.2998
57.8493
54.4777
51.1869
47.9787
44.8541
41.8142
38.8598
35.9913
33.2089
30.5126
27.9023
25.3774
22.9375
20.5819
18.3096
16.1196
14.0109
11.9821
10.032
8.15916
6.36201
4.63903
2.98859
1.40903
-0.101365
-1.54433
-2.92164
-4.23506
-5.48638
-6.67741
-7.80993
-8.88572
-9.90654
-10.8742
-11.7903
-12.6566
-13.4748
-14.2465
-14.9733
-15.6567
-16.2982
-16.8993
-17.4614
-17.9857
-18.4736
-18.9263
-19.345
-19.7307
-20.0845
-20.4073
-20.7
-20.9635
-21.1984
-21.4056
-21.5855
-21.7387
-21.8657
-21.9668
-22.0424
-22.0926
-22.1177
186.555
187.357
187.642
187.446
186.803
185.746
184.308
182.517
180.402
177.995
175.316
172.393
169.252
165.915
162.401
158.731
154.925
151.002
146.98
142.874
138.7
134.471
130.2
125.901
121.586
117.265
112.95
108.649
104.371
100.124
95.9166
91.754
87.643
83.5891
79.5974
75.6724
71.8183
68.0387
64.3368
60.7153
57.1767
53.7229
50.3556
47.0763
43.8858
40.7851
37.7744
34.8542
32.0243
29.2846
26.6347
24.0739
21.6016
19.2167
16.9182
14.705
12.5758
10.529
8.56338
6.6772
4.86886
3.13665
1.47884
-0.106387
-1.62084
-3.06638
-4.44487
-5.7582
-7.00823
-8.19685
-9.32594
-10.3973
-11.4129
-12.3744
-13.2837
-14.1424
-14.9523
-15.7151
-16.4324
-17.1057
-17.7366
-18.3265
-18.8768
-19.3889
-19.864
-20.3034
-20.7082
-21.0795
-21.4183
-21.7255
-22.0021
-22.2487
-22.466
-22.6549
-22.8157
-22.9489
-23.0551
-23.1344
-23.1871
-23.2135
195.315
196.155
196.454
196.248
195.575
194.468
192.962
191.087
188.874
186.353
183.549
180.489
177.2
173.706
170.027
166.184
162.2
158.093
153.882
149.583
145.213
140.785
136.314
131.813
127.295
122.772
118.254
113.751
109.272
104.826
100.421
96.0626
91.7585
87.5142
83.3351
79.2258
75.1907
71.2336
67.3579
63.5663
59.8615
56.2456
52.7202
49.2869
45.9466
42.7002
39.5482
36.4908
33.5281
30.6597
27.8854
25.2044
22.6159
20.119
17.7127
15.3955
13.1663
11.0235
8.96549
6.99074
5.09748
3.28394
1.54828
-0.111384
-1.69695
-3.21037
-4.65359
-6.02859
-7.33732
-8.58176
-9.76386
-10.8856
-11.9488
-12.9555
-13.9074
-14.8065
-15.6545
-16.4531
-17.204
-17.9089
-18.5694
-19.187
-19.7632
-20.2993
-20.7968
-21.2568
-21.6806
-22.0694
-22.4241
-22.7457
-23.0352
-23.2934
-23.521
-23.7187
-23.887
-24.0266
-24.1377
-24.2207
-24.2759
-24.3035
204.027
204.905
205.216
205.002
204.299
203.143
201.569
199.61
197.298
194.665
191.736
188.539
185.104
181.454
177.611
173.597
169.435
165.145
160.746
156.255
151.69
147.065
142.394
137.693
132.973
128.248
123.528
118.824
114.146
109.502
104.9
100.347
95.8514
91.4178
87.0522
82.7596
78.5446
74.411
70.3623
66.4017
62.5316
58.7544
55.0718
51.4853
47.996
44.6048
41.3122
38.1185
35.0236
32.0273
29.1292
26.3286
23.6247
21.0164
18.5027
16.0822
13.7536
11.5152
9.36539
7.30256
5.32485
3.43042
1.61734
-0.116353
-1.77265
-3.35357
-4.86117
-6.29749
-7.66459
-8.96454
-10.1994
-11.3711
-12.4818
-13.5333
-14.5278
-15.4669
-16.3527
-17.1869
-17.9714
-18.7077
-19.3977
-20.0428
-20.6447
-21.2048
-21.7244
-22.2049
-22.6477
-23.0537
-23.4243
-23.7603
-24.0627
-24.3324
-24.5701
-24.7766
-24.9525
-25.0983
-25.2143
-25.3011
-25.3588
-25.3876
212.689
213.603
213.928
213.705
212.972
211.767
210.127
208.084
205.674
202.929
199.875
196.543
192.962
189.157
185.151
180.967
176.628
172.155
167.57
162.889
158.13
153.308
148.439
143.538
138.618
133.692
128.772
123.869
118.992
114.15
109.353
104.607
99.9206
95.2987
90.7478
86.2731
81.879
77.57
73.3494
69.2206
65.1863
61.2487
57.4097
53.671
50.0336
46.4984
43.0661
39.7367
36.5104
33.387
30.3658
27.4463
24.6276
21.9087
19.2882
16.765
14.3374
12.004
9.76298
7.61257
5.55091
3.57605
1.686
-0.121293
-1.8479
-3.49594
-5.06754
-6.56484
-7.98998
-9.34512
-10.6324
-11.8539
-13.0117
-14.1079
-15.1445
-16.1235
-17.0469
-17.9166
-18.7343
-19.502
-20.2212
-20.8937
-21.5211
-22.105
-22.6467
-23.1476
-23.6091
-24.0324
-24.4187
-24.769
-25.0842
-25.3654
-25.6132
-25.8285
-26.0118
-26.1638
-26.2848
-26.3752
-26.4353
-26.4653
221.298
222.25
222.588
222.355
221.592
220.338
218.632
216.507
213.999
211.143
207.966
204.499
200.773
196.813
192.645
188.292
183.777
179.124
174.353
169.482
164.53
159.513
154.448
149.348
144.229
139.104
133.985
128.883
123.808
118.771
113.779
108.842
103.965
99.1562
94.4211
89.7652
85.1933
80.7098
76.3184
72.0225
67.8249
63.7279
59.7335
55.8435
52.0588
48.3806
44.8093
41.3452
37.9883
34.7384
31.5949
28.5573
25.6245
22.7955
20.069
17.4436
14.9178
12.4899
10.1582
7.92071
5.7756
3.7208
1.75424
-0.126204
-1.9227
-3.63745
-5.27266
-6.83057
-8.3134
-9.72338
-11.0627
-12.3337
-13.5384
-14.6789
-15.7575
-16.7762
-17.737
-18.6418
-19.4926
-20.2913
-21.0397
-21.7395
-22.3923
-22.9997
-23.5633
-24.0846
-24.5648
-25.0052
-25.4071
-25.7716
-26.0996
-26.3921
-26.65
-26.874
-27.0647
-27.2228
-27.3487
-27.4428
-27.5054
-27.5366
229.853
230.841
231.192
230.95
230.158
228.856
227.083
224.877
222.272
219.305
216.005
212.404
208.534
204.421
200.092
195.57
190.881
186.048
181.092
176.034
170.89
165.68
160.418
155.121
149.805
144.481
139.164
133.865
128.594
123.362
118.178
113.049
107.984
102.989
98.0711
93.2352
88.4866
83.8297
79.2686
74.8066
70.4467
66.1914
62.0426
58.0021
54.0712
50.2508
46.5414
42.9434
39.4568
36.0812
32.8163
29.6612
26.615
23.6766
20.8447
18.1179
15.4944
12.9727
10.5508
8.2269
5.99886
3.86463
1.82205
-0.131083
-1.99703
-3.77806
-5.47648
-7.09461
-8.63476
-10.0993
-11.4904
-12.8104
-14.0617
-15.2464
-16.3666
-17.4247
-18.4226
-19.3624
-20.2461
-21.0757
-21.853
-22.5798
-23.2579
-23.8888
-24.4742
-25.0156
-25.5144
-25.9718
-26.3893
-26.7678
-27.1085
-27.4123
-27.6802
-27.9128
-28.1109
-28.2751
-28.4059
-28.5036
-28.5686
-28.6011
238.351
239.375
239.739
239.489
238.667
237.317
235.479
233.19
230.489
227.413
223.991
220.257
216.243
211.979
207.49
202.801
197.938
192.926
187.788
182.542
177.208
171.805
166.349
160.856
155.343
149.823
144.309
138.814
133.349
127.923
122.547
117.229
111.976
106.797
101.697
96.6821
91.758
86.929
82.1992
77.5723
73.0512
68.6385
64.3364
60.1465
56.0703
52.1086
48.2621
44.5311
40.9155
37.4152
34.0295
30.7578
27.599
24.552
21.6154
18.7877
16.0673
13.4523
10.9409
8.53105
6.22064
4.00751
1.88941
-0.13593
-2.07086
-3.91774
-5.67895
-7.3569
-8.954
-10.4726
-11.9152
-13.2841
-14.5816
-15.81
-16.9717
-18.0689
-19.1037
-20.0783
-20.9947
-21.8549
-22.6609
-23.4146
-24.1177
-24.772
-25.379
-25.9404
-26.4576
-26.932
-27.3649
-27.7574
-28.1107
-28.4258
-28.7035
-28.9448
-29.1502
-29.3205
-29.4561
-29.5574
-29.6248
-29.6585
246.79
247.851
248.228
247.968
247.118
245.719
243.816
241.447
238.65
235.465
231.922
228.055
223.9
219.484
214.836
209.981
204.946
199.757
194.436
189.005
183.483
177.888
172.239
166.552
160.843
155.127
149.419
143.729
138.07
132.452
126.886
121.379
115.941
110.578
105.297
100.105
95.0067
90.0068
85.1096
80.3188
75.6376
71.0687
66.6143
62.2761
58.0555
53.9535
49.9709
46.1077
42.3642
38.7399
35.2344
31.8468
28.5762
25.4213
22.3807
19.4529
16.6362
13.9286
11.3283
8.8331
6.44088
4.14939
1.95631
-0.140744
-2.14418
-4.05645
-5.88002
-7.61738
-9.27102
-10.8434
-12.3371
-13.7544
-15.0978
-16.3698
-17.5726
-18.7086
-19.7801
-20.7891
-21.738
-22.6287
-23.4633
-24.2436
-24.9716
-25.6491
-26.2776
-26.8589
-27.3944
-27.8856
-28.3338
-28.7402
-29.106
-29.4322
-29.7198
-29.9696
-30.1823
-30.3586
-30.499
-30.6039
-30.6737
-30.7085
255.168
256.265
256.655
256.386
255.507
254.061
252.093
249.643
246.752
243.458
239.795
235.797
231.501
226.936
222.129
217.11
211.904
206.539
201.037
195.421
189.711
183.927
178.086
172.206
166.303
160.394
154.491
148.608
142.757
136.949
131.193
125.5
119.877
114.332
108.872
103.504
98.2321
93.0624
87.9989
83.0455
78.2054
73.4814
68.8757
64.3902
60.0264
55.7852
51.6673
47.673
43.8024
40.0551
36.4305
32.9279
29.5463
26.2843
23.1405
20.1133
17.2009
14.4015
11.7129
9.13296
6.65954
4.29026
2.02272
-0.145523
-2.21697
-4.19416
-6.07964
-7.87598
-9.58576
-11.2115
-12.7559
-14.2213
-15.6104
-16.9255
-18.1692
-19.3438
-20.4516
-21.4949
-22.476
-23.3969
-24.2598
-25.0667
-25.8194
-26.5198
-27.1697
-27.7707
-28.3244
-28.8322
-29.2956
-29.7159
-30.0941
-30.4314
-30.7287
-30.987
-31.2069
-31.3892
-31.5344
-31.6429
-31.715
-31.751
263.483
264.616
265.018
264.741
263.833
262.34
260.308
257.779
254.793
251.392
247.609
243.481
239.045
234.331
229.368
224.185
218.809
213.269
207.588
201.79
195.894
189.92
183.889
177.817
171.723
165.621
159.525
153.451
147.409
141.412
135.469
129.59
123.783
118.058
112.42
106.877
101.433
96.095
90.8665
85.7517
80.7539
75.8759
71.1202
66.4885
61.9825
57.6031
53.351
49.2265
45.2298
41.3603
37.6177
34.001
30.5091
27.1408
23.8946
20.7687
17.7615
14.8708
12.0945
9.43058
6.87656
4.43006
2.08864
-0.150266
-2.28922
-4.33084
-6.27776
-8.13264
-9.89813
-11.5769
-13.1716
-14.6848
-16.1191
-17.4771
-18.7613
-19.9741
-21.118
-22.1954
-23.2084
-24.1593
-25.0504
-25.8835
-26.6608
-27.384
-28.0551
-28.6757
-29.2474
-29.7718
-30.2503
-30.6842
-31.0748
-31.423
-31.7301
-31.9968
-32.2239
-32.4121
-32.562
-32.674
-32.7485
-32.7857
271.733
272.901
273.316
273.031
272.094
270.554
268.459
265.85
262.771
259.263
255.362
251.105
246.53
241.668
236.55
231.204
225.661
219.947
214.088
208.108
202.027
195.867
189.647
183.385
177.1
170.806
164.521
158.256
152.025
145.839
139.71
133.647
127.659
121.754
115.94
110.223
104.609
99.1039
93.7117
88.4367
83.2824
78.2517
73.3471
68.5704
63.9233
59.4067
55.0215
50.7679
46.646
42.6554
38.7956
35.0656
31.4644
27.9906
24.6428
21.419
18.3176
15.3364
12.4732
9.72587
7.09187
4.56878
2.15403
-0.154972
-2.3609
-4.46644
-6.47433
-8.38728
-10.2081
-11.9394
-13.584
-15.1446
-16.6238
-18.0243
-19.3487
-20.5995
-21.7793
-22.8903
-23.9351
-24.9158
-25.8347
-26.694
-27.4956
-28.2415
-28.9335
-29.5736
-30.1632
-30.704
-31.1975
-31.645
-32.0478
-32.407
-32.7236
-32.9986
-33.2329
-33.427
-33.5816
-33.6971
-33.7739
-33.8123
279.916
281.12
281.547
281.253
280.288
278.702
276.544
273.856
270.684
267.071
263.052
258.667
253.954
248.946
243.673
238.167
232.456
226.571
220.536
214.375
208.111
201.766
195.358
188.908
182.433
175.95
169.475
163.022
156.603
150.231
143.918
137.672
131.504
125.421
119.432
113.542
107.759
102.088
96.5338
91.1
85.7904
80.6082
75.5559
70.6354
65.8483
61.1957
56.6784
52.2968
48.0507
43.9399
39.9639
36.1216
32.4119
28.8336
25.3849
22.0641
18.8692
15.7982
12.8489
10.0188
7.30544
4.70636
2.2189
-0.15964
-2.432
-4.60095
-6.6693
-8.63986
-10.5155
-12.2989
-13.9931
-15.6006
-17.1244
-18.5671
-19.9314
-21.2199
-22.4351
-23.5797
-24.6559
-25.6661
-26.6127
-27.4978
-28.3236
-29.0919
-29.8048
-30.4641
-31.0715
-31.6286
-32.137
-32.598
-33.0129
-33.3829
-33.7091
-33.9924
-34.2337
-34.4336
-34.5929
-34.7119
-34.791
-34.8305
288.03
289.268
289.708
289.406
288.413
286.781
284.56
281.794
278.53
274.813
270.678
266.165
261.315
256.162
250.737
245.071
239.195
233.138
226.928
220.589
214.144
207.614
201.021
194.384
187.721
181.051
174.388
167.747
161.143
154.586
148.089
141.663
135.316
129.057
122.894
116.834
110.883
105.048
99.3321
93.7407
88.2773
82.9449
77.746
72.6829
67.757
62.9696
58.3214
53.8127
49.4436
45.2136
41.1223
37.1686
33.3515
29.6694
26.1207
22.7036
19.4162
16.2562
13.2213
10.3092
7.5172
4.84279
2.28322
-0.164268
-2.50249
-4.73432
-6.86262
-8.89031
-10.8203
-12.6554
-14.3987
-16.0529
-17.6208
-19.1053
-20.5092
-21.835
-23.0855
-24.2632
-25.3706
-26.4101
-27.3842
-28.2949
-29.1446
-29.9352
-30.6688
-31.3472
-31.9722
-32.5455
-33.0686
-33.5429
-33.9698
-34.3506
-34.6862
-34.9777
-35.226
-35.4318
-35.5956
-35.7181
-35.7995
-35.8402
296.073
297.346
297.798
297.487
296.467
294.789
292.506
289.663
286.308
282.487
278.236
273.598
268.612
263.315
257.738
251.914
245.874
239.649
233.265
226.749
220.124
213.412
206.634
199.812
192.963
186.106
179.257
172.431
165.642
158.903
152.225
145.619
139.094
132.66
126.325
120.096
113.979
107.981
102.106
96.3583
90.7423
85.261
79.917
74.7125
69.6491
64.728
59.95
55.3154
50.8242
46.4762
42.2706
38.2065
34.2828
30.4978
26.8501
23.3376
19.9584
16.7101
13.5905
10.597
7.72711
4.97802
2.34698
-0.168856
-2.57238
-4.86652
-7.05426
-9.13856
-11.1224
-13.0088
-14.8008
-16.5011
-18.1129
-19.6388
-21.0819
-22.4447
-23.7301
-24.9407
-26.079
-27.1476
-28.1488
-29.085
-29.9584
-30.7711
-31.5252
-32.2226
-32.865
-33.4543
-33.992
-34.4795
-34.9184
-35.3098
-35.6548
-35.9544
-36.2096
-36.4212
-36.5896
-36.7155
-36.7992
-36.841
304.043
305.35
305.815
305.495
304.447
302.724
300.38
297.461
294.015
290.091
285.726
280.963
275.843
270.403
264.676
258.695
252.493
246.1
239.544
232.853
226.049
219.156
212.197
205.19
198.158
191.116
184.083
177.073
170.101
163.18
156.322
149.538
142.838
136.231
129.726
123.329
117.048
110.888
104.854
98.9522
93.185
87.5561
82.0683
76.7237
71.524
66.4704
61.5637
56.8044
52.1923
47.7273
43.4085
39.235
35.2056
31.3188
27.5729
23.9658
20.4956
17.1599
13.9564
10.8823
7.93512
5.11202
2.41015
-0.173402
-2.64162
-4.99752
-7.24415
-9.38456
-11.4218
-13.359
-15.1992
-16.9453
-18.6004
-20.1675
-21.6494
-23.0489
-24.3689
-25.6121
-26.7811
-27.8784
-28.9066
-29.868
-30.7649
-31.5995
-32.3738
-33.0899
-33.7497
-34.3548
-34.907
-35.4077
-35.8584
-36.2603
-36.6146
-36.9223
-37.1844
-37.4016
-37.5745
-37.7038
-37.7898
-37.8327
311.938
313.279
313.756