/*--------------------------------*- C++ -*----------------------------------*\
| =========                 |                                                 |
| \\      /  F ield         | OpenFOAM: The Open Source CFD Toolbox           |
|  \\    /   O peration     | Version:  2406                                  |
|   \\  /    A nd           | Website:  www.openfoam.com                      |
|    \\/     M anipulation  |                                                 |
\*---------------------------------------------------------------------------*/
FoamFile
{
    version     2.0;
    format      ascii;
    arch        "LSB;label=32;scalar=64";
    class       volScalarField;
    location    "175";
    object      gradTx;
}
// * * * * * * * * * * * * * * * * * * * * * * * * * * * * * * * * * * * * * //

dimensions      [0 -1 0 1 0 0 0];

internalField   nonuniform List<scalar> 
20000
(
5.53669
5.49658
5.44449
5.38142
5.30836
5.22601
5.13522
5.03765
4.93354
4.82306
4.7076
4.58808
4.46482
4.33824
4.20896
4.07762
3.9448
3.81092
3.67637
3.54152
3.40671
3.27232
3.13867
3.00607
2.87478
2.74504
2.61708
2.49109
2.36724
2.24569
2.12658
2.01004
1.89616
1.78506
1.67679
1.57143
1.46902
1.36962
1.27324
1.17991
1.08964
1.00242
0.918248
0.837107
0.758974
0.683821
0.611611
0.542304
0.475855
0.412214
0.351327
0.293137
0.237585
0.184606
0.134136
0.0861084
0.0404534
-0.00289887
-0.0440194
-0.08298
-0.119853
-0.154712
-0.187628
-0.218674
-0.247923
-0.275446
-0.301313
-0.325595
-0.348361
-0.369678
-0.389613
-0.408231
-0.425595
-0.441767
-0.456809
-0.470777
-0.483729
-0.495719
-0.506801
-0.517024
-0.526439
-0.535091
-0.543024
-0.550281
-0.556903
-0.562926
-0.568386
-0.573317
-0.577748
-0.58171
-0.585228
-0.588326
-0.591025
-0.593345
-0.595303
-0.596912
-0.598185
-0.599131
-0.599758
-0.60007
16.6087
16.4884
16.3322
16.143
15.9234
15.6768
15.405
15.1117
14.799
14.4679
14.1219
13.7632
13.3933
13.0135
12.6258
12.2319
11.8335
11.4319
11.0282
10.6237
10.2193
9.81615
9.41524
9.01746
8.62363
8.23445
7.8506
7.47265
7.10113
6.73652
6.37922
6.02962
5.68803
5.35472
5.02995
4.71389
4.40671
4.10852
3.81942
3.53945
3.26865
3.00701
2.75452
2.51112
2.27674
2.05129
1.83468
1.62678
1.42745
1.23654
1.05389
0.879339
0.712695
0.553773
0.402376
0.258304
0.12135
-0.00869599
-0.132047
-0.24892
-0.35953
-0.464097
-0.562837
-0.655969
-0.743708
-0.826269
-0.903865
-0.976706
-1.045
-1.10894
-1.16874
-1.22459
-1.27668
-1.32519
-1.37031
-1.41221
-1.45107
-1.48703
-1.52028
-1.55095
-1.57919
-1.60514
-1.62894
-1.65071
-1.67057
-1.68864
-1.70502
-1.71981
-1.7331
-1.74499
-1.75554
-1.76483
-1.77293
-1.77989
-1.78576
-1.79059
-1.79441
-1.79725
-1.79913
-1.80006
27.6769
27.4764
27.2156
26.9004
26.5345
26.1236
25.6711
25.182
24.6605
24.1093
23.5329
22.9351
22.3184
21.6855
21.0394
20.3832
19.7193
19.05
18.3774
17.7032
17.0293
16.3575
15.6895
15.0266
14.3703
13.7218
13.0822
12.4524
11.8333
11.2257
10.6303
10.0477
9.47848
8.92307
8.38187
7.85519
7.34331
6.84641
6.36465
5.89812
5.44686
5.01087
4.59011
4.1845
3.79394
3.41826
3.0573
2.71085
2.37869
2.06056
1.7562
1.46532
1.18763
0.922803
0.670516
0.430436
0.202217
-0.014491
-0.220043
-0.414798
-0.599118
-0.773367
-0.937907
-1.0931
-1.23931
-1.37689
-1.50619
-1.62758
-1.74138
-1.84794
-1.94758
-2.04065
-2.12745
-2.20829
-2.28348
-2.3533
-2.41805
-2.47798
-2.53338
-2.58448
-2.63155
-2.67479
-2.71445
-2.75073
-2.78383
-2.81393
-2.84123
-2.86588
-2.88803
-2.90783
-2.92542
-2.9409
-2.9544
-2.96599
-2.97578
-2.98382
-2.99019
-2.99492
-2.99805
-2.99961
38.7381
38.4578
38.0927
37.6512
37.1392
36.5639
35.9306
35.2461
34.5161
33.7447
32.9381
32.1012
31.238
30.3521
29.4479
28.5294
27.6003
26.6635
25.722
24.7783
23.8351
22.8949
21.9598
21.0321
20.1135
19.2058
18.3106
17.429
16.5625
15.7121
14.8787
14.0633
13.2666
12.4892
11.7317
10.9946
10.2781
9.58261
8.90831
8.25533
7.62372
7.01348
6.42457
5.85686
5.3102
4.78438
4.27916
3.79425
3.32934
2.88407
2.45807
2.05095
1.66227
1.2916
0.938491
0.602461
0.283033
-0.0202824
-0.307984
-0.580574
-0.838559
-1.08245
-1.31275
-1.52996
-1.7346
-1.92717
-2.10815
-2.27804
-2.43732
-2.58647
-2.72595
-2.85621
-2.97769
-3.09085
-3.19608
-3.29381
-3.38443
-3.46832
-3.54585
-3.61739
-3.68325
-3.74379
-3.79929
-3.85007
-3.8964
-3.93854
-3.97674
-4.01124
-4.04224
-4.06996
-4.09458
-4.11625
-4.13514
-4.15137
-4.16506
-4.17632
-4.18523
-4.19185
-4.19623
-4.19842
49.7894
49.4293
48.9604
48.3928
47.7348
46.9952
46.1813
45.3015
44.3632
43.3718
42.3351
41.2594
40.1498
39.0112
37.8491
36.6687
35.4744
34.2704
33.0602
31.8473
30.635
29.4265
28.2248
27.0324
25.8517
24.6851
23.5344
22.4014
21.2877
20.1946
19.1235
18.0755
17.0514
16.0523
15.0787
14.1312
13.2103
12.3164
11.4498
10.6105
9.7987
9.01437
8.25744
7.52777
6.82515
6.14932
5.49997
4.87672
4.27917
3.70687
3.15934
2.63607
2.1365
1.66009
1.20623
0.774338
0.36378
-0.026069
-0.395849
-0.746207
-1.07779
-1.39126
-1.68726
-1.96645
-2.22947
-2.47697
-2.70959
-2.92795
-3.13267
-3.32437
-3.50363
-3.67106
-3.82721
-3.97264
-4.1079
-4.23351
-4.34998
-4.4578
-4.55746
-4.64939
-4.73405
-4.81186
-4.8832
-4.94846
-5.008
-5.06217
-5.11127
-5.15561
-5.19546
-5.23109
-5.26272
-5.29058
-5.31485
-5.33572
-5.35332
-5.36779
-5.37924
-5.38775
-5.39338
-5.39619
60.8284
60.3885
59.816
59.1224
58.3185
57.4149
56.4206
55.3458
54.1993
52.9883
51.7217
50.4074
49.0517
47.6607
46.2411
44.7989
43.3399
41.8689
40.3903
38.9085
37.4274
35.951
34.4827
33.026
31.5836
30.1583
28.7524
27.3682
26.0075
24.6721
23.3636
22.0832
20.8321
19.6114
18.4219
17.2644
16.1393
15.0472
13.9884
12.9631
11.9713
11.013
10.0883
9.19682
8.33842
7.51275
6.71942
5.95798
5.22794
4.52876
3.85983
3.22053
2.61021
2.02816
1.47368
0.946023
0.444437
-0.0318493
-0.483617
-0.911656
-1.31676
-1.69973
-2.06136
-2.40245
-2.72379
-3.02617
-3.31036
-3.57713
-3.82725
-4.06145
-4.28046
-4.485
-4.67577
-4.85345
-5.0187
-5.17216
-5.31445
-5.44619
-5.56793
-5.68026
-5.78369
-5.87874
-5.9659
-6.04563
-6.11837
-6.18455
-6.24453
-6.2987
-6.3474
-6.39092
-6.42957
-6.4636
-6.49326
-6.51875
-6.54025
-6.55793
-6.57192
-6.58231
-6.5892
-6.59263
71.8525
71.3329
70.6567
69.8375
68.8878
67.8204
66.646
65.3764
64.0221
62.5916
61.0955
59.543
57.9415
56.2985
54.6216
52.9181
51.1946
49.457
47.7104
45.96
44.2105
42.4665
40.7322
39.0114
37.3076
35.624
33.9634
32.3283
30.721
29.1436
27.5979
26.0854
24.6076
23.1657
21.7606
20.3933
19.0643
17.7743
16.5236
15.3124
14.1409
13.009
11.9166
10.8636
9.84963
8.87432
7.93721
7.03778
6.17543
5.34952
4.55936
3.8042
3.08327
2.39573
1.74076
1.11748
0.524984
-0.0376217
-0.571265
-1.07688
-1.5554
-2.00778
-2.43495
-2.83786
-3.21744
-3.57461
-3.91031
-4.22543
-4.52088
-4.79752
-5.05623
-5.29784
-5.52318
-5.73306
-5.92826
-6.10953
-6.27762
-6.43322
-6.57704
-6.70972
-6.83189
-6.94417
-7.04713
-7.14131
-7.22724
-7.3054
-7.37626
-7.44025
-7.49776
-7.54918
-7.59483
-7.63503
-7.67007
-7.70017
-7.72557
-7.74646
-7.76298
-7.77526
-7.78339
-7.78745
82.859
82.2597
81.48
80.5352
79.4402
78.2092
76.8549
75.3909
73.8291
72.1795
70.4542
68.6638
66.817
64.9224
62.9886
61.0242
59.0367
57.0329
55.0187
53.0002
50.9827
48.9716
46.9716
44.9872
43.0225
41.081
39.166
37.2804
35.4269
33.6079
31.8253
30.0812
28.377
26.7142
25.0939
23.5172
21.9846
20.497
19.0547
17.658
16.307
15.0017
13.742
12.5277
11.3584
10.2337
9.15304
8.11583
7.12139
6.16897
5.25777
4.38694
3.55557
2.76272
2.00741
1.28865
0.605402
-0.043385
-0.658773
-1.24184
-1.79366
-2.31533
-2.80794
-3.27256
-3.71029
-4.12218
-4.5093
-4.87269
-5.21339
-5.53241
-5.83075
-6.10937
-6.36923
-6.61126
-6.83636
-7.0454
-7.23923
-7.41867
-7.58452
-7.73752
-7.87841
-8.00789
-8.12662
-8.23523
-8.33432
-8.42445
-8.50617
-8.57996
-8.64628
-8.70557
-8.75822
-8.80458
-8.84498
-8.8797
-8.90899
-8.93307
-8.95212
-8.96628
-8.97567
-8.98034
93.845
93.1663
92.2832
91.2132
89.973
88.5788
87.0449
85.3867
83.6178
81.7496
79.7955
77.7677
75.6761
73.5302
71.3401
69.1153
66.8643
64.5947
62.3135
60.0273
57.7423
55.4645
53.1994
50.952
48.7267
46.5278
44.3589
42.2233
40.1241
38.0638
36.045
34.0696
32.1394
30.2562
28.4211
26.6352
24.8995
23.2147
21.5811
19.9992
18.4691
16.9907
15.564
14.1887
12.8644
11.5906
10.3666
9.19189
8.06559
6.9869
5.95488
4.96859
4.02699
3.12902
2.27357
1.45951
0.68567
-0.0491377
-0.746118
-1.40649
-2.03148
-2.62232
-3.18024
-3.70647
-4.20222
-4.66873
-5.10717
-5.51875
-5.90462
-6.26594
-6.60383
-6.91939
-7.21371
-7.48783
-7.74277
-7.97953
-8.19906
-8.40229
-8.59013
-8.76342
-8.92299
-9.06963
-9.2041
-9.32711
-9.43934
-9.54143
-9.63398
-9.71755
-9.79267
-9.85982
-9.91945
-9.97195
-10.0177
-10.057
-10.0902
-10.1175
-10.1391
-10.1551
-10.1657
-10.171
104.808
104.05
103.064
101.869
100.484
98.9264
97.2134
95.3615
93.386
91.2995
89.1172
86.8525
84.5165
82.1199
79.674
77.1893
74.6753
72.1406
69.5929
67.0396
64.4877
61.9438
59.4141
56.9041
54.4189
51.9631
49.5409
47.1558
44.8113
42.5104
40.2557
38.0495
35.8939
33.7907
31.7412
29.7467
27.8083
25.9266
24.1022
22.3355
20.6266
18.9756
17.3822
15.8462
14.3672
12.9446
11.5776
10.2657
9.00781
7.8031
6.65053
5.54901
4.49742
3.49454
2.53917
1.63001
0.765768
-0.0548784
-0.833279
-1.5708
-2.2688
-2.92866
-3.55175
-4.13945
-4.69312
-5.21412
-5.70379
-6.16344
-6.59439
-6.99792
-7.37528
-7.72771
-8.05641
-8.36255
-8.64727
-8.91169
-9.15687
-9.38384
-9.59362
-9.78715
-9.96536
-10.1291
-10.2793
-10.4167
-10.542
-10.656
-10.7594
-10.8527
-10.9366
-11.0116
-11.0782
-11.1369
-11.188
-11.2319
-11.2689
-11.2994
-11.3235
-11.3414
-11.3533
-11.3592
115.745
114.908
113.819
112.499
110.969
109.25
107.358
105.313
103.131
100.827
98.4169
95.9158
93.336
90.6894
87.9883
85.2443
82.4679
79.6687
76.8551
74.0353
71.2171
68.4078
65.6141
62.8422
60.0977
57.3857
54.7106
52.0767
49.4876
46.9465
44.4565
42.0201
39.6396
37.3168
35.0535
32.8509
30.7101
28.6321
26.6173
24.6663
22.7791
20.9557
19.1961
17.4998
15.8665
14.2954
12.7858
11.3369
9.9478
8.61737
7.34453
6.12807
4.96673
3.85921
2.80413
1.8001
0.845678
-0.0606057
-0.920235
-1.73471
-2.50555
-3.23427
-3.92239
-4.57142
-5.18287
-5.75823
-6.29899
-6.80662
-7.28254
-7.72817
-8.14492
-8.53412
-8.89712
-9.23521
-9.54964
-9.84165
-10.1124
-10.3631
-10.5947
-10.8085
-11.0053
-11.1861
-11.352
-11.5037
-11.6421
-11.768
-11.8822
-11.9853
-12.0779
-12.1607
-12.2343
-12.299
-12.3555
-12.404
-12.4449
-12.4785
-12.5051
-12.5249
-12.538
-12.5445
126.653
125.737
124.545
123.101
121.428
119.546
117.476
115.238
112.851
110.329
107.692
104.955
102.132
99.2365
96.2808
93.2782
90.2402
87.1771
84.0983
81.0128
77.929
74.855
71.798
68.7649
65.7617
62.794
59.8669
56.9847
54.1516
51.371
48.6464
45.9803
43.3754
40.8338
38.3571
35.9469
33.6044
31.3305
29.1259
26.991
24.9259
22.9307
21.0052
19.1491
17.3618
15.6426
13.9908
12.4054
10.8853
9.42952
8.03672
6.70561
5.43483
4.22292
3.06841
1.96975
0.925379
-0.0663183
-1.00696
-1.8982
-2.74169
-3.53909
-4.29205
-5.00225
-5.67133
-6.30092
-6.89265
-7.44811
-7.96889
-8.45652
-8.91254
-9.33843
-9.73564
-10.1056
-10.4497
-10.7692
-11.0655
-11.3397
-11.5932
-11.8271
-12.0425
-12.2404
-12.4219
-12.5879
-12.7393
-12.8771
-13.002
-13.1148
-13.2162
-13.3068
-13.3873
-13.4582
-13.5199
-13.573
-13.6178
-13.6546
-13.6837
-13.7053
-13.7197
-13.7268
137.531
136.536
135.242
133.674
131.856
129.813
127.565
125.135
122.542
119.805
116.941
113.969
110.904
107.759
104.55
101.289
97.9902
94.664
91.3208
87.9703
84.6217
81.2836
77.9641
74.6705
71.4094
68.1869
65.0084
61.8787
58.8022
55.7829
52.8242
49.9292
47.1006
44.3406
41.6513
39.0341
36.4904
34.0213
31.6273
29.309
27.0666
24.9
22.8092
20.7937
18.8529
16.986
15.1924
13.4708
11.8202
10.2393
8.72692
7.2815
5.90158
4.58559
3.33193
2.13892
1.00485
-0.0720145
-1.09344
-2.06122
-2.97715
-3.84303
-4.66066
-5.43185
-6.15839
-6.84206
-7.4846
-8.08777
-8.65327
-9.18278
-9.67796
-10.1404
-10.5717
-10.9735
-11.3471
-11.6941
-12.0158
-12.3136
-12.5889
-12.8429
-13.0767
-13.2916
-13.4887
-13.6689
-13.8334
-13.983
-14.1187
-14.2411
-14.3512
-14.4496
-14.537
-14.614
-14.681
-14.7387
-14.7873
-14.8272
-14.8589
-14.8824
-14.8979
-14.9057
148.374
147.301
145.904
144.213
142.252
140.048
137.623
135.001
132.204
129.25
126.161
122.955
119.648
116.255
112.793
109.275
105.716
102.128
98.5207
94.9061
91.2935
87.6922
84.111
80.5577
77.0396
73.563
70.1338
66.7573
63.4383
60.1809
56.989
53.8658
50.8141
47.8366
44.9352
42.1117
39.3674
36.7036
34.1209
31.6198
29.2006
26.8632
24.6075
22.4331
20.3393
18.3253
16.3902
14.5328
12.7521
11.0466
9.41498
7.85559
6.36687
4.94713
3.59463
2.30756
1.08408
-0.0776932
-1.17966
-2.22374
-3.21188
-4.14602
-5.02812
-5.86012
-6.64394
-7.3815
-8.07471
-8.72543
-9.33551
-9.90678
-10.441
-10.9399
-11.4053
-11.8386
-12.2417
-12.6161
-12.9631
-13.2845
-13.5814
-13.8554
-14.1077
-14.3396
-14.5522
-14.7466
-14.9241
-15.0855
-15.2318
-15.3639
-15.4827
-15.5889
-15.6832
-15.7662
-15.8385
-15.9007
-15.9531
-15.9963
-16.0304
-16.0557
-16.0725
-16.0809
159.18
158.029
156.531
154.716
152.613
150.248
147.646
144.834
141.833
138.664
135.35
131.91
128.362
124.722
121.008
117.234
113.416
109.566
105.696
101.818
97.9427
94.0792
90.2372
86.4251
82.6507
78.9209
75.2419
71.6196
68.0588
64.5642
61.1397
57.789
54.5151
51.3207
48.208
45.1788
42.2347
39.3769
36.606
33.9228
31.3274
28.8198
26.3998
24.067
21.8207
19.66
17.5839
15.5913
13.6809
11.8512
10.1007
8.42775
6.8306
5.30745
3.85644
2.47562
1.16303
-0.0833527
-1.26558
-2.3857
-3.44581
-4.448
-5.39434
-6.28693
-7.12784
-7.91913
-8.66282
-9.36094
-10.0155
-10.6283
-11.2015
-11.7367
-12.2359
-12.7009
-13.1333
-13.5349
-13.9073
-14.252
-14.5706
-14.8646
-15.1352
-15.384
-15.6121
-15.8207
-16.0111
-16.1842
-16.3412
-16.483
-16.6104
-16.7243
-16.8254
-16.9145
-16.9921
-17.0588
-17.1151
-17.1613
-17.1979
-17.2251
-17.2432
-17.2521
169.948
168.719
167.119
165.182
162.936
160.411
157.633
154.63
151.427
148.044
144.505
140.833
137.045
133.159
129.193
125.164
121.087
116.977
112.846
108.706
104.568
100.443
96.3411
92.2711
88.2414
84.2593
80.3315
76.4641
72.6625
68.9315
65.2754
61.698
58.2027
54.7922
51.4689
48.2348
45.0916
42.0404
39.0822
36.2174
33.4464
30.7692
28.1856
25.6949
23.2967
20.9898
18.7733
16.646
14.6063
12.6529
10.7839
8.99782
7.29263
5.66646
4.1173
2.64308
1.2417
-0.0889919
-1.35118
-2.54708
-3.6789
-4.74887
-5.75923
-6.7122
-7.60999
-8.4548
-9.2488
-9.99414
-10.6929
-11.3473
-11.9592
-12.5306
-13.0636
-13.56
-14.0217
-14.4505
-14.848
-15.2161
-15.5562
-15.87
-16.159
-16.4246
-16.6681
-16.8909
-17.0941
-17.279
-17.4466
-17.5979
-17.734
-17.8556
-17.9635
-18.0586
-18.1415
-18.2127
-18.2728
-18.3222
-18.3612
-18.3903
-18.4095
-18.4191
180.673
179.367
177.666
175.606
173.219
170.535
167.582
164.389
160.983
157.387
153.625
149.721
145.694
141.563
137.346
133.063
128.729
124.36
119.968
115.566
111.167
106.782
102.421
98.0944
93.8103
89.5769
85.4013
81.2898
77.2482
73.2818
69.3949
65.5918
61.8759
58.2501
54.7171
51.279
47.9373
44.6936
41.5486
38.5031
35.5572
32.7111
29.9644
27.3166
24.7669
22.3145
19.9581
17.6965
15.5281
13.4514
11.4645
9.56567
7.75287
6.02407
4.37714
2.80989
1.32006
-0.0946092
-1.43646
-2.70783
-3.91107
-5.04858
-6.1227
-7.13581
-8.09026
-8.98838
-9.83249
-10.6249
-11.3678
-12.0634
-12.7139
-13.3214
-13.8881
-14.4158
-14.9066
-15.3624
-15.7851
-16.1764
-16.538
-16.8716
-17.1788
-17.4611
-17.72
-17.9568
-18.1729
-18.3695
-18.5476
-18.7085
-18.8531
-18.9824
-19.0972
-19.1983
-19.2864
-19.3621
-19.426
-19.4785
-19.52
-19.5509
-19.5714
-19.5816
191.354
189.97
188.17
185.988
183.459
180.616
177.489
174.107
170.5
166.691
162.707
158.572
154.307
149.931
145.466
140.93
136.339
131.711
127.06
122.398
117.739
113.095
108.476
103.893
99.3561
94.8725
90.4499
86.0954
81.8149
77.614
73.4974
69.4694
65.5338
61.6937
57.9518
54.3104
50.7713
47.3357
44.0049
40.7793
37.6593
34.6449
31.7358
28.9314
26.2311
23.6337
21.138
18.7427
16.4461
14.2466
12.1423
10.1312
8.2112
6.3802
4.6359
2.976
1.3981
-0.100203
-1.52138
-2.86791
-4.14229
-5.34703
-6.48465
-7.55766
-8.56853
-9.51975
-10.4138
-11.253
-12.0398
-12.7765
-13.4655
-14.109
-14.7091
-15.268
-15.7879
-16.2706
-16.7183
-17.1327
-17.5157
-17.869
-18.1944
-18.4934
-18.7676
-19.0184
-19.2472
-19.4554
-19.6441
-19.8145
-19.9677
-20.1046
-20.2262
-20.3333
-20.4266
-20.5067
-20.5744
-20.63
-20.674
-20.7067
-20.7284
-20.7392
201.988
200.527
198.626
196.323
193.654
190.653
187.352
183.783
179.975
175.954
171.749
167.384
162.882
158.263
153.55
148.761
143.916
139.031
134.121
129.2
124.282
119.379
114.504
109.667
104.877
100.145
95.4763
90.8798
86.3614
81.927
77.5817
73.3299
69.1755
65.122
61.1722
57.3285
53.5926
49.9662
46.4502
43.0454
39.752
36.5701
33.4993
30.5392
27.6887
24.947
22.3126
19.7842
17.36
15.0383
12.817
10.6942
8.6675
6.73475
4.89352
3.14137
1.47579
-0.105773
-1.60592
-3.02728
-4.37248
-5.64417
-6.84501
-7.97764
-9.04469
-10.0488
-10.9925
-11.8783
-12.7089
-13.4865
-14.2138
-14.893
-15.5265
-16.1165
-16.6652
-17.1748
-17.6473
-18.0847
-18.489
-18.862
-19.2054
-19.5211
-19.8105
-20.0753
-20.3168
-20.5365
-20.7357
-20.9156
-21.0773
-21.2218
-21.3502
-21.4632
-21.5617
-21.6463
-21.7177
-21.7764
-21.8229
-21.8574
-21.8802
-21.8916
212.572
211.034
209.034
206.61
203.801
200.643
197.169
193.413
189.405
185.174
180.748
176.155
171.416
166.556
161.595
156.556
151.457
146.316
141.148
135.97
130.794
125.635
120.504
115.413
110.373
105.392
100.479
95.6417
90.8866
86.2199
81.6468
77.1722
72.8002
68.5343
64.3776
60.3324
56.4008
52.5844
48.8842
45.3009
41.835
38.4863
35.2546
32.1394
29.1396
26.2542
23.4818
20.8209
18.2697
15.8263
13.4886
11.2545
9.12166
7.08763
5.14993
3.30597
1.55312
-0.111316
-1.69007
-3.1859
-4.60159
-5.93992
-7.20368
-8.39566
-9.51862
-10.5753
-11.5684
-12.5007
-13.3748
-14.1932
-14.9586
-15.6734
-16.34
-16.961
-17.5384
-18.0747
-18.572
-19.0323
-19.4578
-19.8503
-20.2118
-20.5439
-20.8485
-21.1272
-21.3814
-21.6126
-21.8223
-22.0116
-22.1817
-22.3338
-22.4689
-22.5878
-22.6915
-22.7805
-22.8557
-22.9175
-22.9663
-23.0027
-23.0267
-23.0387
223.103
221.49
219.39
216.846
213.898
210.583
206.937
202.995
198.789
194.348
189.703
184.882
179.909
174.808
169.601
164.312
158.96
153.565
148.141
142.706
137.274
131.859
126.474
121.131
115.841
110.613
105.457
100.38
95.3894
90.4914
85.6918
80.9956
76.4069
71.9297
67.567
63.3214
59.1951
55.1895
51.306
47.5452
43.9076
40.393
37.0013
33.7316
30.5832
27.5549
24.6451
21.8524
19.1748
16.6103
14.1569
11.8121
9.57357
7.43877
5.40507
3.46976
1.63007
-0.116833
-1.7738
-3.34374
-4.82957
-6.2342
-7.56057
-8.8116
-9.9902
-11.0992
-12.1416
-13.12
-14.0374
-14.8964
-15.6997
-16.4499
-17.1496
-17.8012
-18.4073
-18.9702
-19.4921
-19.9753
-20.4218
-20.8338
-21.2131
-21.5618
-21.8814
-22.1739
-22.4407
-22.6834
-22.9034
-23.1021
-23.2807
-23.4403
-23.5821
-23.7069
-23.8157
-23.9091
-23.988
-24.0529
-24.1042
-24.1423
-24.1675
-24.1801
233.579
231.89
229.692
227.029
223.942
220.472
216.654
212.527
208.124
203.474
198.611
193.563
188.357
183.016
177.565
172.028
166.425
160.776
155.097
149.407
143.72
138.051
132.413
126.819
121.281
115.808
110.409
105.094
99.8686
94.7407
89.7157
84.7989
79.9948
75.3073
70.7398
66.2948
61.9747
57.7811
53.7152
49.7778
45.9694
42.2898
38.7387
35.3156
32.0193
28.8488
25.8024
22.8785
20.0752
17.3903
14.8216
12.3668
10.0231
7.78808
5.65888
3.63269
1.70661
-0.12232
-1.8571
-3.50076
-5.05635
-6.52694
-7.9156
-9.22537
-10.4593
-11.6204
-12.7117
-13.7361
-14.6966
-15.5959
-16.4369
-17.2223
-17.9549
-18.6371
-19.2717
-19.861
-20.4074
-20.9132
-21.3808
-21.8121
-22.2092
-22.5742
-22.9089
-23.2151
-23.4944
-23.7485
-23.9789
-24.1869
-24.3739
-24.541
-24.6894
-24.8201
-24.934
-25.0319
-25.1144
-25.1823
-25.236
-25.2759
-25.3024
-25.3156
243.998
242.233
239.937
237.155
233.931
230.306
226.318
222.007
217.407
212.55
207.47
202.197
196.758
191.179
185.485
179.701
173.848
167.947
162.015
156.071
150.13
144.208
138.319
132.476
126.69
120.973
115.334
109.781
104.323
98.9665
93.7174
88.5813
83.5629
78.6664
73.8951
69.2519
64.7391
60.3584
56.1111
51.9981
48.0198
44.1761
40.4667
36.8908
33.4475
30.1356
26.9533
23.899
20.9706
18.166
15.4827
12.9184
10.4702
8.13546
5.91129
3.79472
1.78273
-0.127777
-1.93993
-3.65691
-5.28189
-6.81807
-8.26867
-9.63687
-10.9258
-12.1388
-13.2787
-14.3488
-15.3521
-16.2915
-17.17
-17.9905
-18.7557
-19.4684
-20.1313
-20.7469
-21.3177
-21.8461
-22.3344
-22.785
-23.1999
-23.5811
-23.9308
-24.2506
-24.5424
-24.8078
-25.0484
-25.2657
-25.461
-25.6356
-25.7907
-25.9272
-26.0461
-26.1484
-26.2346
-26.3056
-26.3617
-26.4034
-26.431
-26.4447
254.357
252.517
250.123
247.223
243.862
240.083
235.926
231.431
226.637
221.573
216.278
210.781
205.111
199.296
193.36
187.33
181.229
175.077
168.894
162.697
156.504
150.33
144.191
138.1
132.069
126.109
120.23
114.442
108.752
103.168
97.696
92.3419
87.1105
82.006
77.0322
72.1918
67.4874
62.9208
58.4932
54.2056
50.0584
46.0515
42.1846
38.4569
34.8675
31.4149
28.0976
24.9136
21.8609
18.9372
16.14
13.4668
10.9147
8.48083
6.16224
3.95582
1.85841
-0.133203
-2.02229
-3.81216
-5.50612
-7.10752
-8.6197
-10.046
-11.3897
-12.6541
-13.8424
-14.958
-16.0038
-16.9832
-17.899
-18.7543
-19.552
-20.2949
-20.9859
-21.6276
-22.2227
-22.7735
-23.2826
-23.7523
-24.1848
-24.5822
-24.9467
-25.2801
-25.5843
-25.861
-26.1118
-26.3383
-26.5419
-26.7239
-26.8856
-27.0279
-27.1519
-27.2585
-27.3484
-27.4223
-27.4808
-27.5243
-27.5531
-27.5674
264.652
262.738
260.248
257.23
253.733
249.801
245.476
240.799
235.81
230.542
225.032
219.313
213.414
207.362
201.187
194.913
188.564
182.163
175.73
169.282
162.839
156.415
150.028
143.69
137.415
131.213
125.097
119.074
113.154
107.344
101.651
96.0796
90.6365
85.3254
80.1502
75.114
70.2192
65.4677
60.8609
56.3997
52.0846
47.9155
43.8921
40.0136
36.2788
32.6865
29.2349
25.922
22.7458
19.7037
16.7933
14.0119
11.3565
8.82411
6.41167
4.11594
1.93363
-0.138596
-2.10415
-3.96646
-5.729
-7.39522
-8.96861
-10.4526
-11.8507
-13.1663
-14.4028
-15.5634
-16.6516
-17.6706
-18.6235
-19.5134
-20.3434
-21.1164
-21.8354
-22.5031
-23.1222
-23.6953
-24.225
-24.7137
-25.1637
-25.5773
-25.9565
-26.3034
-26.6199
-26.9078
-27.1688
-27.4045
-27.6163
-27.8057
-27.9738
-28.1219
-28.2509
-28.3618
-28.4554
-28.5323
-28.5931
-28.6384
-28.6683
-28.6833
274.883
272.895
270.308
267.174
263.541
259.457
254.965
250.108
244.926
239.454
233.731
227.791
221.664
215.378
208.964
202.447
195.853
189.205
182.523
175.826
169.133
162.462
155.827
149.244
142.726
136.286
129.933
123.677
117.528
111.493
105.58
99.7937
94.1401
88.6238
83.2485
78.0176
72.9336
67.9984
63.2135
58.5799
54.098
49.7678
45.5888
41.5604
37.6812
33.95
30.365
26.9241
23.625
20.4654
17.4425
14.5535
11.7955
9.16522
6.65952
4.27504
2.00838
-0.143955
-2.18549
-4.11979
-5.95046
-7.68109
-9.3153
-10.8567
-12.3088
-13.6752
-14.9595
-16.1651
-17.2953
-18.3537
-19.3434
-20.2677
-21.1298
-21.9327
-22.6795
-23.373
-24.016
-24.6113
-25.1615
-25.669
-26.1364
-26.566
-26.9599
-27.3202
-27.6489
-27.9479
-28.219
-28.4638
-28.6838
-28.8805
-29.0552
-29.209
-29.343
-29.4582
-29.5554
-29.6352
-29.6984
-29.7454
-29.7765
-29.7921
285.045
282.984
280.301
277.051
273.285
269.05
264.391
259.354
253.981
248.307
242.372
236.212
229.859
223.341
216.689
209.932
203.094
196.2
189.271
182.327
175.386
168.468
161.588
154.762
148.003
141.324
134.736
128.25
121.873
115.615
109.483
103.483
97.6206
91.9003
86.3263
80.902
75.63
70.5123
65.5506
60.7457
56.098
51.6077
47.2743
43.0969
39.0743
35.2052
31.4876
27.9195
24.4984
21.222
18.0874
15.0916
12.2316
9.50406
6.90572
4.43309
2.08263
-0.149279
-2.26629
-4.27211
-6.17045
-7.96507
-9.65969
-11.2581
-12.7639
-14.1808
-15.5126
-16.7627
-17.9347
-19.0322
-20.0585
-21.017
-21.911
-22.7436
-23.5179
-24.2371
-24.9039
-25.5212
-26.0917
-26.618
-27.1027
-27.5481
-27.9566
-28.3302
-28.6711
-28.9812
-29.2623
-29.5161
-29.7443
-29.9483
-30.1294
-30.2889
-30.4278
-30.5473
-30.648
-30.7309
-30.7964
-30.8451
-30.8774
-30.8935
295.138
293.003
290.226
286.861
282.96
278.575
273.752
268.537
262.973
257.098
250.953
244.576
237.997
231.249
224.361
217.365
210.285
203.147
195.972
188.782
181.596
174.433
167.309
160.242
153.243
146.328
139.507
132.79
126.188
119.709
113.36
107.147
101.077
95.1541
89.3827
83.7664
78.3077
73.0089
67.8715
62.8964
58.0842
53.4349
48.9481
44.6227
40.4578
36.4517
32.6024
28.908
25.3658
21.9734
18.7278
15.6259
12.6646
9.84056
7.15023
4.59005
2.15636
-0.154565
-2.34653
-4.42336
-6.38892
-8.24708
-10.0017
-11.6567
-13.2158
-14.6829
-16.0618
-17.3562
-18.5697
-19.7061
-20.7687
-21.7611
-22.6868
-23.5488
-24.3506
-25.0952
-25.7856
-26.4248
-27.0155
-27.5605
-28.0623
-28.5235
-28.9464
-29.3333
-29.6862
-30.0073
-30.2983
-30.5612
-30.7974
-31.0086
-31.1961
-31.3613
-31.5052
-31.6288
-31.7332
-31.8189
-31.8868
-31.9372
-31.9706
-31.9873
305.157
302.95
300.078
296.599
292.566
288.033
283.045
277.653
271.901
265.826
259.473
252.878
246.077
239.099
231.978
224.744
217.424
210.043
202.625
195.191
187.761
180.355
172.989
165.681
158.446
151.296
144.243
137.298
130.472
123.773
117.208
110.785
104.508
98.3844
92.4171
86.6101
80.9661
75.4874
70.1756
65.0317
60.0561
55.249
50.6098
46.1376
41.8313
37.6891
33.7092
29.8893
26.227
22.7193
19.3635
16.1564
13.0946
10.1746
7.39296
4.74587
2.22957
-0.159814
-2.42619
-4.57353
-6.60582
-8.52705
-10.3412
-12.0524
-13.6645
-15.1814
-16.6071
-17.9454
-19.2002
-20.3751
-21.4738
-22.4999
-23.4569
-24.3483
-25.1773
-25.9471
-26.661
-27.3219
-27.9326
-28.4961
-29.015
-29.4918
-29.9291
-30.3291
-30.694
-31.026
-31.3269
-31.5987
-31.8429
-32.0613
-32.2552
-32.4259
-32.5747
-32.7026
-32.8104
-32.8991
-32.9693
-33.0215
-33.056
-33.0732
315.101
312.822
309.857
306.265
302.1
297.419
292.269
286.701
280.761
274.489
267.928
261.119
254.095
246.891
239.538
232.068
224.509
216.888
209.228
201.552
193.88
186.232
178.627
171.081
163.609
156.226
148.943
141.773
134.724
127.806
121.028
114.395
107.914
101.59
95.4287
89.4325
83.6046
77.9473
72.4624
67.1508
62.0132
57.0494
52.259
47.6411
43.1944
38.9173
34.8077
30.8633
27.0816
23.4597
19.9945
16.6829
13.5213
10.5062
7.63388
4.90052
2.30222
-0.165023
-2.50526
-4.72257
-6.82108
-8.80493
-10.6782
-12.4451
-14.1097
-15.6761
-17.1483
-18.5302
-19.8258
-21.039
-22.1735
-23.2331
-24.2213
-25.1417
-25.9977
-26.7927
-27.5298
-28.2122
-28.8429
-29.4247
-29.9605
-30.4529
-30.9044
-31.3174
-31.6942
-32.037
-32.3478
-32.6284
-32.8806
-33.1061
-33.3063
-33.4826
-33.6362
-33.7682
-33.8796
-33.9712
-34.0437
-34.0975
-34.1332
-34.151
324.968
322.617
319.559
315.854
311.56
306.732
301.421
295.678
289.552
283.084
276.318
269.295
262.052
254.621
247.038
239.334
231.539
223.679
215.779
207.863
199.95
192.063
184.22
176.437
168.732
161.118
153.607
146.212
138.942
131.808
124.817
117.977
111.293
104.771
98.4168
92.2328
86.2224
80.388
74.7313
69.2535
63.9549
58.8357
53.8953
49.1328
44.5469
40.1359
35.8976
31.8297
27.9296
24.1943
20.6206
17.2052
13.9447
10.8352
7.87291
5.05397
2.37431
-0.170191
-2.5837
-4.87044
-7.03466
-9.08063
-11.0126
-12.8348
-14.5515
-16.1669
-17.6852
-19.1104
-20.4466
-21.6978
-22.8678
-23.9606
-24.9797
-25.929
-26.8118
-27.6316
-28.3918
-29.0956
-29.746
-30.3461
-30.8986
-31.4064
-31.8721
-32.298
-32.6867
-33.0402
-33.3606
-33.65
-33.9102
-34.1427
-34.3492
-34.531
-34.6894
-34.8256
-34.9405
-35.0349
-35.1096
-35.1652
-35.202
-35.2203
334.754
332.333
329.183
325.366
320.942
315.969
310.498
304.583
298.272
291.609
284.639
277.405
269.943
262.289
254.477
246.541
238.512
230.415
222.278
214.122
205.972
197.847
189.767
181.751
173.813
165.97
158.233
150.615
143.127
135.777
128.576
121.529
114.644
107.927
101.381
95.0103
88.8189
82.8089
76.9818
71.339
65.8809
60.6075
55.5183
50.6124
45.8884
41.3446
36.9786
32.7883
28.7707
24.9229
21.2416
17.7234
14.3646
11.1614
8.10999
5.20616
2.44581
-0.175318
-2.66151
-5.01712
-7.24651
-9.35409
-11.3442
-13.2213
-14.9898
-16.6538
-18.2178
-19.6859
-21.0624
-22.3512
-23.5565
-24.6821
-25.732
-26.7098
-27.6192
-28.4637
-29.2468
-29.9718
-30.6418
-31.2599
-31.8291
-32.3522
-32.8319
-33.2707
-33.671
-34.0352
-34.3653
-34.6634
-34.9313
-35.1709
-35.3836
-35.5709
-35.7341
-35.8743
-35.9927
-36.09
-36.1669
-36.2242
-36.2621
-36.2809
344.458
341.966
338.725
334.798
330.245
325.128
319.498
313.412
306.918
300.062
292.89
285.446
277.768
269.892
261.854
253.688
245.425
237.094
228.721
220.329
211.942
203.582
195.268
187.019
178.852
170.781
162.82
154.981
147.276
139.713
132.303
125.052
117.968
111.055
104.319
97.7644
91.3936
85.2093
79.2133
73.4069
67.7906
62.3643
57.1277
52.0796
47.2186
42.543
38.0506
33.7387
29.6047
25.6453
21.8573
18.2371
14.781
11.485
8.34508
5.35708
2.5167
-0.180401
-2.73866
-5.16255
-7.45657
-9.62524
-11.6731
-13.6046
-15.4243
-17.1366
-18.7459
-20.2566
-21.6729
-22.9991
-24.2393
-25.3976
-26.4779
-27.484
-28.4198
-29.2888
-30.0946
-30.8406
-31.53
-32.1661
-32.7518
-33.29
-33.7836
-34.2351
-34.647
-35.0217
-35.3614
-35.6682
-35.9439
-36.1904
-36.4093
-36.602
-36.7699
-36.9142
-37.036
-37.1361
-37.2153
-37.2742
-37.3132
-37.3326
354.076
351.515
348.183
344.146
339.467
334.207
328.42
322.163
315.489
308.441
301.069
293.417
285.525
277.429
269.166
260.772
252.279
243.715
235.108
226.482
217.861
209.267
200.721
192.242
183.846
175.549
167.366
159.309
151.388
143.615
135.997
128.544
121.262
114.156
107.232
100.494
93.9456
87.5886
81.4253
75.4567
69.6836
64.1058
58.7229
53.5338
48.5372
43.731
39.1131
34.6808
30.4313
26.3614
22.4677
18.7464
15.1937
11.8057
8.57811
5.50667
2.58698
-0.18544
-2.81514
-5.30671
-7.66479
-9.89401
-11.999
-13.9845
-15.855
-17.6151
-19.2693
-20.8222
-22.2781
-23.6413
-24.9162
-26.1068
-27.2173
-28.2515
-29.2134
-30.1067
-30.935
-31.7018
-32.4105
-33.0643
-33.6663
-34.2196
-34.727
-35.1911
-35.6145
-35.9997
-36.3489
-36.6642
-36.9476
-37.201
-37.4259
-37.6241
-37.7967
-37.945
-38.0702
-38.1731
-38.2545
-38.315
-38.3551
-38.3751
363.608
360.978
357.556
353.41
348.605
343.203
337.261
330.836
323.981
316.743
309.173
301.315
293.211
284.897
276.412
267.792
259.07
250.276
241.436
232.578
223.725
214.9
206.124
197.417
188.795
180.275
171.871
163.597
155.463
147.481
139.658
132.004
124.526
117.229
110.119
103.2
96.4745
89.9464
83.6172
77.4879
71.5594
65.8315
60.3036
54.9749
49.8437
44.9082
40.166
35.6144
31.2505
27.071
23.0725
19.251
15.6027
12.1235
8.80902
5.6549
2.65662
-0.190432
-2.89092
-5.44956
-7.87112
-10.1603
-12.322
-14.3609
-16.2818
-18.0893
-19.788
-21.3827
-22.8778
-24.2777
-25.5869
-26.8096
-27.9499
-29.012
-29.9998
-30.9171
-31.7677
-32.5551
-33.2829