/*--------------------------------*- C++ -*----------------------------------*\
| =========                 |                                                 |
| \\      /  F ield         | OpenFOAM: The Open Source CFD Toolbox           |
|  \\    /   O peration     | Version:  2406                                  |
|   \\  /    A nd           | Website:  www.openfoam.com                      |
|    \\/     M anipulation  |                                                 |
\*---------------------------------------------------------------------------*/
FoamFile
{
    version     2.0;
    format      ascii;
    arch        "LSB;label=32;scalar=64";
    class       volScalarField;
    location    "25";
    object      gradTx;
}
// * * * * * * * * * * * * * * * * * * * * * * * * * * * * * * * * * * * * * //

dimensions      [0 -1 0 1 0 0 0];

internalField   nonuniform List<scalar> 
20000
(
-5.39275
-5.07819
-4.7779
-4.49136
-4.21801
-3.95788
-3.7107
-3.4758
-3.25254
-3.04115
-2.84122
-2.65177
-2.47262
-2.30367
-2.14448
-1.99446
-1.85318
-1.72034
-1.59564
-1.4787
-1.36913
-1.26654
-1.17057
-1.08089
-0.997185
-0.919152
-0.846483
-0.778877
-0.716042
-0.657696
-0.603571
-0.553411
-0.506971
-0.464019
-0.424333
-0.3877
-0.353921
-0.322804
-0.294167
-0.267838
-0.243656
-0.221466
-0.201125
-0.182496
-0.165451
-0.149871
-0.135644
-0.122663
-0.110832
-0.100058
-0.0902558
-0.0813466
-0.0732562
-0.0659163
-0.0592632
-0.0532382
-0.0477869
-0.0428592
-0.0384087
-0.0343929
-0.0307724
-0.0275113
-0.0245765
-0.0219376
-0.0195668
-0.0174387
-0.0155302
-0.0138201
-0.0122889
-0.0109193
-0.00969514
-0.00860194
-0.00762652
-0.00675695
-0.00598239
-0.00529308
-0.00468018
-0.0041357
-0.00365247
-0.00322402
-0.00284453
-0.00250878
-0.00221208
-0.00195025
-0.00171953
-0.00151659
-0.00133846
-0.00118248
-0.00104632
-0.00092792
-0.000825467
-0.000737378
-0.00066228
-0.000598994
-0.000546518
-0.000504017
-0.000470809
-0.000446361
-0.000430278
-0.000422297
-16.177
-15.2333
-14.3323
-13.4728
-12.6533
-11.873
-11.1309
-10.4262
-9.75711
-9.12293
-8.52272
-7.95448
-7.41734
-6.9106
-6.43293
-5.9828
-5.55902
-5.1606
-4.78656
-4.43577
-4.10707
-3.79929
-3.51139
-3.24238
-2.9913
-2.75723
-2.53925
-2.33644
-2.14795
-1.97293
-1.81056
-1.6601
-1.52079
-1.39194
-1.27289
-1.163
-1.06168
-0.968331
-0.882427
-0.803449
-0.730908
-0.664345
-0.603326
-0.547443
-0.496313
-0.449577
-0.406897
-0.367959
-0.332468
-0.300148
-0.270745
-0.24402
-0.219751
-0.197733
-0.177775
-0.159701
-0.143349
-0.128567
-0.115217
-0.10317
-0.0923097
-0.0825272
-0.0737234
-0.0658073
-0.0586955
-0.0523119
-0.0465868
-0.0414568
-0.0368638
-0.0327552
-0.029083
-0.0258037
-0.0228777
-0.0202692
-0.0179457
-0.0158779
-0.0140394
-0.0124061
-0.0109565
-0.00967128
-0.0085329
-0.00752572
-0.0066357
-0.00585027
-0.00515818
-0.00454941
-0.00401504
-0.00354714
-0.0031387
-0.00278353
-0.0024762
-0.00221195
-0.00198668
-0.00179684
-0.00163942
-0.00151193
-0.00141231
-0.00133898
-0.00129073
-0.00126679
-26.9574
-25.385
-23.883
-22.4507
-21.0853
-19.7852
-18.5486
-17.3741
-16.2593
-15.2025
-14.202
-13.2552
-12.3603
-11.5159
-10.7198
-9.9696
-9.26343
-8.59959
-7.97634
-7.39179
-6.844
-6.3311
-5.85134
-5.40306
-4.98468
-4.59463
-4.23139
-3.89344
-3.57934
-3.28768
-3.01711
-2.76637
-2.53423
-2.31952
-2.12114
-1.93802
-1.76917
-1.61362
-1.47047
-1.33886
-1.21798
-1.10706
-1.00538
-0.912255
-0.827053
-0.749172
-0.678051
-0.613164
-0.554022
-0.500165
-0.451167
-0.406632
-0.366191
-0.3295
-0.296243
-0.266125
-0.238876
-0.214243
-0.191996
-0.171922
-0.153824
-0.137523
-0.122852
-0.109661
-0.0978097
-0.0871721
-0.0776319
-0.0690832
-0.0614296
-0.054583
-0.0484637
-0.0429991
-0.0381232
-0.0337764
-0.0299046
-0.0264589
-0.0233951
-0.0206734
-0.0182579
-0.0161161
-0.0142192
-0.0125408
-0.0110577
-0.00974884
-0.00859555
-0.0075811
-0.00669063
-0.00591093
-0.00523031
-0.00463846
-0.00412632
-0.00368598
-0.00331059
-0.00299423
-0.00273192
-0.00251947
-0.00235347
-0.00223126
-0.00215087
-0.00211098
-37.7312
-35.5306
-33.4283
-31.4231
-29.5119
-27.6923
-25.9617
-24.3178
-22.7574
-21.2782
-19.8778
-18.5526
-17.3003
-16.1184
-15.004
-13.9539
-12.9656
-12.0365
-11.1642
-10.346
-9.57924
-8.86133
-8.18982
-7.5624
-6.97682
-6.4309
-5.92249
-5.44948
-5.00984
-4.60161
-4.22292
-3.87196
-3.54704
-3.24652
-2.96886
-2.71256
-2.47622
-2.25851
-2.05815
-1.87394
-1.70475
-1.5495
-1.40718
-1.27684
-1.15759
-1.04858
-0.949037
-0.858218
-0.775439
-0.700058
-0.631479
-0.569145
-0.512541
-0.461186
-0.414637
-0.372483
-0.334343
-0.299866
-0.268728
-0.240631
-0.215301
-0.192484
-0.171951
-0.153487
-0.1369
-0.122011
-0.108658
-0.0966927
-0.0859802
-0.0763974
-0.0678325
-0.0601839
-0.0533593
-0.0472753
-0.0418561
-0.0370333
-0.0327451
-0.0289357
-0.0255547
-0.022557
-0.0199019
-0.0175528
-0.0154769
-0.013645
-0.0120308
-0.0106109
-0.00936458
-0.00827326
-0.00732063
-0.00649224
-0.00577543
-0.00515911
-0.00463368
-0.0041909
-0.00382375
-0.00352638
-0.00329405
-0.003123
-0.00301048
-0.00295466
-48.4952
-45.6671
-42.9653
-40.3879
-37.9314
-35.5927
-33.3684
-31.2554
-29.2499
-27.3487
-25.5487
-23.8456
-22.236
-20.7168
-19.2844
-17.9348
-16.6645
-15.4704
-14.3493
-13.2976
-12.3121
-11.3894
-10.5263
-9.71986
-8.96724
-8.26559
-7.61214
-7.00419
-6.43912
-5.91442
-5.42768
-4.9766
-4.55898
-4.17273
-3.81584
-3.48643
-3.18267
-2.90284
-2.64532
-2.40856
-2.1911
-1.99156
-1.80864
-1.64111
-1.48784
-1.34773
-1.21979
-1.10306
-0.996665
-0.899778
-0.811634
-0.731517
-0.658764
-0.592759
-0.53293
-0.478749
-0.429728
-0.385415
-0.345394
-0.309281
-0.276724
-0.247398
-0.221007
-0.197276
-0.175956
-0.15682
-0.139657
-0.124278
-0.11051
-0.0981929
-0.0871845
-0.0773538
-0.0685823
-0.0607626
-0.0537973
-0.0475986
-0.042087
-0.0371907
-0.0328453
-0.0289924
-0.0255798
-0.0225605
-0.0198924
-0.0175378
-0.0154631
-0.0136381
-0.0120362
-0.0106336
-0.00940915
-0.00834443
-0.00742311
-0.00663096
-0.00595564
-0.00538653
-0.00491463
-0.00453244
-0.00423382
-0.00401397
-0.00386935
-0.00379761
-59.2472
-55.7921
-52.4917
-49.3428
-46.3416
-43.4843
-40.7668
-38.1853
-35.7352
-33.4125
-31.2134
-29.1326
-27.1661
-25.3102
-23.5601
-21.9112
-20.3594
-18.9006
-17.5308
-16.246
-15.0419
-13.9146
-12.8601
-11.8749
-10.9555
-10.0982
-9.29991
-8.55716
-7.86681
-7.22577
-6.6311
-6.08001
-5.56979
-5.0979
-4.66189
-4.25943
-3.88832
-3.54646
-3.23184
-2.94259
-2.67691
-2.43313
-2.20965
-2.00498
-1.81772
-1.64655
-1.49024
-1.34763
-1.21764
-1.09928
-0.991589
-0.893709
-0.804825
-0.724185
-0.651091
-0.584898
-0.525008
-0.47087
-0.421975
-0.377855
-0.338079
-0.302251
-0.270008
-0.241016
-0.214969
-0.19159
-0.170622
-0.151833
-0.135012
-0.119964
-0.106515
-0.0945047
-0.0837884
-0.0742348
-0.0657252
-0.0581522
-0.0514185
-0.0454367
-0.0401277
-0.0354206
-0.0312513
-0.0275626
-0.0243029
-0.0214263
-0.0188916
-0.016662
-0.0147049
-0.0129912
-0.0114953
-0.0101946
-0.00906897
-0.00810118
-0.00727613
-0.00658084
-0.00600431
-0.00553737
-0.00517255
-0.00490396
-0.00472728
-0.00463963
-69.9846
-65.9034
-62.005
-58.2854
-54.7403
-51.3651
-48.1551
-45.1058
-42.2116
-39.468
-36.8703
-34.4124
-32.0896
-29.8972
-27.8299
-25.8823
-24.0492
-22.326
-20.7081
-19.1904
-17.768
-16.4364
-15.1908
-14.0271
-12.941
-11.9284
-10.9854
-10.108
-9.29255
-8.53533
-7.83289
-7.18191
-6.57923
-6.02181
-5.50678
-5.03139
-4.59302
-4.1892
-3.81756
-3.47588
-3.16206
-2.87409
-2.61011
-2.36835
-2.14715
-1.94496
-1.76032
-1.59187
-1.43832
-1.2985
-1.1713
-1.05568
-0.950687
-0.855432
-0.769091
-0.690901
-0.620157
-0.556208
-0.498451
-0.446336
-0.399351
-0.35703
-0.318943
-0.284696
-0.253929
-0.226312
-0.201544
-0.179351
-0.159481
-0.141706
-0.125819
-0.111632
-0.0989738
-0.0876888
-0.077637
-0.0686914
-0.0607374
-0.0536714
-0.0474003
-0.04184
-0.0369152
-0.0325579
-0.0287075
-0.0253095
-0.0223154
-0.0196817
-0.0173699
-0.0153457
-0.0135787
-0.0120422
-0.0107126
-0.00956941
-0.00859482
-0.00777352
-0.00709251
-0.00654095
-0.00611001
-0.00579274
-0.00558404
-0.00548051
-80.7049
-75.9985
-71.503
-67.2137
-63.1255
-59.2333
-55.5316
-52.0151
-48.6777
-45.5138
-42.5181
-39.6838
-37.0052
-34.4769
-32.093
-29.8469
-27.7331
-25.746
-23.8802
-22.13
-20.4898
-18.9541
-17.5177
-16.1757
-14.9233
-13.7556
-12.6682
-11.6564
-10.716
-9.84279
-9.03275
-8.28205
-7.58704
-6.94424
-6.35031
-5.8021
-5.29658
-4.8309
-4.40234
-4.00833
-3.64643
-3.31435
-3.00993
-2.73114
-2.47606
-2.2429
-2.02997
-1.83571
-1.65865
-1.49741
-1.35072
-1.21739
-1.09631
-0.986468
-0.886902
-0.796735
-0.715154
-0.641408
-0.574805
-0.514706
-0.460524
-0.41172
-0.367799
-0.328306
-0.292826
-0.260979
-0.232417
-0.206824
-0.18391
-0.163413
-0.145093
-0.128732
-0.114135
-0.101121
-0.0895295
-0.0792137
-0.0700412
-0.0618929
-0.0546612
-0.0482492
-0.0425699
-0.0375452
-0.033105
-0.0291865
-0.0257337
-0.0226966
-0.0200307
-0.0176964
-0.0156587
-0.0138868
-0.0123536
-0.0110353
-0.00991141
-0.0089643
-0.00817897
-0.00754292
-0.00704596
-0.0066801
-0.00643943
-0.00632004
-91.4054
-86.0749
-80.9834
-76.1253
-71.4951
-67.0869
-62.8944
-58.9117
-55.1317
-51.5484
-48.1555
-44.9453
-41.9116
-39.0481
-36.348
-33.8042
-31.4102
-29.1596
-27.0464
-25.0641
-23.2064
-21.4671
-19.8403
-18.3204
-16.9019
-15.5795
-14.3478
-13.2019
-12.1368
-11.1478
-10.2304
-9.38014
-8.59298
-7.86495
-7.19228
-6.57138
-5.99884
-5.47142
-4.98603
-4.53978
-4.1299
-3.75379
-3.40901
-3.09325
-2.80435
-2.54028
-2.29912
-2.0791
-1.87856
-1.69595
-1.52981
-1.3788
-1.24167
-1.11726
-1.00449
-0.902371
-0.809974
-0.726451
-0.651017
-0.58295
-0.521584
-0.466309
-0.416564
-0.371835
-0.331651
-0.295582
-0.263233
-0.234246
-0.208294
-0.185079
-0.16433
-0.145801
-0.129268
-0.114528
-0.1014
-0.0897164
-0.0793278
-0.0700991
-0.0619086
-0.0546464
-0.0482141
-0.0425232
-0.0374943
-0.0330563
-0.0291457
-0.0257059
-0.0226865
-0.0200427
-0.0177349
-0.0157281
-0.0139915
-0.0124984
-0.0112255
-0.0101529
-0.00926341
-0.00854303
-0.00798018
-0.00756581
-0.00729323
-0.00715802
-102.083
-96.1301
-90.4437
-85.0182
-79.8471
-74.9239
-70.2417
-65.7937
-61.5722
-57.5702
-53.7809
-50.1958
-46.8076
-43.6097
-40.5942
-37.7532
-35.0795
-32.566
-30.2059
-27.9921
-25.9173
-23.9749
-22.1581
-20.4606
-18.8764
-17.3994
-16.0239
-14.7442
-13.5546
-12.4501
-11.4255
-10.4759
-9.5968
-8.78372
-8.03247
-7.33904
-6.69962
-6.11058
-5.56849
-5.07011
-4.61234
-4.1923
-3.80725
-3.4546
-3.13195
-2.83703
-2.5677
-2.32198
-2.09802
-1.89407
-1.70852
-1.53987
-1.38672
-1.24778
-1.12184
-1.00779
-0.904594
-0.811314
-0.727068
-0.651049
-0.582515
-0.520783
-0.465227
-0.415273
-0.370395
-0.330111
-0.293984
-0.261611
-0.232627
-0.2067
-0.183527
-0.162833
-0.144369
-0.127908
-0.113246
-0.100197
-0.0885949
-0.0782881
-0.0691407
-0.0610302
-0.0538465
-0.0474908
-0.0418744
-0.0369179
-0.0325505
-0.0287089
-0.0253368
-0.0223841
-0.0198067
-0.0175654
-0.015626
-0.0139585
-0.0125369
-0.0113389
-0.0103456
-0.00954104
-0.00891244
-0.00844967
-0.00814525
-0.00799423
-112.736
-106.162
-99.8818
-93.8901
-88.1794
-82.7425
-77.5716
-72.6594
-67.9974
-63.5779
-59.3931
-55.4338
-51.6922
-48.1605
-44.8303
-41.6929
-38.7401
-35.9644
-33.358
-30.9131
-28.6219
-26.4767
-24.4703
-22.5957
-20.8462
-19.2151
-17.6961
-16.2828
-14.9691
-13.7493
-12.6178
-11.5691
-10.5983
-9.70033
-8.87068
-8.10489
-7.39874
-6.74824
-6.14958
-5.59919
-5.09366
-4.62978
-4.20454
-3.8151
-3.45878
-3.13308
-2.83565
-2.56429
-2.31695
-2.09172
-1.88681
-1.70056
-1.53143
-1.37799
-1.2389
-1.11295
-0.998992
-0.895977
-0.80294
-0.718988
-0.643302
-0.575128
-0.513775
-0.458608
-0.409046
-0.364559
-0.324662
-0.288911
-0.256902
-0.22827
-0.202679
-0.179825
-0.159434
-0.141255
-0.125063
-0.110653
-0.09784
-0.0864577
-0.0763558
-0.0673989
-0.0594656
-0.0524466
-0.0462441
-0.0407704
-0.0359473
-0.0317048
-0.0279808
-0.02472
-0.0218736
-0.0193985
-0.0172567
-0.0154151
-0.0138452
-0.0125222
-0.0114252
-0.0105367
-0.00984251
-0.00933144
-0.00899525
-0.00882849
-123.361
-116.167
-109.295
-102.739
-96.4899
-90.5406
-84.8824
-79.5072
-74.4059
-69.5698
-64.9906
-60.6582
-56.564
-52.6994
-49.0554
-45.6222
-42.3912
-39.3539
-36.5019
-33.8266
-31.3194
-28.972
-26.7765
-24.7253
-22.8109
-21.0261
-19.3639
-17.8173
-16.3799
-15.0451
-13.8069
-12.6594
-11.5971
-10.6145
-9.7067
-8.86874
-8.09604
-7.38423
-6.72915
-6.12689
-5.57371
-5.06612
-4.6008
-4.17466
-3.78476
-3.42836
-3.10289
-2.80596
-2.53531
-2.28885
-2.06463
-1.86083
-1.67576
-1.50786
-1.35567
-1.21784
-1.09314
-0.980419
-0.878613
-0.78675
-0.703931
-0.629332
-0.562196
-0.50183
-0.447597
-0.398918
-0.35526
-0.316139
-0.281114
-0.249783
-0.22178
-0.196773
-0.17446
-0.154568
-0.13685
-0.121082
-0.107061
-0.094606
-0.083552
-0.073751
-0.06507
-0.0573895
-0.0506025
-0.0446129
-0.0393352
-0.0346929
-0.0306179
-0.0270498
-0.0239352
-0.0212267
-0.0188831
-0.016868
-0.0151501
-0.0137024
-0.012502
-0.0115298
-0.0107701
-0.0102109
-0.00984305
-0.00966056
-133.955
-126.143
-118.682
-111.562
-104.777
-98.3164
-92.1722
-86.3354
-80.796
-75.5446
-70.5721
-65.8677
-61.4218
-57.2254
-53.2683
-49.5403
-46.0318
-42.7337
-39.6367
-36.7316
-34.0091
-31.4601
-29.0761
-26.8487
-24.7699
-22.8319
-21.0269
-19.3475
-17.7866
-16.3372
-14.9927
-13.7467
-12.5931
-11.5261
-10.5403
-9.6304
-8.79134
-8.0184
-7.30706
-6.65307
-6.05239
-5.50121
-4.99593
-4.53318
-4.1098
-3.72279
-3.36938
-3.04694
-2.75305
-2.48542
-2.24195
-2.02064
-1.81968
-1.63736
-1.47209
-1.32243
-1.18702
-1.06462
-0.95407
-0.854317
-0.764386
-0.68338
-0.610479
-0.544928
-0.486038
-0.433177
-0.38577
-0.34329
-0.305257
-0.271235
-0.240827
-0.213672
-0.189443
-0.167843
-0.148603
-0.13148
-0.116256
-0.102731
-0.0907277
-0.0800849
-0.0706584
-0.0623183
-0.0549483
-0.0484444
-0.0427134
-0.0376724
-0.0332475
-0.0293729
-0.0259908
-0.0230497
-0.0205048
-0.0183167
-0.0164512
-0.0148792
-0.0135757
-0.01252
-0.0116951
-0.0110879
-0.0106884
-0.0104903
-144.517
-136.089
-128.039
-120.358
-113.038
-106.068
-99.4393
-93.1424
-87.1662
-81.5007
-76.1362
-71.0608
-66.2645
-61.7372
-57.4681
-53.4462
-49.6611
-46.103
-42.7618
-39.6276
-36.6905
-33.9405
-31.3685
-28.9655
-26.7229
-24.632
-22.6847
-20.873
-19.189
-17.6253
-16.1747
-14.8305
-13.5859
-12.4349
-11.3714
-10.3897
-9.48447
-8.65059
-7.88317
-7.17762
-6.52958
-5.93493
-5.38982
-4.89059
-4.43383
-4.01631
-3.63503
-3.28717
-2.97011
-2.68138
-2.41871
-2.17995
-1.96315
-1.76645
-1.58816
-1.4267
-1.28061
-1.14856
-1.02929
-0.921674
-0.824652
-0.73726
-0.65861
-0.587891
-0.524358
-0.46733
-0.416185
-0.370356
-0.329324
-0.29262
-0.259815
-0.230519
-0.204379
-0.181076
-0.160319
-0.141847
-0.125422
-0.110831
-0.0978809
-0.0863991
-0.0762293
-0.0672317
-0.0592807
-0.0522639
-0.0460811
-0.0406427
-0.0358688
-0.0316888
-0.02804
-0.0248671
-0.0221215
-0.0197608
-0.0177483
-0.0160524
-0.0146461
-0.0135071
-0.0126172
-0.0119621
-0.0115312
-0.0113174
-155.042
-146.001
-137.364
-129.124
-121.27
-113.793
-106.682
-99.9263
-93.5148
-87.4368
-81.6815
-76.2365
-71.0908
-66.2338
-61.6537
-57.3389
-53.2781
-49.4608
-45.8763
-42.5139
-39.3628
-36.4125
-33.6532
-31.0752
-28.6692
-26.4261
-24.3369
-22.3932
-20.5866
-18.909
-17.3528
-15.9106
-14.5754
-13.3406
-12.1996
-11.1464
-10.1753
-9.28064
-8.45733
-7.70039
-7.00515
-6.3672
-5.78238
-5.24679
-4.75676
-4.30883
-3.89978
-3.52659
-3.18643
-2.87668
-2.59487
-2.33873
-2.10613
-1.89511
-1.70383
-1.53061
-1.37388
-1.23221
-1.10426
-0.988803
-0.884715
-0.790957
-0.70658
-0.63071
-0.56255
-0.501368
-0.446498
-0.39733
-0.353311
-0.313933
-0.278738
-0.247308
-0.219265
-0.194264
-0.171996
-0.152178
-0.134557
-0.118903
-0.10501
-0.092692
-0.0817815
-0.0721285
-0.0635984
-0.0560706
-0.0494374
-0.0436029
-0.0384813
-0.0339969
-0.0300823
-0.0266783
-0.0237327
-0.0212001
-0.0190411
-0.0172216
-0.0157129
-0.014491
-0.0135362
-0.0128334
-0.0123711
-0.0121417
-165.53
-155.877
-146.656
-137.859
-129.474
-121.491
-113.898
-106.686
-99.8404
-93.3512
-87.2067
-81.3933
-75.8996
-70.714
-65.8242
-61.2175
-56.882
-52.8065
-48.9795
-45.3896
-42.0253
-38.8756
-35.9296
-33.1772
-30.6085
-28.2136
-25.9832
-23.908
-21.9791
-20.1881
-18.5266
-16.9869
-15.5614
-14.2429
-13.0248
-11.9004
-10.8635
-9.90841
-9.02941
-8.22127
-7.479
-6.79789
-6.17352
-5.6017
-5.07852
-4.60029
-4.16357
-3.76514
-3.40197
-3.07126
-2.7704
-2.49693
-2.2486
-2.0233
-1.81908
-1.63414
-1.46682
-1.31556
-1.17895
-1.05569
-0.944559
-0.84446
-0.754375
-0.673373
-0.600602
-0.535282
-0.4767
-0.424207
-0.37721
-0.335168
-0.297593
-0.264037
-0.234097
-0.207405
-0.18363
-0.162472
-0.143659
-0.126946
-0.112113
-0.098962
-0.0873135
-0.0770075
-0.0679004
-0.0598634
-0.0527816
-0.0465523
-0.0410844
-0.0362966
-0.0321172
-0.0284829
-0.0253381
-0.0226342
-0.0203291
-0.0183865
-0.0167758
-0.0154712
-0.0144519
-0.0137015
-0.0132079
-0.012963
-175.977
-165.714
-155.912
-146.559
-137.645
-129.158
-121.086
-113.419
-106.141
-99.2427
-92.7103
-86.5301
-80.6896
-75.1768
-69.9783
-65.0809
-60.4719
-56.1391
-52.0706
-48.2542
-44.6776
-41.329
-38.1971
-35.2711
-32.5402
-29.9942
-27.623
-25.4168
-23.3663
-21.4622
-19.6958
-18.0589
-16.5434
-15.1418
-13.8468
-12.6514
-11.5491
-10.5337
-9.59925
-8.74011
-7.951
-7.22691
-6.56313
-5.95522
-5.39902
-4.89062
-4.42634
-4.00275
-3.61667
-3.26509
-2.94524
-2.65451
-2.39051
-2.15099
-1.93388
-1.73727
-1.55939
-1.39859
-1.25336
-1.12231
-1.00417
-0.897754
-0.801984
-0.71587
-0.638506
-0.569064
-0.506785
-0.450979
-0.401015
-0.356321
-0.316374
-0.280701
-0.248871
-0.220495
-0.195219
-0.172726
-0.152725
-0.134958
-0.119189
-0.105208
-0.0928239
-0.0818676
-0.0721857
-0.0636415
-0.0561127
-0.0494903
-0.0436773
-0.0385873
-0.0341442
-0.0302805
-0.0269373
-0.0240627
-0.0216121
-0.0195469
-0.0178345
-0.0164476
-0.015364
-0.0145663
-0.0140415
-0.0137812
-186.38
-175.511
-165.129
-155.223
-145.782
-136.793
-128.245
-120.123
-112.416
-105.11
-98.191
-91.6455
-85.4597
-79.621
-74.1152
-68.9283
-64.0468
-59.4579
-55.1489
-51.1068
-47.3188
-43.7722
-40.4552
-37.3562
-34.4639
-31.7674
-29.256
-26.9194
-24.7476
-22.7309
-20.8602
-19.1265
-17.5214
-16.037
-14.6653
-13.3993
-12.2319
-11.1564
-10.1667
-9.2568
-8.42104
-7.65414
-6.95112
-6.30728
-5.7182
-5.17973
-4.68801
-4.23939
-3.83048
-3.45811
-3.11935
-2.81144
-2.53182
-2.27815
-2.04821
-1.83998
-1.65157
-1.48127
-1.32745
-1.18866
-1.06353
-0.950827
-0.849395
-0.75819
-0.676253
-0.602705
-0.536745
-0.47764
-0.424722
-0.377386
-0.335077
-0.297295
-0.263583
-0.23353
-0.20676
-0.182937
-0.161754
-0.142936
-0.126235
-0.111427
-0.0983115
-0.0867074
-0.0764531
-0.0674038
-0.05943
-0.0524161
-0.0462594
-0.0408685
-0.0361627
-0.0320707
-0.0285298
-0.0254853
-0.0228898
-0.0207025
-0.0188889
-0.01742
-0.0162723
-0.0154274
-0.0148716
-0.0145959
-196.737
-185.264
-174.305
-163.849
-153.883
-144.395
-135.371
-126.799
-118.663
-110.951
-103.648
-96.7383
-90.2088
-84.0456
-78.2338
-72.7587
-67.6059
-62.762
-58.2136
-53.9469
-49.9483
-46.2047
-42.7034
-39.4321
-36.3791
-33.5327
-30.8818
-28.4153
-26.1228
-23.9941
-22.0194
-20.1894
-18.4951
-16.9281
-15.4803
-14.1439
-12.9116
-11.7764
-10.7317
-9.7712
-8.889
-8.07949
-7.3374
-6.65778
-6.03596
-5.46757
-4.94852
-4.47497
-4.04334
-3.65028
-3.29269
-2.96767
-2.67252
-2.40474
-2.16203
-1.94223
-1.74335
-1.56358
-1.40122
-1.25472
-1.12264
-1.00366
-0.896596
-0.800323
-0.713833
-0.636198
-0.566572
-0.504182
-0.448325
-0.398357
-0.353698
-0.313816
-0.278231
-0.246507
-0.21825
-0.193103
-0.170743
-0.150879
-0.13325
-0.117619
-0.103775
-0.0915259
-0.0807018
-0.0711496
-0.0627326
-0.055329
-0.0488301
-0.0431397
-0.0381724
-0.0338529
-0.0301152
-0.0269016
-0.0241619
-0.021853
-0.0199386
-0.0183881
-0.0171767
-0.0162848
-0.0156981
-0.0154071
-207.046
-194.971
-183.438
-172.434
-161.946
-151.961
-142.464
-133.443
-124.881
-116.764
-109.079
-101.807
-94.9356
-88.4494
-82.3332
-76.5711
-71.1483
-66.0507
-61.2639
-56.7736
-52.5655
-48.6257
-44.9409
-41.4983
-38.2853
-35.2898
-32.4999
-29.9043
-27.4916
-25.2514
-23.1732
-21.2473
-19.4642
-17.8151
-16.2914
-14.885
-13.5882
-12.3935
-11.294
-10.2832
-9.35476
-8.50284
-7.72187
-7.00663
-6.35223
-5.75407
-5.20782
-4.70945
-4.2552
-3.84155
-3.46522
-3.12317
-2.81256
-2.53075
-2.27531
-2.04399
-1.8347
-1.64551
-1.47464
-1.32046
-1.18146
-1.05626
-0.943577
-0.842259
-0.751237
-0.669534
-0.59626
-0.530601
-0.471816
-0.419231
-0.372231
-0.33026
-0.29281
-0.259424
-0.229686
-0.203221
-0.179689
-0.158785
-0.140232
-0.123783
-0.109213
-0.0963218
-0.0849305
-0.0748778
-0.0660198
-0.0582282
-0.0513888
-0.0454002
-0.0401726
-0.0356268
-0.0316933
-0.0283112
-0.0254279
-0.0229982
-0.0209834
-0.0193517
-0.0180767
-0.0171381
-0.0165207
-0.0162145
-217.303
-204.631
-192.526
-180.977
-169.969
-159.49
-149.522
-140.054
-131.068
-122.549
-114.483
-106.851
-99.639
-92.8315
-86.4122
-80.3646
-74.6732
-69.323
-64.2991
-59.5863
-55.1697
-51.0348
-47.1674
-43.5542
-40.182
-37.0381
-34.1101
-31.3858
-28.8537
-26.5024
-24.3212
-22.2999
-20.4285
-18.6977
-17.0986
-15.6225
-14.2614
-13.0075
-11.8536
-10.7927
-9.81822
-8.92409
-8.10443
-7.35376
-6.66694
-6.03914
-5.46582
-4.94277
-4.46602
-4.03187
-3.6369
-3.2779
-2.9519
-2.65613
-2.38804
-2.14526
-1.9256
-1.72703
-1.5477
-1.38588
-1.23999
-1.10859
-0.990324
-0.883987
-0.788455
-0.702705
-0.6258
-0.556888
-0.495191
-0.440001
-0.390673
-0.346622
-0.307317
-0.272277
-0.241065
-0.213289
-0.188592
-0.166652
-0.14718
-0.129915
-0.114623
-0.101094
-0.0891383
-0.0785875
-0.0692907
-0.0611131
-0.0539348
-0.0476495
-0.0421629
-0.0373919
-0.0332635
-0.0297139
-0.0266878
-0.0241376
-0.0220231
-0.0203104
-0.0189724
-0.0179873
-0.0173393
-0.0170178
-227.507
-214.24
-201.567
-189.475
-177.951
-166.979
-156.544
-146.631
-137.222
-128.304
-119.858
-111.868
-104.318
-97.1906
-90.4698
-84.1383
-78.1797
-72.5782
-67.3184
-62.3843
-57.7603
-53.4312
-49.3823
-45.5994
-42.0689
-38.7773
-35.7118
-32.8596
-30.2085
-27.7469
-25.4633
-23.347
-21.3878
-19.5757
-17.9015
-16.3561
-14.931
-13.6183
-12.4102
-11.2994
-10.2793
-9.34314
-8.48499
-7.69907
-6.98
-6.32272
-5.72249
-5.17487
-4.67573
-4.2212
-3.80768
-3.43182
-3.09051
-2.78085
-2.50018
-2.246
-2.01602
-1.80813
-1.62038
-1.45096
-1.29822
-1.16064
-1.03683
-0.925497
-0.825479
-0.735702
-0.655186
-0.583039
-0.518444
-0.460662
-0.409018
-0.362898
-0.321748
-0.285062
-0.252385
-0.223305
-0.197448
-0.174478
-0.154091
-0.136016
-0.120006
-0.105841
-0.0933241
-0.0822779
-0.0725444
-0.0639828
-0.0564675
-0.0498871
-0.0441429
-0.0391478
-0.0348256
-0.0311092
-0.027941
-0.0252711
-0.0230573
-0.0212642
-0.0198633
-0.018832
-0.0181535
-0.017817
-237.655
-223.796
-210.558
-197.927
-185.888
-174.427
-163.526
-153.171
-143.343
-134.027
-125.205
-116.858
-108.971
-101.526
-94.5052
-87.8913
-81.6668
-75.8155
-70.3211
-65.1669
-60.3367
-55.8145
-51.585
-47.6334
-43.9454
-40.507
-37.3047
-34.3253
-31.556
-28.9845
-26.5991
-24.3884
-22.3418
-20.4489
-18.7
-17.0856
-15.597
-14.2257
-12.9637
-11.8035
-10.7378
-9.75989
-8.86346
-8.04249
-7.29134
-6.60474
-5.97773
-5.40569
-4.88429
-4.40948
-3.97752
-3.5849
-3.22836
-2.90489
-2.6117
-2.34618
-2.10594
-1.88878
-1.69265
-1.51568
-1.35613
-1.21241
-1.08307
-0.966778
-0.862299
-0.768518
-0.684411
-0.609045
-0.54157
-0.48121
-0.427262
-0.379085
-0.336099
-0.297777
-0.263643
-0.233265
-0.206255
-0.18226
-0.160964
-0.142083
-0.125359
-0.110562
-0.0974868
-0.0859479
-0.0757803
-0.0668368
-0.0589863
-0.0521124
-0.0461119
-0.0408941
-0.036379
-0.0324969
-0.0291874
-0.0263984
-0.0240858
-0.0222128
-0.0207494
-0.019672
-0.0189633
-0.0186118
-247.744
-233.297
-219.497
-206.329
-193.78
-181.832
-170.468
-159.674
-149.429
-139.716
-130.52
-121.819
-113.597
-105.836
-98.5172
-91.6225
-85.1338
-79.0342
-73.3064
-67.9335
-62.8982
-58.184
-53.7749
-49.6555
-45.811
-42.2267
-38.8884
-35.7825
-32.8956
-30.215
-27.7283
-25.4238
-23.2903
-21.317
-19.4938
-17.811
-16.2592
-14.8296
-13.5141
-12.3045
-11.1936
-10.1742
-9.23974
-8.38392
-7.60088
-6.88513
-6.23151
-5.63518
-5.09164
-4.59668
-4.14638
-3.73709
-3.36541
-3.02822
-2.72257
-2.44578
-2.19535
-1.96897
-1.76451
-1.58002
-1.4137
-1.26388
-1.12905
-1.00782
-0.898907
-0.801144
-0.713466
-0.634901
-0.564561
-0.501639
-0.445401
-0.395179
-0.350368
-0.310419
-0.274836
-0.243168
-0.215011
-0.189998
-0.167798
-0.148115
-0.130681
-0.115256
-0.101626
-0.0895968
-0.0789976
-0.0696744
-0.0614906
-0.0543248
-0.0480696
-0.0426302
-0.0379235
-0.0338766
-0.0304265
-0.0275191
-0.0251084
-0.0231558
-0.0216303
-0.0205072
-0.0197684
-0.0194019
-257.772
-242.74
-228.381
-214.681
-201.623
-189.192
-177.369
-166.137
-155.477
-145.372
-135.803
-126.75
-118.195
-110.12
-102.505
-95.3312
-88.5799
-82.2333
-76.2737
-70.6833
-65.4442
-60.5391
-55.9516
-51.6655
-47.6653
-43.9359
-40.4625
-37.2309
-34.2272
-31.438
-28.8507
-26.4529
-24.233
-22.1799
-20.2829
-18.5319
-16.9173
-15.4299
-14.0611
-12.8026
-11.6467
-10.5861
-9.61374
-8.72328
-7.90855
-7.16383
-6.48374
-5.86328
-5.29774
-4.78274
-4.31421
-3.88835
-3.50164
-3.15079
-2.83277
-2.54478
-2.28421
-2.04867
-1.83593
-1.64398
-1.47092
-1.31504
-1.17476
-1.04862
-0.935293
-0.833573
-0.742346
-0.6606
-0.587413
-0.521944
-0.46343
-0.411175
-0.36455
-0.322984
-0.285961
-0.253011
-0.223714
-0.197689
-0.17459
-0.15411
-0.13597
-0.119921
-0.105739
-0.0932235
-0.0821953
-0.0724947
-0.0639796
-0.0565238
-0.0500154
-0.0443559
-0.0394586
-0.0352479
-0.0316582
-0.0286331
-0.0261247
-0.0240932
-0.0225059
-0.0213373
-0.0205687
-0.0201873
-267.737
-252.123
-237.21
-222.98
-209.417
-196.505
-184.225
-172.559
-161.487
-150.991
-141.053
-131.65
-122.764
-114.377
-106.467
-99.0163
-92.004
-85.4121
-79.2222
-73.4156
-67.974
-62.8793
-58.1145
-53.6627
-49.5079
-45.6343
-42.0267
-38.6701
-35.5503
-32.6533
-29.9659
-27.4754
-25.1697
-23.0373
-21.0669
-19.2483
-17.5712
-16.0264
-14.6046
-13.2975
-12.0969
-10.9953
-9.98537
-9.06048
-8.21426
-7.44075
-6.73438
-6.08993
-5.50253
-4.96762
-4.48098
-4.03866
-3.637
-3.27259
-2.94228
-2.64315
-2.37251
-2.12786
-1.90691
-1.70753
-1.52778
-1.36588
-1.22017
-1.08915
-0.971448
-0.865795
-0.771042
-0.686137
-0.610121
-0.542121
-0.481344
-0.427069
-0.378642
-0.33547
-0.297015
-0.262792
-0.232363
-0.205331
-0.181339
-0.160068
-0.141227
-0.124557
-0.109827
-0.0968273
-0.0853727
-0.0752972
-0.0664529
-0.0587089
-0.0519489
-0.0460706
-0.040984
-0.0366105
-0.0328821
-0.02974
-0.0271347
-0.0250246
-0.0233759
-0.0221622
-0.0213638
-0.0209678
-277.635
-261.445
-245.979
-231.224
-217.16
-203.77
-191.036
-178.939
-167.458
-156.574
-146.267
-136.517
-127.303
-118.605
-110.404
-102.677
-95.4055
-88.5699
-82.1511
-76.1298
-70.487
-65.204
-60.263
-55.6466
-51.3382
-47.3214
-43.5804
-40.0998
-36.8646
-33.8605
-31.0738
-28.4912
-26.1003
-23.889
-21.8458
-19.9599
-18.2209
-16.6189
-15.1446
-13.7891
-12.5441
-11.4018
-10.3545
-9.39546
-8.51795
-7.71584
-6.98335
-6.31508
-5.70596
-5.15128
-4.64665
-4.18798
-3.77146
-3.39358
-3.05106
-2.74087
-2.46022
-2.20653
-1.9774
-1.77066
-1.58427
-1.41637
-1.26528
-1.12942
-1.00736
-0.897805
-0.799549
-0.711504
-0.632677
-0.562164
-0.49914
-0.442859
-0.392641
-0.347872
-0.307996
-0.272508
-0.240953
-0.212922
-0.188044
-0.165986
-0.146448
-0.129162
-0.113887
-0.100407
-0.0885291
-0.0780811
-0.0689098
-0.0608795
-0.0538696
-0.0477739
-0.0424993
-0.0379641
-0.0340978
-0.0308396
-0.0281379
-0.0259498
-0.0242402
-0.0229816
-0.0221537
-0.021743
-287.465
-270.701
-254.688
-239.41
-224.848
-210.985
-197.8
-185.274
-173.387
-162.117
-151.446
-141.351
-131.81
-122.805
-114.313
-106.312
-98.7834
-91.7058
-85.0597
-78.8253
-72.9827
-67.5126
-62.3967
-57.6168
-53.1559
-48.9969
-45.1234
-41.5196
-38.1698
-35.0594
-32.174
-29.5
-27.0244
-24.7348
-22.6193
-20.6666
-18.866
-17.2073
-15.6808
-14.2773
-12.9883
-11.8055
-10.7211
-9.72811
-8.81953
-7.98903
-7.23061
-6.53867
-5.90798
-5.33367
-4.81117
-4.33625
-3.90499
-3.51373
-3.15908
-2.83791
-2.54733
-2.28465
-2.04742
-1.83335
-1.64036
-1.46652
-1.31008
-1.16941
-1.04303
-0.929592
-0.827857
-0.736696
-0.655078
-0.582068
-0.516813
-0.458539
-0.406543
-0.360189
-0.318901
-0.282156
-0.249485
-0.220461
-0.194702
-0.171863
-0.151633
-0.133736
-0.11792
-0.103962
-0.0916637
-0.0808457
-0.0713497
-0.063035
-0.0557769
-0.0494655
-0.0440041
-0.0393083
-0.0353051
-0.0319316
-0.0291343
-0.0268687
-0.0250986
-0.0237954
-0.0229382
-0.0225129
-297.224
-279.891
-263.335
-247.538
-232.482
-218.147
-204.515
-191.564
-179.273
-167.621
-156.588
-146.149
-136.285
-126.974
-118.193
-109.921
-102.137
-94.819
-87.9474
-81.5013
-75.4603
-69.8046
-64.5149
-59.5729
-54.9605
-50.6603
-46.6553
-42.9291
-39.4656
-36.2496
-33.2662
-30.5014
-27.9418
-25.5745
-23.3871
-21.3682
-19.5064
-17.7914
-16.2131
-14.762
-13.4292
-12.2062
-11.0851
-10.0584
-9.11894
-8.26024
-7.47607
-6.76065
-6.10855
-5.51474
-4.9745
-4.48346
-4.03756
-3.63302
-3.26633
-2.93426
-2.63381
-2.36221
-2.11692
-1.89559
-1.69605
-1.51631
-1.35455
-1.20911
-1.07844
-0.961151
-0.855962
-0.761706
-0.677317
-0.601828
-0.534358
-0.474105
-0.420345
-0.372417
-0.329727
-0.291735
-0.257954
-0.227945
-0.201312
-0.177697
-0.156781
-0.138276
-0.121923
-0.107492
-0.0947756
-0.0835904
-0.073772
-0.0651751
-0.0576706
-0.0511448
-0.045498
-0.0406429
-0.0365038
-0.0330157
-0.0301234
-0.0277809
-0.0259507
-0.0246033
-0.0237169
-0.0232773
-306.91
-289.012
-271.916
-255.604
-240.058
-225.256
-211.179
-197.806
-185.115
-173.083
-161.69
-150.912
-140.726
-131.111
-122.045
-113.504
-105.465
-97.9089
-90.8133
-84.1572
-77.9193
-72.0793
-66.6173
-61.5142
-56.7515
-52.3111
-48.1757
-44.328
-40.7517
-37.4308
-34.3503
-31.4954
-28.8524
-26.4079
-24.1493
-22.0645
-20.1421
-18.3712
-16.7414
-15.2431
-13.8668
-12.604
-11.4463
-10.3861
-9.4161
-8.52942
-7.7197
-6.98096
-6.30761
-5.69444
-5.1366
-4.62957
-4.16913
-3.7514
-3.37277
-3.02987
-2.71963
-2.43919
-2.18591
-1.95736
-1.75132
-1.56572
-1.39869
-1.24851
-1.11358
-0.992472
-0.883856
-0.786527
-0.699389
-0.62144
-0.551771
-0.489555
-0.434043
-0.384554
-0.340472
-0.301242
-0.266361
-0.235373
-0.207872
-0.183488
-0.16189
-0.142782
-0.125896
-0.110995
-0.0978642
-0.0863144
-0.0761762
-0.067299
-0.05955
-0.0528116
-0.0469807
-0.0419674
-0.0376934
-0.0340916
-0.0311051
-0.0286863
-0.0267964
-0.0254051
-0.0244899
-0.0240359
-316.52
-298.061
-280.43
-263.608
-247.574
-232.309
-217.792
-204
-190.911
-178.503
-166.753
-155.637
-145.132
-135.217
-125.866
-117.058
-108.768
-100.975
-93.6568
-86.7923
-80.3591
-74.3362
-68.7032
-63.4403
-58.5285
-53.9491
-49.6842
-45.716
-42.0277
-38.6029