/*--------------------------------*- C++ -*----------------------------------*\
| =========                 |                                                 |
| \\      /  F ield         | OpenFOAM: The Open Source CFD Toolbox           |
|  \\    /   O peration     | Version:  2406                                  |
|   \\  /    A nd           | Website:  www.openfoam.com                      |
|    \\/     M anipulation  |                                                 |
\*---------------------------------------------------------------------------*/
FoamFile
{
    version     2.0;
    format      ascii;
    arch        "LSB;label=32;scalar=64";
    class       volVectorField;
    location    "120";
    object      flux;
}
// * * * * * * * * * * * * * * * * * * * * * * * * * * * * * * * * * * * * * //

dimensions      [0 1 -1 1 0 0 0];

internalField   nonuniform List<vector> 
20000
(
(0.000605527 0.0112093 0)
(0.000527475 0.0123397 0)
(0.00045446 0.0133191 0)
(0.000386293 0.0141574 0)
(0.000322871 0.0148642 0)
(0.000264093 0.0154488 0)
(0.000209663 0.0159204 0)
(0.000159432 0.0162874 0)
(0.00011333 0.0165582 0)
(7.11333e-05 0.0167407 0)
(3.26162e-05 0.0168427 0)
(-2.39936e-06 0.0168712 0)
(-3.40741e-05 0.0168331 0)
(-6.25767e-05 0.0167349 0)
(-8.80848e-05 0.0165828 0)
(-0.000110778 0.0163826 0)
(-0.000130832 0.0161397 0)
(-0.000148414 0.0158593 0)
(-0.000163689 0.0155461 0)
(-0.000176812 0.0152046 0)
(-0.000187934 0.0148389 0)
(-0.000197203 0.0144529 0)
(-0.000204758 0.0140501 0)
(-0.000210736 0.0136339 0)
(-0.000215264 0.0132072 0)
(-0.000218466 0.0127729 0)
(-0.000220459 0.0123334 0)
(-0.000221356 0.0118911 0)
(-0.00022126 0.011448 0)
(-0.000220273 0.0110061 0)
(-0.000218486 0.010567 0)
(-0.000215989 0.0101322 0)
(-0.000212863 0.00970311 0)
(-0.000209187 0.00928083 0)
(-0.00020503 0.00886642 0)
(-0.000200462 0.00846076 0)
(-0.000195543 0.00806462 0)
(-0.00019033 0.00767863 0)
(-0.000184877 0.00730334 0)
(-0.000179232 0.00693917 0)
(-0.00017344 0.00658646 0)
(-0.00016754 0.00624545 0)
(-0.00016157 0.00591634 0)
(-0.000155563 0.00559921 0)
(-0.00014955 0.00529412 0)
(-0.000143556 0.00500105 0)
(-0.000137607 0.00471993 0)
(-0.000131724 0.00445066 0)
(-0.000125925 0.00419307 0)
(-0.000120228 0.00394699 0)
(-0.000114645 0.00371219 0)
(-0.00010919 0.00348843 0)
(-0.000103873 0.00327546 0)
(-9.87022e-05 0.00307297 0)
(-9.3685e-05 0.00288067 0)
(-8.88268e-05 0.00269825 0)
(-8.4132e-05 0.00252539 0)
(-7.96036e-05 0.00236174 0)
(-7.52434e-05 0.00220699 0)
(-7.10526e-05 0.00206079 0)
(-6.70311e-05 0.0019228 0)
(-6.31783e-05 0.00179268 0)
(-5.94929e-05 0.0016701 0)
(-5.59728e-05 0.00155472 0)
(-5.26156e-05 0.00144622 0)
(-4.94181e-05 0.00134427 0)
(-4.63772e-05 0.00124856 0)
(-4.34891e-05 0.00115878 0)
(-4.07498e-05 0.00107462 0)
(-3.81552e-05 0.000995788 0)
(-3.57008e-05 0.000922005 0)
(-3.33823e-05 0.000852993 0)
(-3.1195e-05 0.000788484 0)
(-2.91344e-05 0.000728221 0)
(-2.71958e-05 0.000671954 0)
(-2.53746e-05 0.000619444 0)
(-2.36662e-05 0.000570462 0)
(-2.20662e-05 0.000524785 0)
(-2.057e-05 0.000482202 0)
(-1.91734e-05 0.00044251 0)
(-1.78722e-05 0.000405513 0)
(-1.66624e-05 0.000371026 0)
(-1.55399e-05 0.000338868 0)
(-1.45012e-05 0.00030887 0)
(-1.35425e-05 0.000280867 0)
(-1.26606e-05 0.000254703 0)
(-1.18522e-05 0.000230228 0)
(-1.11143e-05 0.000207297 0)
(-1.04441e-05 0.000185773 0)
(-9.83899e-06 0.000165523 0)
(-9.29658e-06 0.00014642 0)
(-8.81468e-06 0.000128339 0)
(-8.39131e-06 0.000111163 0)
(-8.02473e-06 9.47759e-05 0)
(-7.71339e-06 7.90661e-05 0)
(-7.45596e-06 6.39243e-05 0)
(-7.25134e-06 4.92441e-05 0)
(-7.09865e-06 3.49207e-05 0)
(-6.99722e-06 2.08512e-05 0)
(-6.94662e-06 6.93356e-06 0)
(0.00181646 0.0112065 0)
(0.00158228 0.0123367 0)
(0.00136321 0.0133158 0)
(0.00115881 0.0141539 0)
(0.000968577 0.0148606 0)
(0.000792157 0.0154451 0)
(0.000628901 0.0159165 0)
(0.000478294 0.0162834 0)
(0.000339992 0.0165541 0)
(0.000213378 0.0167366 0)
(9.78235e-05 0.0168385 0)
(-7.20768e-06 0.016867 0)
(-0.000102214 0.0168289 0)
(-0.00018771 0.0167308 0)
(-0.000264228 0.0165787 0)
(-0.000332304 0.0163785 0)
(-0.000392462 0.0161357 0)
(-0.000445207 0.0158554 0)
(-0.000491027 0.0155422 0)
(-0.000530392 0.0152008 0)
(-0.000563757 0.0148352 0)
(-0.000591561 0.0144493 0)
(-0.000614225 0.0140466 0)
(-0.000632155 0.0136305 0)
(-0.000645738 0.013204 0)
(-0.000655343 0.0127697 0)
(-0.000661324 0.0123304 0)
(-0.000664013 0.0118882 0)
(-0.000663726 0.0114452 0)
(-0.000660763 0.0110034 0)
(-0.000655404 0.0105644 0)
(-0.000647913 0.0101297 0)
(-0.000638537 0.00970072 0)
(-0.000627508 0.00927854 0)
(-0.000615041 0.00886423 0)
(-0.000601336 0.00845867 0)
(-0.00058658 0.00806263 0)
(-0.000570944 0.00767674 0)
(-0.000554587 0.00730154 0)
(-0.000537653 0.00693746 0)
(-0.000520276 0.00658483 0)
(-0.000502579 0.00624391 0)
(-0.00048467 0.00591488 0)
(-0.000466652 0.00559783 0)
(-0.000448612 0.00529282 0)
(-0.000430634 0.00499982 0)
(-0.000412788 0.00471877 0)
(-0.00039514 0.00444956 0)
(-0.000377745 0.00419203 0)
(-0.000360653 0.00394601 0)
(-0.000343907 0.00371127 0)
(-0.000327543 0.00348757 0)
(-0.000311593 0.00327465 0)
(-0.000296082 0.00307221 0)
(-0.000281032 0.00287996 0)
(-0.000266459 0.00269759 0)
(-0.000252375 0.00252476 0)
(-0.000238791 0.00236116 0)
(-0.000225712 0.00220645 0)
(-0.00021314 0.00206028 0)
(-0.000201077 0.00192232 0)
(-0.000189519 0.00179224 0)
(-0.000178464 0.00166969 0)
(-0.000167905 0.00155434 0)
(-0.000157834 0.00144587 0)
(-0.000148242 0.00134394 0)
(-0.00013912 0.00124825 0)
(-0.000130457 0.00115849 0)
(-0.000122239 0.00107435 0)
(-0.000114456 0.000995542 0)
(-0.000107094 0.000921778 0)
(-0.000100139 0.000852783 0)
(-9.35775e-05 0.00078829 0)
(-8.73961e-05 0.000728041 0)
(-8.15808e-05 0.000671788 0)
(-7.61176e-05 0.000619291 0)
(-7.09929e-05 0.000570321 0)
(-6.61931e-05 0.000524656 0)
(-6.1705e-05 0.000482083 0)
(-5.75156e-05 0.000442401 0)
(-5.36123e-05 0.000405413 0)
(-4.9983e-05 0.000370934 0)
(-4.6616e-05 0.000338784 0)
(-4.35e-05 0.000308793 0)
(-4.06243e-05 0.000280798 0)
(-3.79787e-05 0.00025464 0)
(-3.55537e-05 0.000230171 0)
(-3.33402e-05 0.000207246 0)
(-3.13297e-05 0.000185727 0)
(-2.95145e-05 0.000165482 0)
(-2.78874e-05 0.000146383 0)
(-2.64419e-05 0.000128307 0)
(-2.51719e-05 0.000111136 0)
(-2.40722e-05 9.47526e-05 0)
(-2.31383e-05 7.90466e-05 0)
(-2.2366e-05 6.39085e-05 0)
(-2.17522e-05 4.92319e-05 0)
(-2.12942e-05 3.49121e-05 0)
(-2.09899e-05 2.08461e-05 0)
(-2.08382e-05 6.93185e-06 0)
(0.00302695 0.011201 0)
(0.00263674 0.0123306 0)
(0.00227164 0.0133093 0)
(0.00193104 0.0141469 0)
(0.00161405 0.0148532 0)
(0.00132 0.0154374 0)
(0.00104797 0.0159086 0)
(0.000797062 0.0162753 0)
(0.00056659 0.0165459 0)
(0.000355567 0.0167284 0)
(0.000162992 0.0168302 0)
(-1.20242e-05 0.0168587 0)
(-0.00017033 0.0168206 0)
(-0.000312792 0.0167225 0)
(-0.000440301 0.0165705 0)
(-0.000553745 0.0163705 0)
(-0.000653994 0.0161278 0)
(-0.00074189 0.0158476 0)
(-0.000818244 0.0155346 0)
(-0.000883842 0.0151933 0)
(-0.000939442 0.0148279 0)
(-0.000985773 0.0144422 0)
(-0.00102354 0.0140397 0)
(-0.00105342 0.0136238 0)
(-0.00107605 0.0131974 0)
(-0.00109206 0.0127634 0)
(-0.00110202 0.0123243 0)
(-0.00110651 0.0118823 0)
(-0.00110603 0.0114396 0)
(-0.00110109 0.010998 0)
(-0.00109216 0.0105592 0)
(-0.00107968 0.0101247 0)
(-0.00106405 0.00969593 0)
(-0.00104567 0.00927396 0)
(-0.0010249 0.00885985 0)
(-0.00100206 0.0084545 0)
(-0.000977473 0.00805865 0)
(-0.000951417 0.00767295 0)
(-0.000924159 0.00729794 0)
(-0.000895941 0.00693403 0)
(-0.000866985 0.00658158 0)
(-0.000837493 0.00624083 0)
(-0.000807651 0.00591196 0)
(-0.000777625 0.00559507 0)
(-0.000747564 0.00529021 0)
(-0.000717605 0.00499735 0)
(-0.000687867 0.00471644 0)
(-0.000658458 0.00444736 0)
(-0.000629472 0.00418997 0)
(-0.00060099 0.00394406 0)
(-0.000573084 0.00370944 0)
(-0.000545816 0.00348585 0)
(-0.000519236 0.00327303 0)
(-0.000493389 0.00307069 0)
(-0.000468309 0.00287854 0)
(-0.000444025 0.00269625 0)
(-0.000420556 0.00252352 0)
(-0.00039792 0.00236 0)
(-0.000376124 0.00220536 0)
(-0.000355175 0.00205926 0)
(-0.000335073 0.00192137 0)
(-0.000315814 0.00179135 0)
(-0.000297391 0.00166886 0)
(-0.000279795 0.00155357 0)
(-0.000263013 0.00144515 0)
(-0.00024703 0.00134328 0)
(-0.000231829 0.00124764 0)
(-0.000217392 0.00115792 0)
(-0.000203699 0.00107382 0)
(-0.000190729 0.000995051 0)
(-0.00017846 0.000921323 0)
(-0.00016687 0.000852362 0)
(-0.000155937 0.000787901 0)
(-0.000145636 0.000727682 0)
(-0.000135946 0.000671457 0)
(-0.000126842 0.000618986 0)
(-0.000118302 0.00057004 0)
(-0.000110304 0.000524397 0)
(-0.000102825 0.000481846 0)
(-9.58436e-05 0.000442183 0)
(-8.93392e-05 0.000405213 0)
(-8.32914e-05 0.000370751 0)
(-7.76805e-05 0.000338617 0)
(-7.2488e-05 0.000308641 0)
(-6.7696e-05 0.000280659 0)
(-6.32874e-05 0.000254514 0)
(-5.92464e-05 0.000230057 0)
(-5.55578e-05 0.000207144 0)
(-5.22076e-05 0.000185636 0)
(-4.91828e-05 0.000165401 0)
(-4.64714e-05 0.000146311 0)
(-4.40625e-05 0.000128244 0)
(-4.19462e-05 0.000111081 0)
(-4.01138e-05 9.47058e-05 0)
(-3.85574e-05 7.90076e-05 0)
(-3.72706e-05 6.3877e-05 0)
(-3.62478e-05 4.92076e-05 0)
(-3.54845e-05 3.48949e-05 0)
(-3.49775e-05 2.08358e-05 0)
(-3.47245e-05 6.92843e-06 0)
(0.00423666 0.0111927 0)
(0.00369055 0.0123214 0)
(0.00317955 0.0132994 0)
(0.00270278 0.0141364 0)
(0.00225911 0.0148422 0)
(0.00184753 0.015426 0)
(0.00146679 0.0158968 0)
(0.00111564 0.0162633 0)
(0.000793046 0.0165337 0)
(0.000497659 0.016716 0)
(0.000228113 0.0168178 0)
(-1.68401e-05 0.0168462 0)
(-0.000238402 0.0168081 0)
(-0.000437794 0.0167101 0)
(-0.000616262 0.0165582 0)
(-0.000775047 0.0163583 0)
(-0.000915364 0.0161158 0)
(-0.00103839 0.0158358 0)
(-0.00114526 0.0155231 0)
(-0.00123708 0.0151821 0)
(-0.0013149 0.0148169 0)
(-0.00137974 0.0144315 0)
(-0.0014326 0.0140293 0)
(-0.00147442 0.0136137 0)
(-0.0015061 0.0131877 0)
(-0.00152851 0.012754 0)
(-0.00154245 0.0123152 0)
(-0.00154873 0.0118735 0)
(-0.00154806 0.0114311 0)
(-0.00154115 0.0109898 0)
(-0.00152865 0.0105514 0)
(-0.00151118 0.0101172 0)
(-0.00148931 0.00968875 0)
(-0.00146358 0.00926709 0)
(-0.00143451 0.00885329 0)
(-0.00140254 0.00844823 0)
(-0.00136812 0.00805268 0)
(-0.00133166 0.00766727 0)
(-0.0012935 0.00729253 0)
(-0.00125401 0.0069289 0)
(-0.00121348 0.00657671 0)
(-0.0011722 0.00623621 0)
(-0.00113043 0.00590758 0)
(-0.00108841 0.00559093 0)
(-0.00104633 0.00528629 0)
(-0.0010044 0.00499365 0)
(-0.000962777 0.00471295 0)
(-0.000921614 0.00444407 0)
(-0.000881043 0.00418686 0)
(-0.000841178 0.00394114 0)
(-0.00080212 0.00370669 0)
(-0.000763953 0.00348327 0)
(-0.000726752 0.00327061 0)
(-0.000690574 0.00306842 0)
(-0.000655471 0.00287641 0)
(-0.000621481 0.00269426 0)
(-0.000588634 0.00252165 0)
(-0.00055695 0.00235825 0)
(-0.000526444 0.00220372 0)
(-0.000497122 0.00205774 0)
(-0.000468986 0.00191995 0)
(-0.00044203 0.00179003 0)
(-0.000416245 0.00166763 0)
(-0.000391616 0.00155242 0)
(-0.000368127 0.00144408 0)
(-0.000345756 0.00134229 0)
(-0.00032448 0.00124671 0)
(-0.000304274 0.00115706 0)
(-0.000285108 0.00107303 0)
(-0.000266954 0.000994314 0)
(-0.000249783 0.000920641 0)
(-0.000233561 0.000851731 0)
(-0.000218258 0.000787318 0)
(-0.00020384 0.000727143 0)
(-0.000190277 0.00067096 0)
(-0.000177535 0.000618528 0)
(-0.000165582 0.000569618 0)
(-0.000154387 0.000524009 0)
(-0.000143919 0.000481489 0)
(-0.000134148 0.000441855 0)
(-0.000125044 0.000404913 0)
(-0.000116579 0.000370477 0)
(-0.000108726 0.000338367 0)
(-0.000101458 0.000308413 0)
(-9.4751e-05 0.000280451 0)
(-8.85806e-05 0.000254326 0)
(-8.29245e-05 0.000229887 0)
(-7.77617e-05 0.00020699 0)
(-7.30726e-05 0.000185498 0)
(-6.88389e-05 0.000165278 0)
(-6.50439e-05 0.000146203 0)
(-6.16723e-05 0.000128149 0)
(-5.87102e-05 0.000110999 0)
(-5.61454e-05 9.46357e-05 0)
(-5.39671e-05 7.89491e-05 0)
(-5.2166e-05 6.38297e-05 0)
(-5.07343e-05 4.91712e-05 0)
(-4.9666e-05 3.48691e-05 0)
(-4.89564e-05 2.08204e-05 0)
(-4.86024e-05 6.9233e-06 0)
(0.00544531 0.0111817 0)
(0.00474341 0.0123093 0)
(0.00408665 0.0132862 0)
(0.00347386 0.0141225 0)
(0.00290362 0.0148275 0)
(0.00237462 0.0154108 0)
(0.00188525 0.0158811 0)
(0.00143394 0.0162472 0)
(0.0010193 0.0165174 0)
(0.000639624 0.0166995 0)
(0.000293175 0.0168011 0)
(-2.16516e-05 0.0168295 0)
(-0.000306412 0.0167915 0)
(-0.000562684 0.0166936 0)
(-0.000792068 0.0165419 0)
(-0.000996157 0.0163422 0)
(-0.00117651 0.0160999 0)
(-0.00133463 0.0158202 0)
(-0.001472 0.0155078 0)
(-0.00159 0.0151671 0)
(-0.00169002 0.0148023 0)
(-0.00177337 0.0144172 0)
(-0.00184131 0.0140155 0)
(-0.00189506 0.0136003 0)
(-0.00193578 0.0131746 0)
(-0.00196458 0.0127414 0)
(-0.0019825 0.012303 0)
(-0.00199056 0.0118618 0)
(-0.00198971 0.0114198 0)
(-0.00198082 0.010979 0)
(-0.00196476 0.0105409 0)
(-0.0019423 0.0101072 0)
(-0.00191419 0.00967918 0)
(-0.00188113 0.00925794 0)
(-0.00184376 0.00884455 0)
(-0.00180267 0.00843989 0)
(-0.00175844 0.00804472 0)
(-0.00171156 0.00765969 0)
(-0.00166253 0.00728533 0)
(-0.00161176 0.00692205 0)
(-0.00155967 0.00657021 0)
(-0.00150662 0.00623005 0)
(-0.00145293 0.00590175 0)
(-0.00139892 0.0055854 0)
(-0.00134484 0.00528107 0)
(-0.00129095 0.00498872 0)
(-0.00123745 0.00470829 0)
(-0.00118454 0.00443968 0)
(-0.0011324 0.00418273 0)
(-0.00108116 0.00393725 0)
(-0.00103096 0.00370303 0)
(-0.000981903 0.00347983 0)
(-0.000934087 0.00326738 0)
(-0.000887589 0.00306539 0)
(-0.000842472 0.00287357 0)
(-0.000798784 0.0026916 0)
(-0.000756565 0.00251916 0)
(-0.000715843 0.00235592 0)
(-0.000676634 0.00220155 0)
(-0.000638947 0.00205571 0)
(-0.000602784 0.00191806 0)
(-0.000568137 0.00178826 0)
(-0.000534996 0.00166598 0)
(-0.000503341 0.00155089 0)
(-0.000473151 0.00144266 0)
(-0.000444398 0.00134096 0)
(-0.000417052 0.00124548 0)
(-0.00039108 0.00115592 0)
(-0.000366447 0.00107197 0)
(-0.000343114 0.000993332 0)
(-0.000321043 0.000919732 0)
(-0.000300194 0.00085089 0)
(-0.000280525 0.00078654 0)
(-0.000261994 0.000726425 0)
(-0.000244561 0.000670297 0)
(-0.000228184 0.000617917 0)
(-0.000212821 0.000569055 0)
(-0.000198432 0.000523491 0)
(-0.000184978 0.000481013 0)
(-0.000172419 0.000441419 0)
(-0.000160718 0.000404514 0)
(-0.000149838 0.000370111 0)
(-0.000139744 0.000338032 0)
(-0.000130403 0.000308108 0)
(-0.000121783 0.000280174 0)
(-0.000113852 0.000254075 0)
(-0.000106582 0.00022966 0)
(-9.99464e-05 0.000206786 0)
(-9.39196e-05 0.000185315 0)
(-8.84781e-05 0.000165115 0)
(-8.36004e-05 0.000146059 0)
(-7.92669e-05 0.000128023 0)
(-7.54597e-05 0.000110889 0)
(-7.21632e-05 9.45423e-05 0)
(-6.93634e-05 7.88712e-05 0)
(-6.70485e-05 6.37667e-05 0)
(-6.52084e-05 4.91227e-05 0)
(-6.38353e-05 3.48347e-05 0)
(-6.29233e-05 2.07998e-05 0)
(-6.24682e-05 6.91647e-06 0)
(0.00665262 0.0111679 0)
(0.00579509 0.0122941 0)
(0.00499274 0.0132698 0)
(0.00424408 0.014105 0)
(0.00354741 0.0148092 0)
(0.00290111 0.0153917 0)
(0.00230325 0.0158615 0)
(0.00175188 0.0162272 0)
(0.0012453 0.016497 0)
(0.000781429 0.0166788 0)
(0.000358165 0.0167804 0)
(-2.64564e-05 0.0168087 0)
(-0.000374345 0.0167708 0)
(-0.000687434 0.016673 0)
(-0.000967678 0.0165214 0)
(-0.00121702 0.016322 0)
(-0.00143736 0.01608 0)
(-0.00163055 0.0158006 0)
(-0.00179837 0.0154886 0)
(-0.00194254 0.0151483 0)
(-0.00206474 0.014784 0)
(-0.00216657 0.0143994 0)
(-0.00224957 0.0139981 0)
(-0.00231524 0.0135835 0)
(-0.00236498 0.0131584 0)
(-0.00240016 0.0127256 0)
(-0.00242206 0.0122878 0)
(-0.00243191 0.0118471 0)
(-0.00243086 0.0114057 0)
(-0.00242001 0.0109654 0)
(-0.00240038 0.0105279 0)
(-0.00237295 0.0100947 0)
(-0.00233861 0.00966722 0)
(-0.00229821 0.0092465 0)
(-0.00225255 0.00883362 0)
(-0.00220236 0.00842946 0)
(-0.00214832 0.00803478 0)
(-0.00209105 0.00765023 0)
(-0.00203114 0.00727633 0)
(-0.00196912 0.0069135 0)
(-0.00190548 0.00656209 0)
(-0.00184067 0.00622235 0)
(-0.00177508 0.00589445 0)
(-0.00170909 0.0055785 0)
(-0.00164302 0.00527454 0)
(-0.00157717 0.00498255 0)
(-0.00151182 0.00470247 0)
(-0.00144718 0.00443419 0)
(-0.00138347 0.00417756 0)
(-0.00132087 0.00393239 0)
(-0.00125954 0.00369846 0)
(-0.00119961 0.00347553 0)
(-0.00114119 0.00326334 0)
(-0.00108439 0.0030616 0)
(-0.00102926 0.00287002 0)
(-0.00097589 0.00268827 0)
(-0.000924311 0.00251604 0)
(-0.000874559 0.00235301 0)
(-0.000826657 0.00219883 0)
(-0.000780614 0.00205317 0)
(-0.000736433 0.00191569 0)
(-0.000694104 0.00178605 0)
(-0.000653615 0.00166392 0)
(-0.000614942 0.00154897 0)
(-0.000578057 0.00144087 0)
(-0.000542929 0.0013393 0)
(-0.00050952 0.00124394 0)
(-0.00047779 0.00115449 0)
(-0.000447695 0.00107064 0)
(-0.000419189 0.000992105 0)
(-0.000392225 0.000918596 0)
(-0.000366753 0.000849839 0)
(-0.000342722 0.000785568 0)
(-0.000320083 0.000725528 0)
(-0.000298785 0.000669469 0)
(-0.000278777 0.000617154 0)
(-0.000260008 0.000568352 0)
(-0.000242429 0.000522844 0)
(-0.000225991 0.000480419 0)
(-0.000210648 0.000440874 0)
(-0.000196352 0.000404014 0)
(-0.00018306 0.000369654 0)
(-0.000170729 0.000337615 0)
(-0.000159316 0.000307728 0)
(-0.000148784 0.000279828 0)
(-0.000139095 0.000253761 0)
(-0.000130213 0.000229376 0)
(-0.000122107 0.00020653 0)
(-0.000114743 0.000185086 0)
(-0.000108095 0.000164911 0)
(-0.000102136 0.000145878 0)
(-9.68419e-05 0.000127865 0)
(-9.21907e-05 0.000110752 0)
(-8.81632e-05 9.44256e-05 0)
(-8.47427e-05 7.87738e-05 0)
(-8.19144e-05 6.3688e-05 0)
(-7.96664e-05 4.9062e-05 0)
(-7.79889e-05 3.47916e-05 0)
(-7.68746e-05 2.07741e-05 0)
(-7.63187e-05 6.90793e-06 0)
(0.0078583 0.0111513 0)
(0.00684536 0.0122758 0)
(0.0058976 0.0132501 0)
(0.00501325 0.0140841 0)
(0.00419033 0.0147873 0)
(0.0034269 0.0153689 0)
(0.00272068 0.015838 0)
(0.00206939 0.0162031 0)
(0.00147099 0.0164725 0)
(0.00092304 0.0166541 0)
(0.000423066 0.0167555 0)
(-3.12533e-05 0.0167838 0)
(-0.000442184 0.0167459 0)
(-0.000812012 0.0166482 0)
(-0.00114305 0.0164969 0)
(-0.00143758 0.0162978 0)
(-0.00169786 0.0160562 0)
(-0.00192606 0.0157772 0)
(-0.0021243 0.0154656 0)
(-0.0022946 0.0151259 0)
(-0.00243894 0.0147621 0)
(-0.00255922 0.0143781 0)
(-0.00265727 0.0139774 0)
(-0.00273484 0.0135633 0)
(-0.0027936 0.0131388 0)
(-0.00283515 0.0127068 0)
(-0.00286103 0.0122696 0)
(-0.00287266 0.0118295 0)
(-0.00287142 0.0113888 0)
(-0.0028586 0.0109491 0)
(-0.00283541 0.0105123 0)
(-0.00280301 0.0100798 0)
(-0.00276244 0.00965287 0)
(-0.00271473 0.00923278 0)
(-0.00266079 0.00882051 0)
(-0.00260151 0.00841695 0)
(-0.00253767 0.00802286 0)
(-0.00247002 0.00763888 0)
(-0.00239926 0.00726553 0)
(-0.002326 0.00690324 0)
(-0.00225082 0.00655236 0)
(-0.00217426 0.00621312 0)
(-0.00209678 0.00588571 0)
(-0.00201883 0.00557022 0)
(-0.00194079 0.00526671 0)
(-0.00186301 0.00497516 0)
(-0.00178581 0.0046955 0)
(-0.00170946 0.00442761 0)
(-0.0016342 0.00417136 0)
(-0.00156026 0.00392655 0)
(-0.00148781 0.00369297 0)
(-0.00141702 0.00347037 0)
(-0.00134802 0.0032585 0)
(-0.00128091 0.00305706 0)
(-0.0012158 0.00286576 0)
(-0.00115276 0.00268428 0)
(-0.00109183 0.00251231 0)
(-0.00103306 0.00234952 0)
(-0.000976476 0.00219556 0)
(-0.000922088 0.00205012 0)
(-0.0008699 0.00191284 0)
(-0.0008199 0.0017834 0)
(-0.000772072 0.00166145 0)
(-0.00072639 0.00154668 0)
(-0.000682821 0.00143874 0)
(-0.000641327 0.00133732 0)
(-0.000601863 0.0012421 0)
(-0.000564382 0.00115278 0)
(-0.000528833 0.00106905 0)
(-0.000495161 0.000990633 0)
(-0.00046331 0.000917233 0)
(-0.000433221 0.000848578 0)
(-0.000404836 0.000784403 0)
(-0.000378094 0.000724451 0)
(-0.000352935 0.000668476 0)
(-0.000329301 0.000616238 0)
(-0.00030713 0.000567509 0)
(-0.000286365 0.000522069 0)
(-0.000266949 0.000479707 0)
(-0.000248824 0.00044022 0)
(-0.000231938 0.000403415 0)
(-0.000216237 0.000369105 0)
(-0.000201671 0.000337114 0)
(-0.00018819 0.000307271 0)
(-0.000175749 0.000279413 0)
(-0.000164304 0.000253385 0)
(-0.000153813 0.000229036 0)
(-0.000144237 0.000206224 0)
(-0.000135539 0.000184812 0)
(-0.000127686 0.000164667 0)
(-0.000120647 0.000145662 0)
(-0.000114393 0.000127675 0)
(-0.000108899 0.000110588 0)
(-0.000104141 9.42855e-05 0)
(-0.000100101 7.86569e-05 0)
(-9.67602e-05 6.35935e-05 0)
(-9.41048e-05 4.89893e-05 0)
(-9.21232e-05 3.474e-05 0)
(-9.0807e-05 2.07433e-05 0)
(-9.01503e-05 6.89768e-06 0)
(0.00906205 0.011132 0)
(0.00789394 0.0122546 0)
(0.006801 0.0132272 0)
(0.00578119 0.0140597 0)
(0.00483221 0.0147616 0)
(0.00395183 0.0153423 0)
(0.00313744 0.0158105 0)
(0.00238639 0.016175 0)
(0.00169632 0.0164439 0)
(0.00106442 0.0166252 0)
(0.000487865 0.0167264 0)
(-3.60412e-05 0.0167547 0)
(-0.000509912 0.0167169 0)
(-0.00093639 0.0166194 0)
(-0.00131813 0.0164684 0)
(-0.00165779 0.0162695 0)
(-0.00195794 0.0160283 0)
(-0.0022211 0.0157499 0)
(-0.0024497 0.0154388 0)
(-0.00264609 0.0150997 0)
(-0.00281255 0.0147365 0)
(-0.00295125 0.0143531 0)
(-0.00306432 0.0139532 0)
(-0.00315376 0.0135398 0)
(-0.00322153 0.0131161 0)
(-0.00326945 0.0126847 0)
(-0.00329928 0.0122483 0)
(-0.0033127 0.011809 0)
(-0.00331127 0.011369 0)
(-0.00329648 0.0109302 0)
(-0.00326975 0.0104941 0)
(-0.00323237 0.0100623 0)
(-0.0031856 0.00963615 0)
(-0.00313058 0.00921678 0)
(-0.00306838 0.00880523 0)
(-0.00300001 0.00840237 0)
(-0.00292639 0.00800896 0)
(-0.00284838 0.00762564 0)
(-0.00276678 0.00725294 0)
(-0.0026823 0.00689128 0)
(-0.00259561 0.006541 0)
(-0.00250732 0.00620235 0)
(-0.00241797 0.00587551 0)
(-0.00232808 0.00556057 0)
(-0.00223808 0.00525759 0)
(-0.00214839 0.00496654 0)
(-0.00205936 0.00468736 0)
(-0.00197131 0.00441994 0)
(-0.00188453 0.00416413 0)
(-0.00179926 0.00391975 0)
(-0.00171572 0.00368657 0)
(-0.00163408 0.00346436 0)
(-0.00155451 0.00325285 0)
(-0.00147713 0.00305176 0)
(-0.00140204 0.00286079 0)
(-0.00132934 0.00267963 0)
(-0.00125908 0.00250796 0)
(-0.00119131 0.00234545 0)
(-0.00112605 0.00219176 0)
(-0.00106334 0.00204657 0)
(-0.00100315 0.00190953 0)
(-0.000945494 0.00178031 0)
(-0.00089034 0.00165858 0)
(-0.00083766 0.001544 0)
(-0.000787417 0.00143624 0)
(-0.000739566 0.001335 0)
(-0.000694057 0.00123995 0)
(-0.000650835 0.00115078 0)
(-0.000609841 0.0010672 0)
(-0.00057101 0.000988917 0)
(-0.00053428 0.000915644 0)
(-0.000499582 0.000847108 0)
(-0.000466849 0.000783044 0)
(-0.000436011 0.000723196 0)
(-0.000406999 0.000667318 0)
(-0.000379743 0.00061517 0)
(-0.000354177 0.000566526 0)
(-0.000330231 0.000521164 0)
(-0.00030784 0.000478876 0)
(-0.00028694 0.000439457 0)
(-0.000267467 0.000402716 0)
(-0.000249361 0.000368466 0)
(-0.000232563 0.00033653 0)
(-0.000217017 0.000306739 0)
(-0.000202671 0.000278929 0)
(-0.000189472 0.000252946 0)
(-0.000177374 0.000228639 0)
(-0.000166331 0.000205867 0)
(-0.000156301 0.000184492 0)
(-0.000147245 0.000164381 0)
(-0.000139128 0.00014541 0)
(-0.000131916 0.000127454 0)
(-0.00012558 0.000110396 0)
(-0.000120094 9.41222e-05 0)
(-0.000115435 7.85207e-05 0)
(-0.000111582 6.34834e-05 0)
(-0.00010852 4.89044e-05 0)
(-0.000106235 3.46799e-05 0)
(-0.000104717 2.07074e-05 0)
(-0.00010396 6.88574e-06 0)
(0.0102636 0.0111099 0)
(0.00894057 0.0122303 0)
(0.00770273 0.013201 0)
(0.0065477 0.0140318 0)
(0.00547291 0.0147324 0)
(0.00447579 0.0153119 0)
(0.00355342 0.0157792 0)
(0.00270279 0.0161429 0)
(0.00192123 0.0164113 0)
(0.00120555 0.0165923 0)
(0.000552544 0.0166933 0)
(-4.08191e-05 0.0167215 0)
(-0.000577514 0.0166837 0)
(-0.00106054 0.0165864 0)
(-0.0014929 0.0164357 0)
(-0.00187759 0.0162373 0)
(-0.00221754 0.0159966 0)
(-0.00251559 0.0157186 0)
(-0.0027745 0.0154082 0)
(-0.00299693 0.0150697 0)
(-0.00318545 0.0147073 0)
(-0.00334255 0.0143247 0)
(-0.00347061 0.0139255 0)
(-0.00357191 0.013513 0)
(-0.00364866 0.0130901 0)
(-0.00370293 0.0126596 0)
(-0.00373672 0.012224 0)
(-0.00375192 0.0117856 0)
(-0.0037503 0.0113465 0)
(-0.00373356 0.0109085 0)
(-0.00370327 0.0104733 0)
(-0.00366095 0.0100424 0)
(-0.00360797 0.00961704 0)
(-0.00354565 0.00919851 0)
(-0.00347521 0.00878777 0)
(-0.00339777 0.00838571 0)
(-0.00331439 0.00799308 0)
(-0.00322604 0.00761052 0)
(-0.00313362 0.00723856 0)
(-0.00303794 0.00687762 0)
(-0.00293975 0.00652803 0)
(-0.00283975 0.00619006 0)
(-0.00273857 0.00586386 0)
(-0.00263675 0.00554955 0)
(-0.00253482 0.00524716 0)
(-0.00243324 0.00495669 0)
(-0.00233241 0.00467807 0)
(-0.00223269 0.00441118 0)
(-0.0021344 0.00415588 0)
(-0.00203782 0.00391198 0)
(-0.0019432 0.00367926 0)
(-0.00185074 0.00345749 0)
(-0.00176062 0.0032464 0)
(-0.00167297 0.00304571 0)
(-0.00158793 0.00285512 0)
(-0.00150559 0.00267432 0)
(-0.00142601 0.00250299 0)
(-0.00134926 0.0023408 0)
(-0.00127535 0.00218742 0)
(-0.00120432 0.00204251 0)
(-0.00113616 0.00190574 0)
(-0.00107085 0.00177678 0)
(-0.00100839 0.00165529 0)
(-0.000948723 0.00154093 0)
(-0.000891818 0.0014334 0)
(-0.000837623 0.00133235 0)
(-0.00078608 0.00123749 0)
(-0.000737128 0.0011485 0)
(-0.000690697 0.00106509 0)
(-0.000646719 0.000986957 0)
(-0.000605119 0.000913829 0)
(-0.000565821 0.000845429 0)
(-0.000528747 0.000781492 0)
(-0.00049382 0.000721763 0)
(-0.000460961 0.000665995 0)
(-0.000430092 0.000613951 0)
(-0.000401136 0.000565403 0)
(-0.000374015 0.000520132 0)
(-0.000348656 0.000477926 0)
(-0.000324984 0.000438586 0)
(-0.000302929 0.000401918 0)
(-0.000282423 0.000367736 0)
(-0.000263398 0.000335863 0)
(-0.000245791 0.000306131 0)
(-0.000229542 0.000278376 0)
(-0.000214594 0.000252444 0)
(-0.000200891 0.000228186 0)
(-0.000188384 0.000205459 0)
(-0.000177025 0.000184126 0)
(-0.000166768 0.000164056 0)
(-0.000157574 0.000145121 0)
(-0.000149406 0.000127201 0)
(-0.00014223 0.000110177 0)
(-0.000136017 9.39357e-05 0)
(-0.00013074 7.83651e-05 0)
(-0.000126376 6.33576e-05 0)
(-0.000122908 4.88075e-05 0)
(-0.00012032 3.46112e-05 0)
(-0.000118601 2.06664e-05 0)
(-0.000117743 6.87209e-06 0)
(0.0114625 0.0110851 0)
(0.009985 0.012203 0)
(0.00860255 0.0131715 0)
(0.0073126 0.0140005 0)
(0.00611225 0.0146995 0)
(0.00499865 0.0152777 0)
(0.00396852 0.0157439 0)
(0.00301853 0.0161069 0)
(0.00214566 0.0163747 0)
(0.00134637 0.0165552 0)
(0.000617087 0.016656 0)
(-4.5586e-05 0.0166842 0)
(-0.000644973 0.0166465 0)
(-0.00118442 0.0165494 0)
(-0.00166729 0.016399 0)
(-0.00209692 0.016201 0)
(-0.00247659 0.0159609 0)
(-0.00280946 0.0156835 0)
(-0.00309862 0.0153738 0)
(-0.00334703 0.0150361 0)
(-0.00355758 0.0146744 0)
(-0.00373303 0.0142927 0)
(-0.00387604 0.0138944 0)
(-0.00398918 0.0134828 0)
(-0.00407489 0.0130608 0)
(-0.00413551 0.0126313 0)
(-0.00417324 0.0121967 0)
(-0.00419021 0.0117593 0)
(-0.00418841 0.0113212 0)
(-0.00416971 0.0108841 0)
(-0.00413589 0.0104499 0)
(-0.00408861 0.0100199 0)
(-0.00402945 0.00959556 0)
(-0.00395985 0.00917796 0)
(-0.00388118 0.00876814 0)
(-0.00379469 0.00836698 0)
(-0.00370158 0.00797523 0)
(-0.00360291 0.00759353 0)
(-0.00349968 0.00722239 0)
(-0.00339282 0.00686226 0)
(-0.00328317 0.00651346 0)
(-0.00317149 0.00617623 0)
(-0.00305848 0.00585076 0)
(-0.00294477 0.00553716 0)
(-0.00283094 0.00523545 0)
(-0.00271749 0.00494562 0)
(-0.00260487 0.00466762 0)
(-0.00249351 0.00440133 0)
(-0.00238374 0.0041466 0)
(-0.00227588 0.00390324 0)
(-0.0021702 0.00367105 0)
(-0.00206694 0.00344977 0)
(-0.00196629 0.00323915 0)
(-0.00186841 0.00303891 0)
(-0.00177343 0.00284874 0)
(-0.00168147 0.00266835 0)
(-0.0015926 0.0024974 0)
(-0.00150688 0.00233557 0)
(-0.00142434 0.00218253 0)
(-0.00134501 0.00203795 0)
(-0.00126888 0.00190149 0)
(-0.00119595 0.00177281 0)
(-0.00112619 0.00165159 0)
(-0.00105955 0.00153749 0)
(-0.000995999 0.0014302 0)
(-0.000935473 0.00132938 0)
(-0.000877909 0.00123473 0)
(-0.000823238 0.00114594 0)
(-0.000771384 0.00106271 0)
(-0.000722268 0.000984753 0)
(-0.000675808 0.000911788 0)
(-0.000631919 0.000843541 0)
(-0.000590515 0.000779747 0)
(-0.000551508 0.000720151 0)
(-0.00051481 0.000664508 0)
(-0.000480335 0.00061258 0)
(-0.000447996 0.000564141 0)
(-0.000417708 0.00051897 0)
(-0.000389386 0.000476859 0)
(-0.000362949 0.000437607 0)
(-0.000338317 0.00040102 0)
(-0.000315415 0.000366915 0)
(-0.000294167 0.000335113 0)
(-0.000274504 0.000305447 0)
(-0.000256357 0.000277755 0)
(-0.000239662 0.000251881 0)
(-0.000224359 0.000227677 0)
(-0.000210391 0.000205 0)
(-0.000197704 0.000183715 0)
(-0.00018625 0.000163689 0)
(-0.000175982 0.000144797 0)
(-0.00016686 0.000126917 0)
(-0.000158846 0.000109932 0)
(-0.000151906 9.3726e-05 0)
(-0.000146013 7.81902e-05 0)
(-0.00014114 6.32162e-05 0)
(-0.000137266 4.86986e-05 0)
(-0.000134376 3.45339e-05 0)
(-0.000132456 2.06202e-05 0)
(-0.000131498 6.85675e-06 0)
(0.0126587 0.0110575 0)
(0.011027 0.0121726 0)
(0.00950026 0.0131388 0)
(0.00807569 0.0139657 0)
(0.00675008 0.0146629 0)
(0.00552027 0.0152397 0)
(0.00438264 0.0157048 0)
(0.00333353 0.0160669 0)
(0.00236957 0.016334 0)
(0.00148686 0.0165141 0)
(0.000681479 0.0166146 0)
(-5.03411e-05 0.0166427 0)
(-0.000712272 0.0166051 0)
(-0.00130801 0.0165083 0)
(-0.00184127 0.0163583 0)
(-0.00231574 0.0161608 0)
(-0.00273503 0.0159212 0)
(-0.00310264 0.0156446 0)
(-0.00342197 0.0153356 0)
(-0.00369631 0.0149987 0)
(-0.00392882 0.014638 0)
(-0.00412258 0.0142572 0)
(-0.00428052 0.0138599 0)
(-0.00440547 0.0134493 0)
(-0.00450012 0.0130284 0)
(-0.00456706 0.0125999 0)
(-0.00460874 0.0121664 0)
(-0.00462747 0.0117301 0)
(-0.00462548 0.011293 0)
(-0.00460483 0.0108571 0)
(-0.00456748 0.0104239 0)
(-0.00451527 0.00999503 0)
(-0.00444993 0.00957172 0)
(-0.00437307 0.00915516 0)
(-0.00428619 0.00874635 0)
(-0.00419068 0.00834619 0)
(-0.00408785 0.00795541 0)
(-0.00397888 0.00757466 0)
(-0.00386488 0.00720445 0)
(-0.00374687 0.00684521 0)
(-0.00362578 0.00649727 0)
(-0.00350244 0.00616089 0)
(-0.00337764 0.00583623 0)
(-0.00325207 0.0055234 0)
(-0.00312636 0.00522244 0)
(-0.00300107 0.00493333 0)
(-0.0028767 0.00465602 0)
(-0.00275371 0.00439039 0)
(-0.00263249 0.00413629 0)
(-0.00251337 0.00389354 0)
(-0.00239667 0.00366192 0)
(-0.00228263 0.0034412 0)
(-0.00217148 0.0032311 0)
(-0.00206338 0.00303136 0)
(-0.0019585 0.00284167 0)
(-0.00185694 0.00266172 0)
(-0.00175879 0.00249119 0)
(-0.00166412 0.00232977 0)
(-0.00157297 0.00217711 0)
(-0.00148536 0.00203289 0)
(-0.00140129 0.00189676 0)
(-0.00132075 0.00176841 0)
(-0.00124371 0.00164749 0)
(-0.00117012 0.00153367 0)
(-0.00109993 0.00142664 0)
(-0.00103309 0.00132607 0)
(-0.000969522 0.00123166 0)
(-0.000909145 0.00114309 0)
(-0.00085188 0.00106007 0)