/*--------------------------------*- C++ -*----------------------------------*\
| =========                 |                                                 |
| \\      /  F ield         | OpenFOAM: The Open Source CFD Toolbox           |
|  \\    /   O peration     | Version:  2406                                  |
|   \\  /    A nd           | Website:  www.openfoam.com                      |
|    \\/     M anipulation  |                                                 |
\*---------------------------------------------------------------------------*/
FoamFile
{
    version     2.0;
    format      ascii;
    arch        "LSB;label=32;scalar=64";
    class       volScalarField;
    location    "65";
    object      T;
}
// * * * * * * * * * * * * * * * * * * * * * * * * * * * * * * * * * * * * * //

dimensions      [0 0 0 1 0 0 0];

internalField   nonuniform List<scalar> 
20000
(
300.905
300.871
300.837
300.804
300.772
300.741
300.71
300.68
300.651
300.623
300.596
300.569
300.544
300.519
300.495
300.472
300.45
300.428
300.407
300.387
300.368
300.35
300.332
300.315
300.299
300.283
300.268
300.254
300.24
300.227
300.214
300.203
300.191
300.18
300.17
300.16
300.151
300.142
300.134
300.126
300.118
300.111
300.104
300.098
300.092
300.086
300.081
300.076
300.071
300.066
300.062
300.058
300.054
300.051
300.047
300.044
300.041
300.038
300.036
300.033
300.031
300.029
300.027
300.025
300.023
300.021
300.02
300.018
300.017
300.016
300.015
300.013
300.012
300.012
300.011
300.01
300.009
300.008
300.008
300.007
300.006
300.006
300.005
300.005
300.004
300.004
300.004
300.003
300.003
300.003
300.002
300.002
300.002
300.002
300.001
300.001
300.001
300.001
300
300
302.715
302.612
302.511
302.413
302.316
302.222
302.13
302.041
301.954
301.87
301.788
301.708
301.631
301.557
301.485
301.416
301.348
301.284
301.222
301.162
301.104
301.049
300.995
300.944
300.896
300.849
300.804
300.761
300.72
300.681
300.643
300.608
300.574
300.541
300.51
300.481
300.453
300.427
300.402
300.378
300.355
300.334
300.313
300.294
300.276
300.259
300.242
300.227
300.213
300.199
300.186
300.174
300.162
300.152
300.142
300.132
300.123
300.115
300.107
300.1
300.093
300.086
300.08
300.074
300.069
300.064
300.059
300.055
300.051
300.047
300.044
300.04
300.037
300.035
300.032
300.029
300.027
300.025
300.023
300.021
300.019
300.018
300.016
300.015
300.013
300.012
300.011
300.01
300.009
300.008
300.007
300.006
300.005
300.005
300.004
300.003
300.002
300.002
300.001
300
304.525
304.353
304.185
304.02
303.86
303.703
303.55
303.401
303.256
303.115
302.979
302.847
302.718
302.594
302.475
302.359
302.247
302.139
302.036
301.936
301.84
301.747
301.659
301.574
301.492
301.414
301.34
301.268
301.2
301.134
301.072
301.013
300.956
300.902
300.851
300.802
300.755
300.711
300.669
300.629
300.592
300.556
300.522
300.49
300.46
300.431
300.404
300.378
300.354
300.331
300.31
300.29
300.271
300.253
300.236
300.22
300.205
300.191
300.178
300.166
300.154
300.144
300.133
300.124
300.115
300.107
300.099
300.092
300.085
300.079
300.073
300.067
300.062
300.058
300.053
300.049
300.045
300.042
300.038
300.035
300.032
300.029
300.027
300.025
300.022
300.02
300.018
300.017
300.015
300.013
300.012
300.01
300.009
300.008
300.006
300.005
300.004
300.003
300.002
300.001
306.333
306.093
305.857
305.627
305.402
305.183
304.969
304.76
304.557
304.361
304.17
303.984
303.805
303.631
303.464
303.301
303.145
302.994
302.849
302.709
302.575
302.446
302.322
302.203
302.089
301.979
301.875
301.775
301.679
301.588
301.501
301.417
301.338
301.263
301.191
301.122
301.057
300.995
300.937
300.881
300.828
300.778
300.731
300.686
300.643
300.603
300.565
300.53
300.496
300.464
300.434
300.406
300.379
300.354
300.33
300.308
300.287
300.268
300.249
300.232
300.216
300.201
300.187
300.174
300.161
300.15
300.139
300.129
300.119
300.11
300.102
300.094
300.087
300.081
300.074
300.069
300.063
300.058
300.053
300.049
300.045
300.041
300.038
300.034
300.031
300.028
300.026
300.023
300.021
300.019
300.016
300.014
300.012
300.011
300.009
300.007
300.006
300.004
300.002
300.001
308.14
307.831
307.528
307.232
306.943
306.661
306.386
306.118
305.858
305.605
305.359
305.121
304.89
304.667
304.452
304.243
304.042
303.849
303.662
303.482
303.31
303.144
302.984
302.831
302.685
302.544
302.41
302.281
302.158
302.041
301.929
301.822
301.72
301.623
301.53
301.442
301.359
301.279
301.204
301.132
301.065
301
300.939
300.882
300.827
300.775
300.727
300.681
300.637
300.596
300.558
300.521
300.487
300.455
300.425
300.396
300.369
300.344
300.321
300.298
300.278
300.258
300.24
300.223
300.207
300.192
300.178
300.165
300.153
300.142
300.131
300.121
300.112
300.104
300.096
300.088
300.081
300.075
300.069
300.063
300.058
300.053
300.048
300.044
300.04
300.037
300.033
300.03
300.027
300.024
300.021
300.019
300.016
300.014
300.011
300.009
300.007
300.005
300.003
300.001
309.944
309.567
309.198
308.836
308.483
308.138
307.802
307.475
307.156
306.847
306.547
306.256
305.975
305.702
305.439
305.184
304.939
304.702
304.474
304.254
304.043
303.841
303.646
303.459
303.28
303.108
302.944
302.787
302.637
302.493
302.356
302.226
302.101
301.983
301.87
301.762
301.66
301.563
301.471
301.383
301.301
301.222
301.148
301.077
301.01
300.947
300.888
300.832
300.779
300.729
300.681
300.637
300.595
300.556
300.519
300.484
300.451
300.42
300.392
300.365
300.339
300.316
300.293
300.272
300.253
300.235
300.218
300.202
300.187
300.173
300.16
300.148
300.137
300.126
300.117
300.108
300.099
300.091
300.084
300.077
300.071
300.065
300.059
300.054
300.049
300.045
300.04
300.036
300.033
300.029
300.026
300.023
300.02
300.017
300.014
300.011
300.009
300.006
300.004
300.001
311.747
311.301
310.865
310.437
310.02
309.613
309.216
308.829
308.453
308.088
307.734
307.39
307.058
306.736
306.424
306.124
305.834
305.554
305.285
305.025
304.776
304.537
304.307
304.086
303.874
303.672
303.478
303.292
303.115
302.945
302.783
302.629
302.482
302.342
302.209
302.082
301.961
301.846
301.737
301.634
301.536
301.443
301.356
301.272
301.194
301.119
301.049
300.982
300.92
300.861
300.805
300.752
300.703
300.656
300.613
300.572
300.533
300.497
300.463
300.431
300.401
300.373
300.346
300.322
300.299
300.277
300.257
300.238
300.221
300.205
300.189
300.175
300.162
300.149
300.138
300.127
300.117
300.108
300.099
300.091
300.083
300.076
300.07
300.064
300.058
300.053
300.048
300.043
300.039
300.034
300.03
300.027
300.023
300.02
300.017
300.013
300.01
300.007
300.004
300.001
313.546
313.032
312.529
312.036
311.555
311.085
310.628
310.182
309.748
309.327
308.919
308.522
308.139
307.767
307.408
307.062
306.727
306.405
306.094
305.795
305.508
305.232
304.966
304.712
304.468
304.234
304.01
303.796
303.592
303.396
303.21
303.032
302.862
302.701
302.547
302.4
302.261
302.129
302.004
301.885
301.772
301.665
301.563
301.467
301.376
301.291
301.209
301.133
301.061
300.992
300.928
300.868
300.811
300.757
300.707
300.659
300.615
300.573
300.533
300.497
300.462
300.43
300.4
300.371
300.345
300.32
300.297
300.275
300.255
300.236
300.218
300.202
300.187
300.172
300.159
300.147
300.135
300.124
300.114
300.105
300.096
300.088
300.081
300.074
300.067
300.061
300.055
300.05
300.044
300.04
300.035
300.031
300.027
300.023
300.019
300.015
300.012
300.008
300.005
300.002
315.342
314.76
314.19
313.632
313.087
312.555
312.037
311.532
311.041
310.564
310.101
309.652
309.218
308.797
308.391
307.998
307.619
307.254
306.902
306.564
306.238
305.925
305.625
305.336
305.06
304.795
304.542
304.3
304.068
303.847
303.635
303.434
303.242
303.059
302.884
302.719
302.561
302.411
302.269
302.134
302.006
301.885
301.77
301.662
301.559
301.462
301.37
301.283
301.201
301.124
301.051
300.983
300.918
300.857
300.8
300.747
300.696
300.649
300.604
300.563
300.523
300.487
300.452
300.42
300.39
300.362
300.336
300.311
300.289
300.267
300.247
300.229
300.211
300.195
300.18
300.166
300.153
300.141
300.129
300.119
300.109
300.1
300.091
300.083
300.076
300.069
300.062
300.056
300.05
300.045
300.04
300.035
300.03
300.026
300.022
300.017
300.013
300.01
300.006
300.002
317.134
316.484
315.848
315.225
314.616
314.022
313.443
312.879
312.331
311.798
311.281
310.78
310.295
309.825
309.371
308.932
308.509
308.101
307.709
307.33
306.967
306.617
306.282
305.96
305.651
305.356
305.073
304.802
304.543
304.296
304.06
303.835
303.62
303.416
303.221
303.036
302.86
302.693
302.534
302.384
302.241
302.105
301.977
301.856
301.741
301.632
301.53
301.433
301.342
301.255
301.174
301.097
301.025
300.958
300.894
300.834
300.777
300.724
300.675
300.628
300.585
300.544
300.505
300.469
300.436
300.405
300.375
300.348
300.322
300.298
300.276
300.255
300.236
300.218
300.201
300.185
300.171
300.157
300.145
300.133
300.122
300.112
300.102
300.093
300.085
300.077
300.07
300.063
300.056
300.05
300.044
300.039
300.034
300.029
300.024
300.019
300.015
300.011
300.006
300.002
318.922
318.205
317.501
316.813
316.141
315.485
314.846
314.223
313.617
313.029
312.458
311.905
311.369
310.85
310.349
309.865
309.397
308.947
308.513
308.095
307.694
307.308
306.937
306.582
306.241
305.915
305.602
305.303
305.017
304.744
304.484
304.235
303.998
303.772
303.558
303.353
303.159
302.974
302.799
302.632
302.475
302.325
302.184
302.049
301.923
301.803
301.689
301.583
301.482
301.386
301.297
301.212
301.132
301.057
300.987
300.921
300.858
300.8
300.745
300.694
300.646
300.6
300.558
300.518
300.481
300.447
300.414
300.384
300.356
300.33
300.305
300.282
300.261
300.241
300.222
300.205
300.189
300.174
300.16
300.147
300.134
300.123
300.113
300.103
300.094
300.085
300.077
300.069
300.062
300.055
300.049
300.043
300.037
300.032
300.027
300.022
300.017
300.012
300.007
300.002
320.706
319.92
319.151
318.398
317.662
316.944
316.245
315.563
314.901
314.257
313.632
313.027
312.44
311.873
311.324
310.794
310.283
309.79
309.315
308.858
308.419
307.997
307.591
307.202
306.829
306.472
306.13
305.803
305.49
305.191
304.906
304.634
304.375
304.128
303.893
303.669
303.457
303.254
303.063
302.881
302.708
302.544
302.389
302.243
302.104
301.973
301.849
301.732
301.621
301.517
301.419
301.326
301.239
301.157
301.08
301.007
300.939
300.875
300.815
300.759
300.706
300.657
300.611
300.567
300.527
300.489
300.453
300.42
300.389
300.361
300.334
300.309
300.285
300.263
300.243
300.224
300.206
300.19
300.175
300.16
300.147
300.135
300.123
300.112
300.102
300.093
300.084
300.076
300.068
300.061
300.054
300.047
300.041
300.035
300.029
300.024
300.018
300.013
300.008
300.003
322.484
321.631
320.796
319.978
319.179
318.4
317.64
316.9
316.181
315.482
314.803
314.146
313.509
312.892
312.297
311.721
311.166
310.631
310.115
309.619
309.142
308.683
308.243
307.821
307.416
307.028
306.656
306.301
305.962
305.637
305.328
305.032
304.751
304.483
304.227
303.984
303.753
303.534
303.326
303.128
302.941
302.763
302.595
302.435
302.285
302.142
302.007
301.88
301.76
301.647
301.541
301.44
301.346
301.256
301.173
301.094
301.02
300.951
300.885
300.824
300.767
300.713
300.663
300.616
300.572
300.531
300.492
300.456
300.423
300.392
300.362
300.335
300.31
300.286
300.264
300.243
300.224
300.206
300.19
300.174
300.16
300.146
300.134
300.122
300.111
300.101
300.091
300.082
300.074
300.066
300.058
300.051
300.044
300.038
300.032
300.026
300.02
300.014
300.008
300.003
324.256
323.336
322.435
321.553
320.691
319.85
319.031
318.232
317.456
316.702
315.97
315.261
314.574
313.909
313.266
312.645
312.047
311.469
310.913
310.377
309.863
309.368
308.893
308.437
308
307.582
307.181
306.798
306.432
306.082
305.748
305.429
305.125
304.836
304.561
304.298
304.049
303.813
303.588
303.375
303.172
302.981
302.799
302.627
302.465
302.311
302.166
302.029
301.899
301.777
301.662
301.554
301.452
301.356
301.265
301.18
301.1
301.026
300.955
300.889
300.828
300.77
300.715
300.665
300.617
300.573
300.531
300.492
300.456
300.422
300.391
300.362
300.334
300.309
300.285
300.263
300.242
300.223
300.205
300.188
300.172
300.158
300.144
300.132
300.12
300.109
300.098
300.089
300.08
300.071
300.063
300.055
300.048
300.041
300.034
300.028
300.021
300.015
300.009
300.003
326.023
325.036
324.069
323.123
322.198
321.296
320.417
319.56
318.728
317.919
317.133
316.372
315.635
314.922
314.232
313.566
312.924
312.304
311.708
311.133
310.581
310.05
309.541
309.052
308.583
308.134
307.704
307.293
306.9
306.525
306.166
305.824
305.499
305.188
304.893
304.612
304.344
304.09
303.849
303.62
303.403
303.198
303.003
302.819
302.644
302.479
302.324
302.176
302.038
301.907
301.783
301.667
301.557
301.454
301.357
301.266
301.181
301.1
301.025
300.954
300.888
300.826
300.768
300.713
300.662
300.614
300.57
300.528
300.49
300.453
300.419
300.388
300.358
300.331
300.305
300.282
300.259
300.239
300.22
300.202
300.185
300.169
300.155
300.141
300.129
300.117
300.106
300.095
300.085
300.076
300.067
300.059
300.051
300.044
300.037
300.03
300.023
300.016
300.01
300.003
327.783
326.73
325.697
324.687
323.7
322.737
321.798
320.884
319.994
319.131
318.292
317.48
316.693
315.931
315.195
314.484
313.798
313.137
312.5
311.886
311.297
310.73
310.186
309.664
309.164
308.684
308.225
307.786
307.367
306.966
306.583
306.218
305.871
305.539
305.224
304.923
304.638
304.367
304.11
303.865
303.634
303.414
303.206
303.009
302.823
302.647
302.481
302.324
302.175
302.036
301.904
301.78
301.663
301.553
301.449
301.352
301.261
301.175
301.094
301.019
300.948
300.882
300.819
300.761
300.707
300.656
300.608
300.564
300.523
300.484
300.448
300.414
300.383
300.353
300.326
300.301
300.277
300.255
300.234
300.215
300.197
300.181
300.165
300.151
300.137
300.125
300.113
300.102
300.091
300.081
300.072
300.063
300.055
300.047
300.039
300.032
300.024
300.017
300.01
300.003
329.537
328.417
327.319
326.245
325.196
324.172
323.173
322.201
321.256
320.338
319.447
318.583
317.746
316.937
316.154
315.398
314.669
313.966
313.288
312.637
312.01
311.407
310.829
310.274
309.742
309.232
308.744
308.278
307.832
307.406
306.999
306.611
306.241
305.889
305.553
305.234
304.931
304.643
304.369
304.109
303.863
303.63
303.408
303.199
303.001
302.814
302.637
302.47
302.313
302.164
302.024
301.892
301.768
301.651
301.541
301.437
301.34
301.249
301.163
301.083
301.008
300.937
300.871
300.809
300.752
300.697
300.647
300.6
300.556
300.514
300.476
300.44
300.407
300.376
300.347
300.32
300.295
300.271
300.249
300.229
300.21
300.192
300.176
300.16
300.146
300.133
300.12
300.108
300.097
300.086
300.077
300.067
300.058
300.05
300.042
300.034
300.026
300.018
300.011
300.004
331.283
330.097
328.934
327.797
326.685
325.601
324.543
323.514
322.513
321.54
320.597
319.682
318.795
317.938
317.109
316.309
315.536
314.791
314.074
313.384
312.72
312.082
311.469
310.881
310.318
309.778
309.261
308.767
308.295
307.843
307.413
307.002
306.61
306.237
305.882
305.544
305.222
304.917
304.627
304.352
304.091
303.844
303.61
303.388
303.179
302.98
302.793
302.616
302.449
302.292
302.144
302.004
301.872
301.748
301.632
301.522
301.419
301.323
301.232
301.147
301.067
300.993
300.923
300.857
300.796
300.739
300.685
300.635
300.588
300.545
300.504
300.466
300.431
300.398
300.367
300.339
300.312
300.287
300.264
300.242
300.222
300.204
300.186
300.17
300.155
300.14
300.127
300.114
300.103
300.092
300.081
300.071
300.062
300.053
300.044
300.036
300.027
300.019
300.012
300.004
333.021
331.769
330.542
329.341
328.168
327.023
325.907
324.821
323.764
322.737
321.741
320.775
319.84
318.935
318.06
317.215
316.399
315.613
314.856
314.127
313.426
312.753
312.106
311.486
310.891
310.322
309.776
309.254
308.756
308.279
307.825
307.391
306.977
306.583
306.208
305.852
305.513
305.19
304.884
304.594
304.319
304.058
303.811
303.577
303.355
303.146
302.948
302.762
302.585
302.419
302.263
302.115
301.976
301.845
301.722
301.607
301.498
301.396
301.3
301.211
301.127
301.048
300.974
300.905
300.84
300.78
300.723
300.67
300.621
300.575
300.532
300.492
300.455
300.42
300.388
300.357
300.329
300.303
300.279
300.256
300.235
300.215
300.196
300.179
300.163
300.148
300.134
300.121
300.108
300.097
300.086
300.075
300.065
300.056
300.046
300.038
300.029
300.021
300.012
300.004
334.752
333.434
332.142
330.879
329.644
328.439
327.265
326.121
325.009
323.929
322.88
321.864
320.879
319.927
319.006
318.117
317.259
316.431
315.635
314.868
314.13
313.421
312.741
312.088
311.462
310.862
310.288
309.739
309.214
308.713
308.235
307.778
307.343
306.928
306.534
306.158
305.801
305.462
305.14
304.835
304.545
304.27
304.01
303.764
303.531
303.311
303.103
302.906
302.721
302.546
302.381
302.226
302.08
301.942
301.813
301.691
301.577
301.469
301.369
301.274
301.186
301.103
301.025
300.952
300.884
300.821
300.761
300.706
300.654
300.605
300.56
300.518
300.479
300.442
300.408
300.376
300.347
300.319
300.293
300.269
300.247
300.226
300.207
300.189
300.172
300.156
300.141
300.127
300.114
300.102
300.09
300.079
300.069
300.058
300.049
300.04
300.03
300.022
300.013
300.004
336.473
335.09
333.735
332.409
331.113
329.848
328.615
327.415
326.248
325.114
324.014
322.947
321.914
320.914
319.948
319.014
318.114
317.246
316.409
315.604
314.83
314.086
313.372
312.687
312.03
311.4
310.798
310.222
309.671
309.145
308.642
308.163
307.707
307.272
306.857
306.463
306.089
305.733
305.395
305.074
304.77
304.482
304.209
303.95
303.706
303.475
303.257
303.05
302.856
302.672
302.499
302.336
302.183
302.038
301.902
301.775
301.655
301.542
301.436
301.337
301.244
301.157
301.076
300.999
300.928
300.861
300.799
300.741
300.686
300.635
300.588
300.544
300.502
300.464
300.428
300.395
300.364
300.335
300.308
300.283
300.259
300.237
300.217
300.198
300.18
300.164
300.148
300.133
300.12
300.107
300.095
300.083
300.072
300.061
300.051
300.041
300.032
300.023
300.014
300.005
338.186
336.738
335.319
333.93
332.574
331.25
329.959
328.703
327.481
326.294
325.141
324.025
322.943
321.896
320.884
319.907
318.964
318.055
317.18
316.337
315.526
314.748
314
313.282
312.595
311.936
311.305
310.702
310.125
309.574
309.048
308.547
308.069
307.613
307.179
306.767
306.375
306.002
305.648
305.312
304.994
304.692
304.407
304.136
303.88
303.638
303.409
303.194
302.99
302.798
302.617
302.446
302.285
302.134
301.992
301.858
301.732
301.615
301.504
301.4
301.303
301.212
301.126
301.046
300.972
300.902
300.836
300.775
300.718
300.665
300.615
300.569
300.526
300.486
300.448
300.413
300.381
300.35
300.322
300.296
300.271
300.249
300.227
300.207
300.189
300.171
300.155
300.14
300.125
300.112
300.099
300.087
300.075
300.064
300.054
300.043
300.033
300.024
300.014
300.005
339.889
338.376
336.894
335.444
334.027
332.644
331.295
329.983
328.706
327.466
326.263
325.096
323.966
322.873
321.816
320.795
319.81
318.861
317.946
317.066
316.219
315.405
314.624
313.875
313.156
312.468
311.809
311.179
310.577
310.001
309.452
308.928
308.428
307.953
307.5
307.069
306.659
306.27
305.9
305.549
305.217
304.902
304.603
304.32
304.053
303.8
303.562
303.336
303.123
302.922
302.733
302.555
302.387
302.229
302.081
301.941
301.81
301.687
301.571
301.463
301.361
301.266
301.176
301.093
301.015
300.942
300.874
300.81
300.75
300.695
300.643
300.595
300.549
300.507
300.468
300.432
300.398
300.366
300.337
300.309
300.283
300.26
300.237
300.217
300.197
300.179
300.162
300.146
300.131
300.117
300.103
300.091
300.079
300.067
300.056
300.045
300.035
300.025
300.015
300.005
341.583
340.006
338.46
336.949
335.471
334.029
332.624
331.256
329.925
328.632
327.378
326.162
324.984
323.844
322.742
321.678
320.651
319.661
318.708
317.79
316.908
316.059
315.245
314.464
313.715
312.998
312.311
311.654
311.026
310.426
309.853
309.307
308.786
308.29
307.818
307.369
306.942
306.536
306.151
305.785
305.438
305.11
304.798
304.504
304.225
303.962
303.713
303.478
303.256
303.047
302.849
302.663
302.488
302.324
302.169
302.023
301.887
301.758
301.638
301.525
301.419
301.319
301.226
301.139
301.058
300.982
300.911
300.844
300.782
300.724
300.67
300.62
300.573
300.529
300.488
300.45
300.415
300.382
300.351
300.322
300.296
300.271
300.247
300.226
300.205
300.187
300.169
300.152
300.137
300.122
300.108
300.095
300.082
300.07
300.058
300.047
300.036
300.026
300.015
300.005
343.266
341.625
340.017
338.444
336.907
335.407
333.945
332.521
331.136
329.791
328.486
327.221
325.995
324.809
323.663
322.556
321.487
320.457
319.465
318.51
317.592
316.71
315.862
315.049
314.27
313.524
312.809
312.125
311.472
310.848
310.252
309.684
309.142
308.626
308.135
307.667
307.223
306.801
306.4
306.019
305.658
305.317
304.993
304.686
304.396
304.122
303.863
303.618
303.388
303.17
302.965
302.771
302.589
302.418
302.257
302.105
301.963
301.829
301.704
301.586
301.476
301.373
301.276
301.186
301.101
301.022
300.948
300.878
300.814
300.754
300.697
300.645
300.596
300.55
300.508
300.468
300.431
300.397
300.365
300.335
300.307
300.282
300.257
300.235
300.214
300.194
300.176
300.158
300.142
300.127
300.112
300.098
300.085
300.073
300.061
300.049
300.038
300.027
300.016
300.005
344.938
343.234
341.564
339.93
338.334
336.776
335.257
333.778
332.34
330.943
329.587
328.273
327
325.768
324.577
323.427
322.318
321.248
320.218
319.226
318.272
317.355
316.475
315.631
314.822
314.046
313.304
312.594
311.915
311.267
310.648
310.058
309.495
308.959
308.449
307.963
307.502
307.063
306.647
306.252
305.877
305.522
305.186
304.867
304.566
304.281
304.012
303.758
303.519
303.292
303.079
302.878
302.689
302.511
302.344
302.187
302.039
301.9
301.77
301.648
301.533
301.426
301.325
301.231
301.143
301.061
300.984
300.912
300.845
300.783
300.724
300.67
300.619
300.572
300.528
300.486
300.448
300.412
300.379
300.348
300.319
300.292
300.267
300.244
300.222
300.202
300.182
300.164
300.148
300.132
300.117
300.102
300.089
300.076
300.063
300.051
300.039
300.028
300.017
300.006
346.6
344.832
343.101
341.406
339.751
338.135
336.56
335.027
333.536
332.087
330.681
329.318
327.998
326.721
325.486
324.294
323.143
322.034
320.965
319.937
318.947
317.997
317.085
316.209
315.37
314.566
313.796
313.06
312.356
311.684
311.042
310.43
309.846
309.29
308.761
308.258
307.779
307.325
306.893
306.483
306.094
305.726
305.377
305.047
304.735
304.44
304.161
303.897
303.649
303.414
303.193
302.985
302.789
302.604
302.431
302.267
302.114
301.97
301.835
301.709
301.59
301.479
301.374
301.277
301.186
301.1
301.021
300.946
300.877
300.812
300.751
300.695
300.642
300.593
300.547
300.504
300.465
300.428
300.393
300.361
300.331
300.303
300.277
300.253
300.23
300.209
300.189
300.171
300.153
300.136
300.121
300.106
300.092
300.078
300.065
300.053
300.041
300.029
300.017
300.006
348.25
346.42
344.627
342.873
341.158
339.485
337.855
336.267
334.723
333.223
331.767
330.356
328.989
327.667
326.388
325.154
323.962
322.814
321.707
320.642
319.618
318.634
317.689
316.783
315.914
315.081
314.284
313.522
312.793
312.097
311.433
310.799
310.195
309.619
309.072
308.55
308.055
307.584
307.137
306.713
306.31
305.929
305.568
305.226
304.903
304.597
304.308
304.035
303.778
303.535
303.306
303.09
302.887
302.696
302.517
302.348
302.189
302.04
301.9
301.769
301.646
301.531
301.423
301.322
301.228
301.139
301.057
300.98
300.908
300.84
300.778
300.719
300.665
300.614
300.566
300.522
300.481
300.443
300.407
300.374
300.343
300.314
300.287
300.262
300.238
300.216
300.196
300.177
300.158
300.141
300.125
300.11
300.095
300.081
300.068
300.055
300.042
300.03
300.018
300.006
349.888
347.996
346.142
344.328
342.556
340.826
339.14
337.498
335.902
334.351
332.846
331.387
329.973
328.606
327.284
326.008
324.776
323.588
322.444
321.343
320.284
319.267
318.29
317.353
316.454
315.593
314.769
313.981
313.228
312.508
311.821
311.166
310.541
309.946
309.379
308.841
308.328
307.841
307.379
306.94
306.524
306.13
305.757
305.403
305.069
304.753
304.454
304.172
303.906
303.655
303.418
303.195
302.985
302.788
302.602
302.427
302.263
302.109
301.965
301.829
301.702
301.583
301.471
301.367
301.269
301.178
301.093
301.013
300.938
300.869
300.804
300.744
300.687
300.635
300.586
300.54
300.497
300.458
300.421
300.387
300.355
300.325
300.297
300.271
300.247
300.224
300.203
300.183
300.164
300.146
300.129
300.114
300.098
300.084
300.07
300.057
300.044
300.031
300.019
300.006
351.513
349.56
347.645
345.773
343.942
342.156
340.415
338.72
337.072
335.47
333.916
332.409
330.95
329.538
328.173
326.855
325.583
324.357
323.176
322.039
320.945
319.895
318.886
317.918
316.99
316.102
315.251
314.437
313.659
312.916
312.206
311.53
310.885
310.27
309.685
309.129
308.6
308.097
307.62
307.167
306.737
306.33
305.944
305.579
305.234
304.908
304.599
304.308
304.033
303.774
303.53
303.3
303.083
302.879
302.687
302.507
302.337
302.178
302.029
301.889
301.757
301.634
301.519
301.412
301.311
301.216
301.128
301.046
300.969
300.897
300.83
300.768
300.71
300.655
300.605
300.558
300.514
300.473
300.435
300.399
300.366
300.335
300.306
300.28
300.255
300.231
300.209
300.189
300.169
300.151
300.134
300.117
300.102
300.087
300.072
300.059
300.045
300.032
300.019
300.006
353.126
351.112
349.137
347.206
345.318
343.476
341.681
339.933
338.233
336.581
334.978
333.424
331.919
330.463
329.056
327.696
326.384
325.119
323.901
322.729
321.601
320.518
319.477
318.479
317.522
316.606
315.728
314.889
314.087
313.32
312.588
311.891
311.225
310.592
309.988
309.414
308.869
308.35
307.858
307.391
306.948
306.528
306.131
305.754
305.398
305.062
304.743
304.443
304.16
303.892
303.64
303.403
303.179
302.969
302.771
302.585
302.41
302.246
302.092
301.948
301.813
301.686
301.567
301.456
301.352
301.254
301.164
301.079
300.999
300.925
300.856
300.792
300.732
300.676
300.624
300.575
300.53
300.488
300.448
300.412
300.378
300.346
300.316
300.288
300.263
300.238
300.216
300.194
300.174
300.156
300.138
300.121
300.105
300.089
300.075
300.06
300.047
300.033
300.02
300.007
354.726
352.651
350.617
348.627
346.683
344.786
342.936
341.135
339.384
337.683
336.031
334.431
332.881
331.381
329.93
328.53
327.179
325.876
324.621
323.413
322.252
321.136
320.064
319.036
318.05
317.106
316.202
315.337
314.511
313.721
312.968
312.249
311.563
310.911
310.289
309.698
309.136
308.602
308.095
307.614
307.157
306.725
306.315
305.927
305.561
305.214
304.886
304.577
304.285
304.009
303.75
303.505
303.275
303.058
302.854
302.663
302.483
302.314
302.155
302.007
301.867
301.736
301.614
301.5
301.392
301.292
301.199
301.111
301.029
300.953
300.882
300.816
300.754
300.696
300.642
300.592
300.546
300.502
300.462
300.424
300.389
300.356
300.326
300.297
300.27
300.246
300.222
300.2
300.18
300.16
300.142
300.125
300.108
300.092
300.077
300.062
300.048
300.034
300.02
300.007
356.313
354.177
352.084
350.037
348.036
346.084
344.181
342.328
340.526
338.775
337.076
335.429
333.834
332.29
330.798
329.357
327.967
326.626
325.335
324.092
322.897
321.748
320.646
319.588
318.573
317.602
316.672
315.782
314.931
314.119
313.343
312.604
311.899
311.227
310.587
309.979
309.401
308.851
308.329
307.834
307.365
306.92
306.498
306.099
305.722
305.365
305.028
304.71
304.409
304.126
303.859
303.607
303.37
303.147
302.937
302.74
302.555
302.381
302.218
302.065
301.921
301.787
301.661
301.543
301.433
301.33
301.233
301.143
301.059
300.981
300.908
300.839
300.776
300.716
300.661
300.61
300.562
300.517
300.475
300.436
300.4
300.366
300.335
300.306
300.278
300.253
300.229
300.206
300.185
300.165
300.146
300.128
300.111
300.095
300.079
300.064
300.049
300.035
300.021
300.007
357.885
355.69
353.539
351.434
349.378
347.371
345.414
343.51
341.657
339.858
338.111
336.418
334.778
333.192
331.658
330.177
328.748
327.37
326.042
324.765
323.536
322.356
321.222
320.135
319.092
318.093
317.137
316.223
315.348
314.513
313.716
312.956
312.231
311.54
310.883
310.258
309.663
309.098
308.562
308.053
307.57
307.113
306.68
306.27
305.882
305.515
305.168
304.841
304.532
304.241
303.966
303.708
303.464
303.235
303.019
302.817
302.626
302.447
302.28
302.122
301.975
301.837
301.707
301.586
301.473
301.367
301.268
301.175
301.089
301.008
300.933
300.863
300.797
300.736
300.68
300.627
300.577
300.531
300.488
300.449
300.411
300.377
300.344
300.314
300.286
300.26
300.235
300.212
300.19
300.17
300.15
300.132
300.114
300.097
300.081
300.066
300.051
300.036
300.021
300.007
359.443
357.189
354.98
352.819
350.707
348.646
346.637
344.681
342.779
340.931
339.137
337.398
335.715
334.085
332.51
330.989
329.521
328.106
326.743
325.431
324.17
322.957
321.793
320.677
319.606
318.58
317.598
316.659
315.761
314.904
314.085
313.304
312.56
311.851
311.176
310.534
309.923
309.343
308.792
308.27
307.774
307.304
306.86
306.438
306.04
305.663
305.307
304.971
304.654
304.355
304.073
303.807
303.557
303.322
303.101
302.892
302.697
302.513
302.341
302.179
302.028
301.886
301.753
301.629
301.512
301.404
301.302
301.207
301.118
301.035
300.958
300.886
300.819
300.756
300.698
300.643
300.593
300.546
300.502
300.461
300.422
300.387
300.354
300.323
300.294
300.267
300.241
300.218
300.195
300.174
300.154
300.135
300.117
300.1
300.084
300.068
300.052
300.037
300.022
300.007
360.987
358.674
356.408
354.19
352.023
349.909
347.848
345.841
343.889
341.993
340.153
338.37
336.642
334.97
333.354
331.794
330.288
328.836
327.438
326.092
324.797
323.553
322.359
321.213
320.115
319.063
318.055
317.092
316.171
315.291
314.451
313.65
312.886
312.159
311.466
310.807
310.181
309.586
309.021
308.485
307.976
307.494
307.038
306.606
306.197
305.81
305.445
305.1
304.775
304.468
304.179
303.906
303.65
303.408
303.181
302.968
302.767
302.579
302.402
302.236
302.081
301.935
301.799
301.671
301.552
301.44
301.336
301.238
301.147
301.062
300.983
300.909
300.84
300.776
300.716
300.66
300.608
300.56
300.515
300.473
300.433
300.397
300.363
300.331
300.301
300.274
300.248
300.223
300.2
300.179
300.158
300.139
300.12
300.103
300.086
300.069
300.053
300.038
300.023
300.008
362.515
360.144
357.821
355.548
353.327
351.16
349.047
346.99
344.989
343.046
341.16
339.331
337.56
335.847
334.19
332.591
331.047
329.559
328.125
326.746
325.419
324.144
322.92
321.745
320.619
319.54
318.508
317.52
316.576
315.674
314.813
313.992
313.209
312.464
311.754
311.078
310.436
309.826
309.247
308.697
308.176
307.682
307.214
306.771
306.352
305.956
305.582
305.228
304.895
304.58
304.284
304.004
303.741
303.494
303.261
303.042
302.836
302.643
302.462
302.292
302.133
301.984
301.844
301.713
301.591
301.476
301.369
301.269
301.176
301.089
301.008
300.932
300.861
300.795
300.734
300.677
300.623
300.574
300.528
300.484
300.444
300.407
300.372
300.339
300.309
300.28
300.254
300.229