/*--------------------------------*- C++ -*----------------------------------*\
| =========                 |                                                 |
| \\      /  F ield         | OpenFOAM: The Open Source CFD Toolbox           |
|  \\    /   O peration     | Version:  2406                                  |
|   \\  /    A nd           | Website:  www.openfoam.com                      |
|    \\/     M anipulation  |                                                 |
\*---------------------------------------------------------------------------*/
FoamFile
{
    version     2.0;
    format      ascii;
    arch        "LSB;label=32;scalar=64";
    class       volVectorField;
    location    "115";
    object      flux;
}
// * * * * * * * * * * * * * * * * * * * * * * * * * * * * * * * * * * * * * //

dimensions      [0 1 -1 1 0 0 0];

internalField   nonuniform List<vector> 
20000
(
(0.000471859 0.016263 0)
(0.00039654 0.0171286 0)
(0.000326627 0.017849 0)
(0.000261865 0.018435 0)
(0.000202105 0.0188965 0)
(0.000147206 0.0192434 0)
(9.68119e-05 0.0194852 0)
(5.0735e-05 0.0196306 0)
(8.88417e-06 0.0196882 0)
(-2.90009e-05 0.0196662 0)
(-6.31819e-05 0.0195722 0)
(-9.38624e-05 0.0194134 0)
(-0.000121224 0.0191967 0)
(-0.000145453 0.0189286 0)
(-0.000166746 0.018615 0)
(-0.000185298 0.0182616 0)
(-0.000201299 0.0178738 0)
(-0.000214928 0.0174565 0)
(-0.000226359 0.0170142 0)
(-0.000235756 0.0165511 0)
(-0.000243276 0.0160712 0)
(-0.00024907 0.015578 0)
(-0.000253283 0.015075 0)
(-0.000256052 0.014565 0)
(-0.000257508 0.0140508 0)
(-0.000257775 0.013535 0)
(-0.00025697 0.0130198 0)
(-0.000255204 0.0125072 0)
(-0.00025258 0.011999 0)
(-0.000249196 0.0114969 0)
(-0.000245143 0.0110023 0)
(-0.000240506 0.0105164 0)
(-0.000235364 0.0100403 0)
(-0.000229791 0.00957502 0)
(-0.000223854 0.00912124 0)
(-0.000217617 0.00867966 0)
(-0.000211138 0.00825082 0)
(-0.000204468 0.00783516 0)
(-0.000197657 0.007433 0)
(-0.000190749 0.00704458 0)
(-0.000183784 0.00667005 0)
(-0.000176798 0.00630949 0)
(-0.000169824 0.0059629 0)
(-0.00016289 0.00563023 0)
(-0.000156022 0.00531138 0)
(-0.000149245 0.00500618 0)
(-0.000142576 0.00471444 0)
(-0.000136035 0.00443591 0)
(-0.000129635 0.00417033 0)
(-0.000123391 0.0039174 0)
(-0.000117312 0.0036768 0)
(-0.000111407 0.00344819 0)
(-0.000105684 0.0032312 0)
(-0.000100149 0.00302547 0)
(-9.48041e-05 0.00283063 0)
(-8.96534e-05 0.00264628 0)
(-8.46982e-05 0.00247204 0)
(-7.99391e-05 0.00230751 0)
(-7.53756e-05 0.0021523 0)
(-7.10064e-05 0.00200603 0)
(-6.68295e-05 0.00186829 0)
(-6.28422e-05 0.00173872 0)
(-5.90413e-05 0.00161694 0)
(-5.54229e-05 0.00150257 0)
(-5.19831e-05 0.00139526 0)
(-4.87171e-05 0.00129465 0)
(-4.56204e-05 0.00120041 0)
(-4.26877e-05 0.00111218 0)
(-3.99141e-05 0.00102967 0)
(-3.7294e-05 0.000952537 0)
(-3.48222e-05 0.000880498 0)
(-3.24932e-05 0.000813257 0)
(-3.03015e-05 0.000750534 0)
(-2.82417e-05 0.000692059 0)
(-2.63084e-05 0.000637574 0)
(-2.44963e-05 0.000586831 0)
(-2.28003e-05 0.000539595 0)
(-2.12152e-05 0.000495636 0)
(-1.97361e-05 0.000454739 0)
(-1.83582e-05 0.000416697 0)
(-1.70769e-05 0.000381311 0)
(-1.58878e-05 0.000348393 0)
(-1.47865e-05 0.000317764 0)
(-1.37692e-05 0.000289251 0)
(-1.28318e-05 0.00026269 0)
(-1.19708e-05 0.000237927 0)
(-1.11828e-05 0.00021481 0)
(-1.04645e-05 0.000193198 0)
(-9.81291e-06 0.000172955 0)
(-9.22537e-06 0.000153949 0)
(-8.6993e-06 0.000136056 0)
(-8.23241e-06 0.000119154 0)
(-7.82261e-06 0.000103128 0)
(-7.46807e-06 8.78656e-05 0)
(-7.16718e-06 7.32577e-05 0)
(-6.91854e-06 5.91986e-05 0)
(-6.72102e-06 4.55852e-05 0)
(-6.57368e-06 3.23162e-05 0)
(-6.47584e-06 1.92921e-05 0)
(-6.42703e-06 6.41445e-06 0)
(0.00141549 0.016259 0)
(0.00118951 0.0171244 0)
(0.000979735 0.0178447 0)
(0.000785567 0.0184304 0)
(0.000606316 0.0188919 0)
(0.000441518 0.0192387 0)
(0.000290369 0.0194803 0)
(0.000152234 0.0196257 0)
(2.66848e-05 0.0196833 0)
(-8.7e-05 0.0196613 0)
(-0.000189549 0.0195673 0)
(-0.000281576 0.0194086 0)
(-0.000363641 0.019192 0)
(-0.000436318 0.0189239 0)
(-0.000500191 0.0186104 0)
(-0.000555845 0.0182571 0)
(-0.000603846 0.0178694 0)
(-0.000644733 0.0174522 0)
(-0.000679023 0.01701 0)
(-0.000707211 0.016547 0)
(-0.000729768 0.0160672 0)
(-0.000747149 0.0155742 0)
(-0.000759786 0.0150713 0)
(-0.000768093 0.0145614 0)
(-0.000772461 0.0140474 0)
(-0.000773262 0.0135317 0)
(-0.000770848 0.0130166 0)
(-0.000765549 0.0125041 0)
(-0.000757678 0.0119961 0)
(-0.000747527 0.0114941 0)
(-0.000735369 0.0109996 0)
(-0.000721459 0.0105138 0)
(-0.000706035 0.0100379 0)
(-0.000689316 0.00957266 0)
(-0.000671508 0.00911899 0)
(-0.000652799 0.00867752 0)
(-0.000633361 0.00824879 0)
(-0.000613354 0.00783323 0)
(-0.000592923 0.00743117 0)
(-0.000572201 0.00704284 0)
(-0.000551308 0.0066684 0)
(-0.000530351 0.00630793 0)
(-0.000509429 0.00596143 0)
(-0.000488629 0.00562885 0)
(-0.000468029 0.00531007 0)
(-0.000447697 0.00500495 0)
(-0.000427693 0.00471328 0)
(-0.000408071 0.00443482 0)
(-0.000388874 0.00416931 0)
(-0.000370142 0.00391644 0)
(-0.000351907 0.00367589 0)
(-0.000334195 0.00344734 0)
(-0.000317027 0.0032304 0)
(-0.000300421 0.00302473 0)
(-0.000284389 0.00282993 0)
(-0.000268938 0.00264563 0)
(-0.000254074 0.00247143 0)
(-0.000239798 0.00230694 0)
(-0.000226108 0.00215177 0)
(-0.000213002 0.00200553 0)
(-0.000200472 0.00186783 0)
(-0.000188511 0.00173829 0)
(-0.000177109 0.00161654 0)
(-0.000166255 0.0015022 0)
(-0.000155936 0.00139492 0)
(-0.000146139 0.00129433 0)
(-0.00013685 0.00120011 0)
(-0.000128053 0.00111191 0)
(-0.000119732 0.00102941 0)
(-0.000111873 0.000952302 0)
(-0.000104458 0.000880281 0)
(-9.74715e-05 0.000813056 0)
(-9.0897e-05 0.000750348 0)
(-8.47181e-05 0.000691888 0)
(-7.89187e-05 0.000637417 0)
(-7.34829e-05 0.000586687 0)
(-6.83952e-05 0.000539461 0)
(-6.36403e-05 0.000495514 0)
(-5.92034e-05 0.000454627 0)
(-5.507e-05 0.000416594 0)
(-5.12265e-05 0.000381217 0)
(-4.76594e-05 0.000348307 0)
(-4.4356e-05 0.000317685 0)
(-4.13041e-05 0.000289179 0)
(-3.84922e-05 0.000262626 0)
(-3.59095e-05 0.000237868 0)
(-3.35455e-05 0.000214757 0)
(-3.13908e-05 0.000193151 0)
(-2.94363e-05 0.000172912 0)
(-2.76738e-05 0.000153911 0)
(-2.60958e-05 0.000136022 0)
(-2.46952e-05 0.000119125 0)
(-2.34659e-05 0.000103103 0)
(-2.24024e-05 8.78439e-05 0)
(-2.14998e-05 7.32396e-05 0)
(-2.07539e-05 5.9184e-05 0)
(-2.01614e-05 4.5574e-05 0)
(-1.97194e-05 3.23082e-05 0)
(-1.94259e-05 1.92873e-05 0)
(-1.92795e-05 6.41287e-06 0)
(0.00235878 0.0162509 0)
(0.00198224 0.0171159 0)
(0.00163263 0.0178359 0)
(0.00130907 0.0184213 0)
(0.00101038 0.0188825 0)
(0.000735694 0.0192292 0)
(0.000483838 0.0194707 0)
(0.000253722 0.019616 0)
(4.45012e-05 0.0196736 0)
(-0.000144982 0.0196516 0)
(-0.000315887 0.0195577 0)
(-0.000469231 0.019399 0)
(-0.00060597 0.0191825 0)
(-0.000727069 0.0189145 0)
(-0.000833507 0.0186012 0)
(-0.000926252 0.0182481 0)
(-0.00100624 0.0178606 0)
(-0.00107438 0.0174436 0)
(-0.00113152 0.0170016 0)
(-0.00117849 0.0165388 0)
(-0.00121608 0.0160593 0)
(-0.00124504 0.0155665 0)
(-0.0012661 0.0150638 0)
(-0.00127994 0.0145542 0)
(-0.00128722 0.0140404 0)
(-0.00128856 0.013525 0)
(-0.00128453 0.0130102 0)
(-0.00127571 0.0124979 0)
(-0.00126259 0.0119902 0)
(-0.00124567 0.0114884 0)
(-0.00122541 0.0109942 0)
(-0.00120223 0.0105086 0)
(-0.00117653 0.0100329 0)
(-0.00114867 0.00956793 0)
(-0.001119 0.00911449 0)
(-0.00108782 0.00867323 0)
(-0.00105543 0.00824472 0)
(-0.00102209 0.00782936 0)
(-0.000988043 0.0074275 0)
(-0.000953512 0.00703937 0)
(-0.000918695 0.00666511 0)
(-0.000883773 0.00630482 0)
(-0.000848909 0.00595849 0)
(-0.000814248 0.00562607 0)
(-0.00077992 0.00530745 0)
(-0.000746039 0.00500248 0)
(-0.000712705 0.00471095 0)
(-0.000680006 0.00443263 0)
(-0.000648017 0.00416725 0)
(-0.000616802 0.00391451 0)
(-0.000586415 0.00367408 0)
(-0.000556899 0.00344563 0)
(-0.000528292 0.00322881 0)
(-0.00050062 0.00302324 0)
(-0.000473903 0.00282853 0)
(-0.000448156 0.00264432 0)
(-0.000423387 0.00247021 0)
(-0.000399597 0.0023058 0)
(-0.000376785 0.00215071 0)
(-0.000354945 0.00200454 0)
(-0.000334065 0.00186691 0)
(-0.000314134 0.00173744 0)
(-0.000295134 0.00161574 0)
(-0.000277046 0.00150146 0)
(-0.000259851 0.00139423 0)
(-0.000243526 0.0012937 0)
(-0.000228046 0.00119952 0)
(-0.000213386 0.00111136 0)
(-0.000199521 0.0010289 0)
(-0.000186424 0.000951832 0)
(-0.000174068 0.000879847 0)
(-0.000162426 0.000812655 0)
(-0.00015147 0.000749978 0)
(-0.000141174 0.000691546 0)
(-0.00013151 0.000637102 0)
(-0.000122451 0.000586397 0)
(-0.000113973 0.000539195 0)
(-0.00010605 0.000495269 0)
(-9.8656e-05 0.000454403 0)
(-9.17683e-05 0.000416388 0)
(-8.53634e-05 0.000381029 0)
(-7.94192e-05 0.000348135 0)
(-7.39145e-05 0.000317529 0)
(-6.88289e-05 0.000289037 0)
(-6.41432e-05 0.000262496 0)
(-5.98393e-05 0.000237751 0)
(-5.59e-05 0.000214651 0)
(-5.23094e-05 0.000193055 0)
(-4.90524e-05 0.000172827 0)
(-4.61155e-05 0.000153835 0)
(-4.34858e-05 0.000135955 0)
(-4.11519e-05 0.000119066 0)
(-3.91034e-05 0.000103052 0)
(-3.73312e-05 8.78006e-05 0)
(-3.58271e-05 7.32035e-05 0)
(-3.45842e-05 5.91548e-05 0)
(-3.35968e-05 4.55515e-05 0)
(-3.28603e-05 3.22923e-05 0)
(-3.23712e-05 1.92778e-05 0)
(-3.21272e-05 6.40971e-06 0)
(0.00330145 0.0162389 0)
(0.00277447 0.0171032 0)
(0.00228515 0.0178227 0)
(0.00183223 0.0184077 0)
(0.00141418 0.0188685 0)
(0.0010297 0.0192149 0)
(0.000677201 0.0194563 0)
(0.000355153 0.0196015 0)
(6.23038e-05 0.0196591 0)
(-0.000202937 0.0196371 0)
(-0.000442154 0.0195432 0)
(-0.000656773 0.0193847 0)
(-0.000848148 0.0191683 0)
(-0.00101764 0.0189005 0)
(-0.00116661 0.0185874 0)
(-0.00129643 0.0182346 0)
(-0.00140839 0.0178474 0)
(-0.00150376 0.0174306 0)
(-0.00158374 0.016989 0)
(-0.00164948 0.0165266 0)
(-0.0017021 0.0160474 0)
(-0.00174263 0.015555 0)
(-0.00177211 0.0150527 0)
(-0.00179148 0.0145434 0)
(-0.00180167 0.01403 0)
(-0.00180354 0.013515 0)
(-0.00179791 0.0130005 0)
(-0.00178555 0.0124887 0)
(-0.00176719 0.0119813 0)
(-0.00174351 0.0114799 0)
(-0.00171516 0.010986 0)
(-0.00168271 0.0105009 0)
(-0.00164674 0.0100255 0)
(-0.00160774 0.00956085 0)
(-0.00156621 0.00910774 0)
(-0.00152257 0.00866681 0)
(-0.00147723 0.00823861 0)
(-0.00143057 0.00782356 0)
(-0.00138292 0.007422 0)
(-0.00133459 0.00703415 0)
(-0.00128586 0.00666018 0)
(-0.00123698 0.00630015 0)
(-0.00118818 0.00595407 0)
(-0.00113967 0.0056219 0)
(-0.00109162 0.00530352 0)
(-0.0010442 0.00499877 0)
(-0.000997541 0.00470746 0)
(-0.000951773 0.00442935 0)
(-0.000906999 0.00416416 0)
(-0.000863309 0.00391161 0)
(-0.000820778 0.00367136 0)
(-0.000779467 0.00344308 0)
(-0.000739426 0.00322642 0)
(-0.000700695 0.003021 0)
(-0.000663301 0.00282644 0)
(-0.000627264 0.00264236 0)
(-0.000592595 0.00246838 0)
(-0.000559298 0.00230409 0)
(-0.000527369 0.00214912 0)
(-0.0004968 0.00200306 0)
(-0.000467576 0.00186553 0)
(-0.000439679 0.00173615 0)
(-0.000413085 0.00161455 0)
(-0.000387769 0.00150035 0)
(-0.000363702 0.0013932 0)
(-0.000340852 0.00129274 0)
(-0.000319185 0.00119863 0)
(-0.000298667 0.00111054 0)
(-0.000279261 0.00102814 0)
(-0.000260929 0.000951128 0)
(-0.000243635 0.000879195 0)
(-0.00022734 0.000812054 0)
(-0.000212006 0.000749423 0)
(-0.000197594 0.000691034 0)
(-0.000184068 0.00063663 0)
(-0.00017139 0.000585963 0)
(-0.000159523 0.000538796 0)
(-0.000148433 0.000494903 0)
(-0.000138084 0.000454066 0)
(-0.000128444 0.00041608 0)
(-0.000119479 0.000380747 0)
(-0.000111159 0.000347878 0)
(-0.000103455 0.000317294 0)
(-9.63366e-05 0.000288823 0)
(-8.97783e-05 0.000262302 0)
(-8.37543e-05 0.000237575 0)
(-7.82407e-05 0.000214492 0)
(-7.3215e-05 0.000192913 0)
(-6.86565e-05 0.000172699 0)
(-6.45457e-05 0.000153721 0)
(-6.08651e-05 0.000135854 0)
(-5.75984e-05 0.000118978 0)
(-5.47313e-05 0.000102976 0)
(-5.22507e-05 8.77356e-05 0)
(-5.01455e-05 7.31493e-05 0)
(-4.84059e-05 5.91111e-05 0)
(-4.70239e-05 4.55178e-05 0)
(-4.59931e-05 3.22684e-05 0)
(-4.53085e-05 1.92636e-05 0)
(-4.4967e-05 6.40496e-06 0)
(0.00424329 0.0162229 0)
(0.00356598 0.0170863 0)
(0.00293709 0.017805 0)
(0.00235494 0.0183895 0)
(0.00181764 0.0188499 0)
(0.00132346 0.019196 0)
(0.000870402 0.0194371 0)
(0.000456496 0.0195821 0)
(8.00854e-05 0.0196397 0)
(-0.000260848 0.0196177 0)
(-0.000568315 0.0195239 0)
(-0.000844153 0.0193655 0)
(-0.00109011 0.0191493 0)
(-0.00130795 0.0188818 0)
(-0.00149943 0.018569 0)
(-0.00166628 0.0182166 0)
(-0.00181019 0.0178297 0)
(-0.00193277 0.0174134 0)
(-0.00203557 0.0169722 0)
(-0.00212007 0.0165103 0)
(-0.00218769 0.0160316 0)
(-0.00223979 0.0155396 0)
(-0.00227768 0.0150378 0)
(-0.00230258 0.0145291 0)
(-0.00231567 0.0140162 0)
(-0.00231807 0.0135016 0)
(-0.00231083 0.0129877 0)
(-0.00229495 0.0124763 0)
(-0.00227135 0.0119694 0)
(-0.00224092 0.0114686 0)
(-0.00220447 0.0109752 0)
(-0.00216277 0.0104905 0)
(-0.00211654 0.0100156 0)
(-0.00206642 0.0095514 0)
(-0.00201303 0.00909874 0)
(-0.00195695 0.00865825 0)
(-0.00189868 0.00823047 0)
(-0.0018387 0.00781583 0)
(-0.00177745 0.00741467 0)
(-0.00171533 0.0070272 0)
(-0.0016527 0.0066536 0)
(-0.00158988 0.00629392 0)
(-0.00152716 0.00594819 0)
(-0.0014648 0.00561635 0)
(-0.00140305 0.00529828 0)
(-0.0013421 0.00499384 0)
(-0.00128213 0.00470281 0)
(-0.00122331 0.00442497 0)
(-0.00116576 0.00416005 0)
(-0.0011096 0.00390774 0)
(-0.00105494 0.00366773 0)
(-0.00100184 0.00343968 0)
(-0.000950378 0.00322323 0)
(-0.000900597 0.00301801 0)
(-0.000852535 0.00282365 0)
(-0.000806217 0.00263975 0)
(-0.000761657 0.00246594 0)
(-0.000718861 0.00230182 0)
(-0.000677823 0.00214699 0)
(-0.000638532 0.00200108 0)
(-0.000600971 0.00186369 0)
(-0.000565115 0.00173444 0)
(-0.000530935 0.00161295 0)
(-0.000498396 0.00149887 0)
(-0.000467463 0.00139182 0)
(-0.000438094 0.00129146 0)
(-0.000410246 0.00119745 0)
(-0.000383874 0.00110944 0)
(-0.000358931 0.00102713 0)
(-0.00033537 0.000950188 0)
(-0.000313142 0.000878327 0)
(-0.000292198 0.000811252 0)
(-0.000272489 0.000748683 0)
(-0.000253966 0.000690352 0)
(-0.000236581 0.000636002 0)
(-0.000220286 0.000585384 0)
(-0.000205034 0.000538264 0)
(-0.00019078 0.000494414 0)
(-0.000177479 0.000453618 0)
(-0.000165088 0.000415669 0)
(-0.000153566 0.000380371 0)
(-0.000142872 0.000347534 0)
(-0.000132969 0.00031698 0)
(-0.000123821 0.000288538 0)
(-0.000115391 0.000262043 0)
(-0.000107649 0.00023734 0)
(-0.000100562 0.000214281 0)
(-9.41027e-05 0.000192722 0)
(-8.82436e-05 0.000172529 0)
(-8.29601e-05 0.00015357 0)
(-7.82293e-05 0.00013572 0)
(-7.40308e-05 0.00011886 0)
(-7.03456e-05 0.000102874 0)
(-6.71574e-05 8.7649e-05 0)
(-6.44516e-05 7.30771e-05 0)
(-6.22157e-05 5.90527e-05 0)
(-6.04395e-05 4.54729e-05 0)
(-5.91145e-05 3.22366e-05 0)
(-5.82347e-05 1.92446e-05 0)
(-5.77958e-05 6.39864e-06 0)
(0.00518409 0.0162029 0)
(0.0043566 0.0170652 0)
(0.0035883 0.017783 0)
(0.00287707 0.0183668 0)
(0.00222065 0.0188266 0)
(0.0016169 0.0191723 0)
(0.00106339 0.0194131 0)
(0.000557722 0.019558 0)
(9.78432e-05 0.0196154 0)
(-0.000318697 0.0195934 0)
(-0.000694337 0.0194998 0)
(-0.00103132 0.0193416 0)
(-0.00133181 0.0191257 0)
(-0.00159794 0.0188585 0)
(-0.00183187 0.0185461 0)
(-0.00203572 0.0181941 0)
(-0.00221154 0.0178077 0)
(-0.0023613 0.0173919 0)
(-0.0024869 0.0169512 0)
(-0.00259013 0.0164899 0)
(-0.00267275 0.0160117 0)
(-0.0027364 0.0155204 0)
(-0.00278268 0.0150192 0)
(-0.0028131 0.0145111 0)
(-0.0028291 0.0139989 0)
(-0.00283203 0.0134849 0)
(-0.00282319 0.0129716 0)
(-0.00280378 0.0124609 0)
(-0.00277496 0.0119546 0)
(-0.00273778 0.0114544 0)
(-0.00269325 0.0109616 0)
(-0.0026423 0.0104775 0)
(-0.00258581 0.0100032 0)
(-0.00252458 0.0095396 0)
(-0.00245936 0.0090875 0)
(-0.00239084 0.00864755 0)
(-0.00231965 0.0082203 0)
(-0.00224638 0.00780618 0)
(-0.00217155 0.0074055 0)
(-0.00209566 0.00701852 0)
(-0.00201913 0.00664538 0)
(-0.00194238 0.00628615 0)
(-0.00186576 0.00594084 0)
(-0.00178958 0.00560941 0)
(-0.00171413 0.00529173 0)
(-0.00163967 0.00498767 0)
(-0.0015664 0.004697 0)
(-0.00149454 0.00441951 0)
(-0.00142423 0.00415491 0)
(-0.00135562 0.00390291 0)
(-0.00128884 0.0036632 0)
(-0.00122397 0.00343543 0)
(-0.0011611 0.00321925 0)
(-0.00110028 0.00301428 0)
(-0.00104156 0.00282016 0)
(-0.000984971 0.00263649 0)
(-0.000930532 0.00246289 0)
(-0.000878246 0.00229897 0)
(-0.000828109 0.00214434 0)
(-0.000780107 0.00199861 0)
(-0.000734218 0.00186138 0)
(-0.000690412 0.00173229 0)
(-0.000648653 0.00161096 0)
(-0.000608901 0.00149702 0)
(-0.000571109 0.0013901 0)
(-0.000535228 0.00128987 0)
(-0.000501205 0.00119597 0)
(-0.000468986 0.00110807 0)
(-0.000438513 0.00102586 0)
(-0.000409728 0.000949014 0)
(-0.000382572 0.000877242 0)
(-0.000356984 0.000810249 0)
(-0.000332905 0.000747758 0)
(-0.000310275 0.000689499 0)
(-0.000289035 0.000635216 0)
(-0.000269127 0.000584661 0)
(-0.000250494 0.000537599 0)
(-0.000233079 0.000493803 0)
(-0.000216829 0.000453058 0)
(-0.000201691 0.000415156 0)
(-0.000187614 0.000379901 0)
(-0.00017455 0.000347105 0)
(-0.000162451 0.000316589 0)
(-0.000151274 0.000288181 0)
(-0.000140976 0.000261719 0)
(-0.000131517 0.000237047 0)
(-0.000122859 0.000214016 0)
(-0.000114967 0.000192484 0)
(-0.000107809 0.000172315 0)
(-0.000101354 0.00015338 0)
(-9.55743e-05 0.000135553 0)
(-9.04448e-05 0.000118714 0)
(-8.59426e-05 0.000102747 0)
(-8.20475e-05 8.75408e-05 0)
(-7.87418e-05 7.29869e-05 0)
(-7.60102e-05 5.89798e-05 0)
(-7.38401e-05 4.54167e-05 0)
(-7.22214e-05 3.21968e-05 0)
(-7.11465e-05 1.92208e-05 0)
(-7.06102e-05 6.39074e-06 0)
(0.00612362 0.0161788 0)
(0.00514616 0.0170399 0)
(0.00423862 0.0177567 0)
(0.0033985 0.0183395 0)
(0.00262312 0.0187987 0)
(0.00190994 0.0191438 0)
(0.00125611 0.0193843 0)
(0.000658808 0.0195289 0)
(0.000115575 0.0195863 0)
(-0.000376468 0.0195644 0)
(-0.000820186 0.0194708 0)
(-0.00121824 0.0193129 0)
(-0.00157317 0.0190973 0)
(-0.00188753 0.0188305 0)
(-0.00216386 0.0185186 0)
(-0.00240466 0.0181671 0)
(-0.00261235 0.0177813 0)
(-0.00278926 0.0173661 0)
(-0.00293761 0.0169261 0)
(-0.00305956 0.0164654 0)
(-0.00315714 0.015988 0)
(-0.00323233 0.0154974 0)
(-0.003287 0.0149969 0)
(-0.00332293 0.0144896 0)
(-0.00334183 0.0139781 0)
(-0.00334529 0.0134649 0)
(-0.00333485 0.0129524 0)
(-0.00331193 0.0124424 0)
(-0.00327788 0.0119369 0)
(-0.00323396 0.0114374 0)
(-0.00318136 0.0109453 0)
(-0.00312118 0.010462 0)
(-0.00305445 0.00998836 0)
(-0.00298213 0.00952545 0)
(-0.00290508 0.00907401 0)
(-0.00282414 0.00863472 0)
(-0.00274005 0.0082081 0)
(-0.0026535 0.00779459 0)
(-0.00256511 0.00739452 0)
(-0.00247546 0.00700811 0)
(-0.00238507 0.00663552 0)
(-0.00229441 0.00627682 0)
(-0.0022039 0.00593203 0)
(-0.00211391 0.00560108 0)
(-0.00202479 0.00528388 0)
(-0.00193683 0.00498026 0)
(-0.00185029 0.00469003 0)
(-0.0017654 0.00441295 0)
(-0.00168235 0.00414874 0)
(-0.00160131 0.00389712 0)
(-0.00152242 0.00365777 0)
(-0.0014458 0.00343033 0)
(-0.00137153 0.00321447 0)
(-0.00129969 0.00300981 0)
(-0.00123033 0.00281598 0)
(-0.00116348 0.00263258 0)
(-0.00109918 0.00245924 0)
(-0.00103741 0.00229556 0)
(-0.000978191 0.00214116 0)
(-0.00092149 0.00199564 0)
(-0.000867284 0.00185862 0)
(-0.000815539 0.00172972 0)
(-0.000766212 0.00160857 0)
(-0.000719254 0.00149479 0)
(-0.000674613 0.00138804 0)
(-0.000632229 0.00128795 0)
(-0.000592041 0.00119419 0)
(-0.000553983 0.00110643 0)
(-0.000517987 0.00102434 0)
(-0.000483985 0.000947607 0)
(-0.000451907 0.000875941 0)
(-0.000421682 0.000809047 0)
(-0.000393239 0.000746649 0)
(-0.000366508 0.000688476 0)
(-0.000341419 0.000634274 0)
(-0.000317903 0.000583794 0)
(-0.000295892 0.000536802 0)
(-0.000275321 0.000493071 0)
(-0.000256126 0.000452385 0)
(-0.000238244 0.00041454 0)
(-0.000221616 0.000379337 0)
(-0.000206184 0.00034659 0)
(-0.000191893 0.000316119 0)
(-0.00017869 0.000287754 0)
(-0.000166526 0.000261331 0)
(-0.000155352 0.000236695 0)
(-0.000145125 0.000213699 0)
(-0.000135803 0.000192199 0)
(-0.000127348 0.00017206 0)
(-0.000119723 0.000153153 0)
(-0.000112896 0.000135352 0)
(-0.000106837 0.000118538 0)
(-0.000101518 0.000102595 0)
(-9.69174e-05 8.7411e-05 0)
(-9.30126e-05 7.28786e-05 0)
(-8.97859e-05 5.88923e-05 0)
(-8.72225e-05 4.53494e-05 0)
(-8.53104e-05 3.2149e-05 0)
(-8.40407e-05 1.91923e-05 0)
(-8.34073e-05 6.38127e-06 0)
(0.00706164 0.0161508 0)
(0.00593445 0.0170104 0)
(0.0048879 0.0177259 0)
(0.00391909 0.0183077 0)
(0.00302494 0.0187661 0)
(0.00220251 0.0191106 0)
(0.00144852 0.0193507 0)
(0.00075973 0.0194951 0)
(0.000133277 0.0195523 0)
(-0.000434146 0.0195305 0)
(-0.000945832 0.0194371 0)
(-0.00140485 0.0192794 0)
(-0.00181414 0.0190642 0)
(-0.00217666 0.0187979 0)
(-0.00249532 0.0184865 0)
(-0.00277301 0.0181356 0)
(-0.00301251 0.0177505 0)
(-0.00321652 0.017336 0)
(-0.0033876 0.0168968 0)
(-0.00352823 0.0164369 0)
(-0.00364076 0.0159603 0)
(-0.00372747 0.0154705 0)
(-0.00379051 0.0149709 0)
(-0.00383195 0.0144645 0)
(-0.00385374 0.0139539 0)
(-0.00385773 0.0134416 0)
(-0.00384569 0.0129299 0)
(-0.00381925 0.0124209 0)
(-0.00377999 0.0119162 0)
(-0.00372934 0.0114176 0)
(-0.00366869 0.0109264 0)
(-0.00359929 0.0104438 0)
(-0.00352234 0.00997105 0)
(-0.00343893 0.00950894 0)
(-0.00335009 0.00905829 0)
(-0.00325675 0.00861976 0)
(-0.00315978 0.00819388 0)
(-0.00305996 0.00778109 0)
(-0.00295804 0.0073817 0)
(-0.00285466 0.00699596 0)
(-0.00275042 0.00662402 0)
(-0.00264587 0.00626594 0)
(-0.00254149 0.00592175 0)
(-0.00243772 0.00559138 0)
(-0.00233495 0.00527473 0)
(-0.00223352 0.00497163 0)
(-0.00213372 0.0046819 0)
(-0.00203582 0.0044053 0)
(-0.00194005 0.00414155 0)
(-0.0018466 0.00389037 0)
(-0.00175563 0.00365143 0)
(-0.00166726 0.00342439 0)
(-0.00158162 0.0032089 0)
(-0.00149877 0.0030046 0)
(-0.00141879 0.0028111 0)
(-0.00134171 0.00262802 0)
(-0.00126755 0.00245498 0)
(-0.00119633 0.00229159 0)
(-0.00112803 0.00213745 0)
(-0.00106265 0.00199218 0)
(-0.00100014 0.0018554 0)
(-0.000940464 0.00172673 0)
(-0.000883581 0.00160578 0)
(-0.000829431 0.00149221 0)
(-0.000777951 0.00138563 0)
(-0.000729075 0.00128572 0)
(-0.000682731 0.00119212 0)
(-0.000638842 0.00110451 0)
(-0.000597333 0.00102256 0)
(-0.000558123 0.000945965 0)
(-0.000521131 0.000874423 0)
(-0.000486276 0.000807646 0)
(-0.000453476 0.000745355 0)
(-0.00042265 0.000687284 0)
(-0.000393718 0.000633175 0)
(-0.000366599 0.000582783 0)
(-0.000341217 0.000535872 0)
(-0.000317495 0.000492217 0)
(-0.00029536 0.000451602 0)
(-0.000274739 0.000413822 0)
(-0.000255564 0.00037868 0)
(-0.000237768 0.00034599 0)
(-0.000221288 0.000315572 0)
(-0.000206062 0.000287255 0)
(-0.000192034 0.000260878 0)
(-0.000179149 0.000236285 0)
(-0.000167355 0.000213328 0)
(-0.000156606 0.000191866 0)
(-0.000146855 0.000171762 0)
(-0.000138062 0.000152887 0)
(-0.000130189 0.000135117 0)
(-0.000123202 0.000118332 0)
(-0.000117069 0.000102417 0)
(-0.000111763 8.72596e-05 0)
(-0.00010726 7.27524e-05 0)
(-0.000103539 5.87904e-05 0)
(-0.000100583 4.52708e-05 0)
(-9.83784e-05 3.20933e-05 0)
(-9.69142e-05 1.91591e-05 0)
(-9.61838e-05 6.37021e-06 0)
(0.00799792 0.0161187 0)
(0.00672129 0.0169767 0)
(0.00553597 0.0176908 0)
(0.00443871 0.0182715 0)
(0.00342601 0.0187289 0)
(0.00249453 0.0190728 0)
(0.00164057 0.0193123 0)
(0.000860463 0.0194564 0)
(0.000150946 0.0195136 0)
(-0.000491717 0.0194917 0)
(-0.00107124 0.0193986 0)
(-0.00159111 0.0192412 0)
(-0.00205467 0.0190264 0)
(-0.00246525 0.0187606 0)
(-0.00282616 0.0184499 0)
(-0.00314067 0.0180997 0)
(-0.00341193 0.0177153 0)
(-0.00364299 0.0173017 0)
(-0.00383676 0.0168633 0)
(-0.00399603 0.0164043 0)
(-0.00412348 0.0159287 0)
(-0.00422168 0.0154399 0)
(-0.00429308 0.0149413 0)
(-0.00434002 0.0144358 0)
(-0.00436469 0.0139262 0)
(-0.00436922 0.013415 0)
(-0.00435558 0.0129043 0)
(-0.00432564 0.0123963 0)
(-0.00428116 0.0118926 0)
(-0.0042238 0.011395 0)
(-0.00415511 0.0109047 0)
(-0.00407651 0.0104231 0)
(-0.00398935 0.00995129 0)
(-0.00389489 0.00949009 0)
(-0.00379427 0.00904033 0)
(-0.00368855 0.00860267 0)
(-0.00357872 0.00817764 0)
(-0.00346568 0.00776566 0)
(-0.00335023 0.00736707 0)
(-0.00323315 0.00698209 0)
(-0.00311509 0.00661089 0)
(-0.00299668 0.00625352 0)
(-0.00287846 0.00591001 0)
(-0.00276093 0.00558029 0)
(-0.00264453 0.00526427 0)
(-0.00252965 0.00496178 0)
(-0.00241662 0.00467262 0)
(-0.00230575 0.00439657 0)
(-0.00219728 0.00413334 0)
(-0.00209144 0.00388266 0)
(-0.0019884 0.00364419 0)
(-0.00188832 0.0034176 0)
(-0.00179132 0.00320254 0)
(-0.00169749 0.00299864 0)
(-0.0016069 0.00280552 0)
(-0.0015196 0.00262281 0)
(-0.00143561 0.00245011 0)
(-0.00135494 0.00228704 0)
(-0.00127759 0.00213321 0)
(-0.00120354 0.00198823 0)
(-0.00113274 0.00185172 0)
(-0.00106516 0.0017233 0)
(-0.00100073 0.0016026 0)
(-0.000939403 0.00148925 0)
(-0.000881098 0.00138289 0)
(-0.000825741 0.00128317 0)
(-0.000773252 0.00118976 0)
(-0.000723545 0.00110232 0)
(-0.000676532 0.00102053 0)
(-0.000632123 0.00094409 0)
(-0.000590226 0.00087269 0)
(-0.00055075 0.000806045 0)
(-0.000513601 0.000743878 0)
(-0.000478688 0.000685922 0)
(-0.00044592 0.00063192 0)
(-0.000415206 0.000581628 0)
(-0.000386458 0.00053481 0)
(-0.000359591 0.000491241 0)
(-0.000334521 0.000450707 0)
(-0.000311166 0.000413002 0)
(-0.000289449 0.00037793 0)
(-0.000269293 0.000345304 0)
(-0.000250628 0.000314946 0)
(-0.000233384 0.000286686 0)
(-0.000217495 0.000260361 0)
(-0.000202902 0.000235817 0)
(-0.000189545 0.000212906 0)
(-0.00017737 0.000191486 0)
(-0.000166326 0.000171422 0)
(-0.000156367 0.000152584 0)
(-0.000147451 0.00013485 0)
(-0.000139537 0.000118098 0)
(-0.000132591 0.000102214 0)
(-0.000126582 8.70867e-05 0)
(-0.000121482 7.26083e-05 0)
(-0.000117268 5.86739e-05 0)
(-0.00011392 4.51811e-05 0)
(-0.000111422 3.20298e-05 0)
(-0.000109764 1.91211e-05 0)
(-0.000108937 6.35759e-06 0)
(0.00893223 0.0160827 0)
(0.00750646 0.0169388 0)
(0.00618268 0.0176512 0)
(0.00495723 0.0182307 0)
(0.00382623 0.0186871 0)
(0.00278594 0.0190302 0)
(0.00183221 0.0192692 0)
(0.000960984 0.019413 0)
(0.000168579 0.01947 0)
(-0.000549165 0.0194482 0)
(-0.00119639 0.0193552 0)
(-0.00177698 0.0191982 0)
(-0.00229469 0.0189839 0)
(-0.00275323 0.0187188 0)
(-0.0031563 0.0184087 0)
(-0.00350756 0.0180592 0)
(-0.00381051 0.0176757 0)
(-0.00406856 0.017263 0)
(-0.00428496 0.0168256 0)
(-0.00446284 0.0163677 0)
(-0.00460518 0.0158931 0)
(-0.00471486 0.0154054 0)
(-0.0047946 0.0149079 0)
(-0.00484701 0.0144036 0)
(-0.00487457 0.0138951 0)
(-0.00487963 0.013385 0)
(-0.00486439 0.0128755 0)
(-0.00483095 0.0123686 0)
(-0.00478128 0.011866 0)
(-0.00471722 0.0113695 0)
(-0.0046405 0.0108804 0)
(-0.00455272 0.0103999 0)
(-0.00445539 0.00992906 0)
(-0.00434989 0.00946889 0)
(-0.00423751 0.00902014 0)
(-0.00411944 0.00858346 0)
(-0.00399678 0.00815937 0)
(-0.00387053 0.00774832 0)
(-0.0037416 0.00735062 0)
(-0.00361084 0.0069665 0)
(-0.00347899 0.00659612 0)
(-0.00334675 0.00623956 0)
(-0.00321472 0.00589681 0)
(-0.00308346 0.00556783 0)
(-0.00295347 0.00525251 0)
(-0.00282516 0.0049507 0)
(-0.00269893 0.00466219 0)
(-0.0025751 0.00438675 0)
(-0.00245396 0.00412411 0)
(-0.00233576 0.00387399 0)
(-0.00222068 0.00363605 0)
(-0.00210891 0.00340997 0)
(-0.00200058 0.00319539 0)
(-0.00189579 0.00299194 0)
(-0.00179462 0.00279926 0)
(-0.00169712 0.00261695 0)
(-0.00160332 0.00244464 0)
(-0.00151323 0.00228194 0)
(-0.00142684 0.00212845 0)
(-0.00134413 0.00198379 0)
(-0.00126507 0.00184759 0)
(-0.00118959 0.00171945 0)
(-0.00111764 0.00159902 0)
(-0.00104914 0.00148592 0)
(-0.000984027 0.0013798 0)
(-0.000922203 0.00128031 0)
(-0.000863582 0.0011871 0)
(-0.000808068 0.00109986 0)
(-0.000755564 0.00101826 0)
(-0.000705967 0.000941982 0)
(-0.000659176 0.000870741 0)
(-0.000615088 0.000804245 0)
(-0.0005736 0.000742217 0)
(-0.000534608 0.00068439 0)
(-0.000498012 0.000630509 0)
(-0.00046371 0.000580329 0)
(-0.000431604 0.000533616 0)
(-0.000401598 0.000490144 0)
(-0.000373599 0.000449701 0)
(-0.000347516 0.00041208 0)
(-0.000323262 0.000377086 0)
(-0.000300752 0.000344533 0)
(-0.000279906 0.000314243 0)
(-0.000260647 0.000286046 0)
(-0.000242903 0.00025978 0)
(-0.000226605 0.000235291 0)
(-0.000211687 0.00021243 0)
(-0.00019809 0.000191058 0)
(-0.000185756 0.000171039 0)
(-0.000174634 0.000152244 0)
(-0.000164676 0.000134549 0)
(-0.000155838 0.000117834 0)
(-0.00014808 0.000101986 0)
(-0.000141369 8.68923e-05 0)
(-0.000135673 7.24462e-05 0)
(-0.000130967 5.85429e-05 0)
(-0.000127228 4.50803e-05 0)
(-0.000124438 3.19583e-05 0)
(-0.000122586 1.90784e-05 0)
(-0.000121662 6.3434e-06 0)
(0.00986434 0.0160428 0)
(0.00828978 0.0168967 0)
(0.00682786 0.0176074 0)
(0.00547454 0.0181854 0)
(0.00422551 0.0186406 0)
(0.00307665 0.0189829 0)
(0.00202341 0.0192213 0)
(0.00106127 0.0193648 0)
(0.00018617 0.0194216 0)
(-0.000606476 0.0193999 0)
(-0.00132124 0.0193071 0)
(-0.00196241 0.0191505 0)
(-0.00253414 0.0189368 0)
(-0.00304053 0.0186722 0)
(-0.00348567 0.0183629 0)
(-0.00387358 0.0180144 0)
(-0.00420815 0.0176318 0)
(-0.00449313 0.0172201 0)
(-0.00473212 0.0167838 0)
(-0.00492855 0.016327 0)
(-0.00508575 0.0158536 0)
(-0.00520687 0.0153671 0)
(-0.00529493 0.0148708 0)
(-0.00535281 0.0143678 0)
(-0.00538325 0.0138606 0)
(-0.00538883 0.0133517 0)
(-0.005372 0.0128435 0)
(-0.00533508 0.0123378 0)
(-0.00528023 0.0118366 0)
(-0.00520948 0.0113413 0)
(-0.00512475 0.0108533 0)
(-0.00502781 0.010374 0)
(-0.00492032 0.00990439 0)
(-0.00480381 0.00944536 0)
(-0.00467971 0.00899773 0)
(-0.00454932 0.00856213 0)
(-0.00441386 0.0081391 0)
(-0.00427443 0.00772906 0)
(-0.00413205 0.00733235 0)
(-0.00398764 0.00694919 0)
(-0.00384203 0.00657973 0)
(-0.00369599 0.00622405 0)
(-0.00355019 0.00588216 0)
(-0.00340523 0.005554 0)
(-0.00326167 0.00523946 0)
(-0.00311998 0.0049384 0)
(-0.00298057 0.0046506 0)
(-0.00284382 0.00437585 0)
(-0.00271004 0.00411387 0)
(-0.0025795 0.00386436 0)
(-0.00245242 0.00362702 0)
(-0.00232898 0.0034015 0)
(-0.00220935 0.00318745 0)
(-0.00209362 0.00298451 0)
(-0.00198189 0.0027923 0)
(-0.00187422 0.00261045 0)
(-0.00177063 0.00243857 0)
(-0.00167114 0.00227627 0)
(-0.00157574 0.00212316 0)
(-0.0014844 0.00197886 0)
(-0.00139708 0.001843 0)
(-0.00131372 0.00171518 0)
(-0.00123427 0.00159505 0)
(-0.00115862 0.00148223 0)
(-0.00108671 0.00137637 0)
(-0.00101844 0.00127713 0)
(-0.0009537 0.00118415 0)
(-0.000892393 0.00109713 0)
(-0.000834409 0.00101573 0)