/*--------------------------------*- C++ -*----------------------------------*\
| =========                 |                                                 |
| \\      /  F ield         | OpenFOAM: The Open Source CFD Toolbox           |
|  \\    /   O peration     | Version:  2406                                  |
|   \\  /    A nd           | Website:  www.openfoam.com                      |
|    \\/     M anipulation  |                                                 |
\*---------------------------------------------------------------------------*/
FoamFile
{
    version     2.0;
    format      ascii;
    arch        "LSB;label=32;scalar=64";
    class       volScalarField;
    location    "195";
    object      gradTx;
}
// * * * * * * * * * * * * * * * * * * * * * * * * * * * * * * * * * * * * * //

dimensions      [0 -1 0 1 0 0 0];

internalField   nonuniform List<scalar> 
20000
(
1.32434
1.50714
1.67359
1.8243
1.95964
2.08062
2.18836
2.28342
2.36561
2.43627
2.49663
2.54653
2.58633
2.61703
2.6394
2.65384
2.66069
2.66041
2.65357
2.64071
2.62228
2.59868
2.5703
2.5375
2.50064
2.4601
2.41621
2.36932
2.31973
2.26774
2.21362
2.15764
2.10003
2.04104
1.98088
1.91976
1.85787
1.7954
1.73253
1.66941
1.6062
1.54303
1.48005
1.41736
1.35508
1.29333
1.23218
1.17173
1.11207
1.05326
0.995367
0.938456
0.88258
0.827787
0.774119
0.721613
0.670303
0.620218
0.571379
0.523809
0.477523
0.432533
0.38885
0.34648
0.305427
0.265693
0.227276
0.190173
0.15438
0.11989
0.0866958
0.0547869
0.0241532
-0.00521685
-0.0333357
-0.0602164
-0.0858726
-0.110318
-0.133568
-0.155637
-0.176538
-0.196288
-0.2149
-0.232388
-0.248767
-0.26405
-0.27825
-0.29138
-0.303451
-0.314475
-0.324462
-0.333421
-0.341363
-0.348293
-0.354221
-0.359151
-0.363089
-0.366038
-0.368003
-0.368985
3.97277
4.52113
5.02016
5.47212
5.87857
6.24201
6.56457
6.84904
7.09629
7.30873
7.48929
7.63863
7.75823
7.85058
7.9177
7.96088
7.98133
7.98051
7.96005
7.92149
7.86621
7.79543
7.71027
7.61186
7.5013
7.37967
7.24803
7.10736
6.95861
6.80266
6.64032
6.47238
6.29958
6.12261
5.94214
5.75879
5.57315
5.38577
5.19717
5.00783
4.8182
4.62872
4.43978
4.25173
4.06492
3.87966
3.69624
3.51491
3.33593
3.15951
2.98585
2.81514
2.64752
2.48316
2.32216
2.16466
2.01074
1.8605
1.714
1.5713
1.43245
1.29749
1.16645
1.03936
0.916206
0.797012
0.681771
0.570472
0.463102
0.359642
0.260066
0.164347
0.0724537
-0.0156493
-0.0999988
-0.180634
-0.257597
-0.330928
-0.400672
-0.466872
-0.529571
-0.588815
-0.644646
-0.697107
-0.74624
-0.792085
-0.834682
-0.874068
-0.910278
-0.943347
-0.973305
-1.00018
-1.024
-1.04479
-1.06257
-1.07736
-1.08918
-1.09802
-1.10392
-1.10686
6.62049
7.53428
8.36532
9.11835
9.79582
10.4018
10.9393
11.4129
11.8253
12.1796
12.48
12.7286
12.9282
13.0823
13.1942
13.266
13.2999
13.2986
13.2645
13.2003
13.1083
12.9903
12.8484
12.6843
12.5001
12.2974
12.078
11.8437
11.5958
11.3359
11.0654
10.7855
10.4976
10.2027
9.90195
9.59641
9.28706
8.97481
8.66052
8.345
8.02902
7.71327
7.39841
7.08505
6.77375
6.46504
6.15938
5.85723
5.55897
5.26499
4.97561
4.69112
4.41181
4.13791
3.86964
3.60718
3.35069
3.10032
2.85619
2.6184
2.38702
2.16213
1.94377
1.73197
1.52676
1.32814
1.1361
0.95063
0.77171
0.599304
0.433372
0.273867
0.120736
-0.0260778
-0.166637
-0.301008
-0.429257
-0.551456
-0.667677
-0.777991
-0.882474
-0.981197
-1.07423
-1.16165
-1.24353
-1.31992
-1.39091
-1.45654
-1.51688
-1.57199
-1.62191
-1.6667
-1.70639
-1.74104
-1.77067
-1.79531
-1.81499
-1.82974
-1.83956
-1.84447
9.26649
10.5459
11.7089
12.7625
13.7106
14.5587
15.3113
15.9742
16.5514
17.0473
17.4676
17.8155
18.095
18.3109
18.4674
18.5677
18.6152
18.6133
18.5658
18.476
18.3471
18.182
17.9833
17.7537
17.4958
17.2121
16.9051
16.577
16.2301
15.8663
15.4877
15.096
14.693
14.2802
13.8593
13.4317
12.9987
12.5616
12.1217
11.6801
11.2379
10.7959
10.3552
9.91662
9.48091
9.04882
8.621
8.19809
7.78064
7.36917
6.96413
6.56595
6.17501
5.79165
5.41616
5.0488
4.68981
4.33938
3.99768
3.66485
3.34101
3.02624
2.72061
2.42417
2.13694
1.85893
1.59014
1.33055
1.08013
0.838819
0.606571
0.383319
0.168989
-0.0365
-0.233235
-0.421307
-0.600812
-0.771848
-0.934517
-1.08892
-1.23516
-1.37334
-1.50356
-1.62591
-1.74051
-1.84744
-1.94679
-2.03865
-2.12311
-2.20024
-2.27011
-2.3328
-2.38836
-2.43685
-2.47832
-2.51281
-2.54037
-2.561
-2.57475
-2.58162
11.9097
13.5546
15.0498
16.4036
17.6221
18.7121
19.6795
20.5315
21.2733
21.9108
22.4509
22.8981
23.2574
23.535
23.736
23.8649
23.9259
23.9235
23.8624
23.7471
23.5814
23.3691
23.1137
22.8186
22.4871
22.1225
21.7279
21.3063
20.8604
20.3929
19.9062
19.4028
18.8848
18.3543
17.8132
17.2636
16.7071
16.1454
15.58
15.0124
14.4439
13.8759
13.3095
12.7457
12.1857
11.6304
11.0805
10.5369
10.0004
9.47152
8.95093
8.43916
7.93669
7.44395
6.96134
6.48918
6.02777
5.57737
5.13819
4.71041
4.29417
3.8896
3.49677
3.11576
2.74658
2.38927
2.0438
1.71015
1.38828
1.07813
0.779621
0.492677
0.2172
-0.0469132
-0.299775
-0.541502
-0.772218
-0.99205
-1.20113
-1.39958
-1.58754
-1.76514
-1.93251
-2.08977
-2.23706
-2.3745
-2.50219
-2.62026
-2.72881
-2.82795
-2.91775
-2.99832
-3.06974
-3.13206
-3.18536
-3.2297
-3.26511
-3.29164
-3.3093
-3.31813
14.5498
16.5594
18.3867
20.0406
21.5293
22.8609
24.0429
25.0837
25.9899
26.7688
27.4287
27.975
28.4141
28.7532
28.9988
29.1561
29.2306
29.2277
29.1532
29.0123
28.8099
28.5506
28.2385
27.8779
27.4729
27.0275
26.5454
26.0303
25.4856
24.9144
24.3198
23.7048
23.0719
22.4238
21.7628
21.0913
20.4114
19.7251
19.0343
18.3409
17.6464
16.9524
16.2604
15.5717
14.8875
14.209
13.5373
12.8732
12.2177
11.5715
10.9355
10.3103
9.69641
9.09442
8.5048
7.92795
7.36424
6.81398
6.27742
5.75479
5.24627
4.752
4.27208
3.80658
3.35556
2.91901
2.49695
2.08932
1.69609
1.31717
0.952478
0.601913
0.265358
-0.0573149
-0.366241
-0.661564
-0.943434
-1.21201
-1.46744
-1.70989
-1.93953
-2.1565
-2.36098
-2.55312
-2.73306
-2.90097
-3.05698
-3.20123
-3.33384
-3.45496
-3.56468
-3.66311
-3.75036
-3.8265
-3.89162
-3.94579
-3.98905
-4.02146
-4.04304
-4.05383
17.1865
19.5603
21.719
23.6727
25.4312
27.0041
28.4003
29.6297
30.7002
31.6203
32.3997
33.045
33.5638
33.9644
34.2543
34.4402
34.5281
34.5248
34.4368
34.2704
34.0313
33.7249
33.3563
32.9304
32.452
31.9258
31.3564
30.7479
30.1044
29.4298
28.7275
28.0009
27.2533
26.4877
25.707
24.9138
24.1106
23.3
22.484
21.6649
20.8446
20.0248
19.2074
18.3939
17.5857
16.7842
15.9907
15.2062
14.4319
13.6687
12.9174
12.1789
11.4537
10.7426
10.0462
9.36478
8.6989
8.04891
7.41511
6.79776
6.19708
5.61323
5.04633
4.49647
3.9637
3.44804
2.94948
2.46798
2.00348
1.55588
1.1251
0.711
0.313449
-0.0677024
-0.432616
-0.781462
-1.11442
-1.43166
-1.73339
-2.01978
-2.29104
-2.54734
-2.78887
-3.01583
-3.22839
-3.42673
-3.61101
-3.7814
-3.93805
-4.08111
-4.21072
-4.32699
-4.43005
-4.52
-4.59692
-4.6609
-4.712
-4.75028
-4.77578
-4.78852
19.8191
22.5565
25.0459
27.299
29.3268
31.1406
32.7507
34.1684
35.4029
36.464
37.3627
38.1069
38.7051
39.1671
39.5014
39.7157
39.8172
39.8134
39.7119
39.52
39.2443
38.891
38.4658
37.9746
37.423
36.8162
36.1596
35.4579
34.7159
33.9379
33.128
32.2901
31.428
30.5452
29.6448
28.7301
27.8039
26.8691
25.9282
24.9836
24.0376
23.0923
22.1496
21.2115
20.2795
19.3552
18.4402
17.5356
16.6426
15.7625
14.8961
14.0444
13.2082
12.3882
11.5851
10.7993
10.0314
9.28185
8.55097
7.83905
7.14636
6.47307
5.81933
5.18524
4.57086
3.97622
3.40129
2.84603
2.31037
1.79422
1.29744
0.819912
0.361464
-0.0780733
-0.498885
-0.901168
-1.28513
-1.65097
-1.99891
-2.32918
-2.64198
-2.93754
-3.21608
-3.4778
-3.72292
-3.95164
-4.16415
-4.36064
-4.54129
-4.70627
-4.85572
-4.98981
-5.10865
-5.21238
-5.30108
-5.37486
-5.43379
-5.47794
-5.50734
-5.52204
22.4468
25.5472
28.3667
30.9184
33.2151
35.2694
37.0931
38.6987
40.0968
41.2987
42.3165
43.1593
43.8369
44.3602
44.7388
44.9814
45.0964
45.0921
44.9773
44.7599
44.4477
44.0474
43.5659
43.0096
42.3848
41.6976
40.9538
40.1592
39.3188
38.4376
37.5203
36.5714
35.595
34.5951
33.5753
32.5393
31.4904
30.4316
29.3659
28.2961
27.2246
26.154
25.0864
24.0238
22.9683
21.9215
20.8851
19.8606
18.8492
17.8524
16.8712
15.9066
14.9595
14.0307
13.1211
12.2311
11.3614
10.5125
9.68471
8.87841
8.09387
7.33131
6.5909
5.87274
5.1769
4.50341
3.85225
3.22338
2.6167
2.03211
1.46947
0.928622
0.409389
-0.088425
-0.565031
-1.02065
-1.45552
-1.86987
-2.26394
-2.638
-2.99227
-3.32702
-3.64249
-3.93891
-4.21653
-4.47557
-4.71626
-4.9388
-5.14341
-5.33026
-5.49953
-5.65139
-5.78599
-5.90347
-6.00394
-6.0875
-6.15424
-6.20424
-6.23754
-6.25419
25.069
28.5316
31.6805
34.5303
37.0953
39.3896
41.4263
43.2194
44.7809
46.1232
47.2599
48.2011
48.9579
49.5423
49.9651
50.2361
50.3645
50.3597
50.2315
49.9888
49.64
49.193
48.6552
48.0339
47.3361
46.5686
45.738
44.8505
43.9119
42.9278
41.9034
40.8437
39.7532
38.6364
37.4976
36.3405
35.169
33.9866
32.7964
31.6016
30.405
29.2093
28.0169
26.8303
25.6514
24.4823
23.3249
22.1806
21.0512
19.9379
18.842
17.7647
16.707
15.6698
14.6539
13.66
12.6887
11.7406
10.8161
9.91558
9.03939
8.18775
7.36084
6.55879
5.78166
5.0295
4.30227
3.59993
2.92238
2.2695
1.64113
1.0371
0.457213
-0.0987548
-0.631037
-1.13988
-1.62555
-2.0883
-2.52842
-2.94617
-3.34183
-3.71568
-4.068
-4.39905
-4.7091
-4.9984
-5.26721
-5.51575
-5.74425
-5.95293
-6.14198
-6.31158
-6.46191
-6.59311
-6.70531
-6.79863
-6.87318
-6.92901
-6.96621
-6.98479
27.6851
31.509
34.9864
38.1336
40.9663
43.5
45.7492
47.7295
49.4539
50.9363
52.1916
53.231
54.0668
54.7122
55.1792
55.4784
55.6201
55.6149
55.4733
55.2053
54.8201
54.3264
53.7325
53.0463
52.2757
51.4282
50.5109
49.5308
48.4943
47.4075
46.2762
45.1058
43.9016
42.6683
41.4106
40.1328
38.839
37.5332
36.2188
34.8993
33.5778
32.2573
30.9406
29.6301
28.3282
27.0372
25.7589
24.4953
23.2479
22.0185
20.8083
19.6186
18.4505
17.305
16.183
15.0854
14.0128
12.9657
11.9448
10.9503
9.98267
9.04216
8.12896
7.24321
6.385
5.55434
4.75122
3.97559
3.22734
2.50632
1.81239
1.14533
0.504925
-0.10906
-0.696888
-1.25883
-1.79518
-2.30622
-2.79226
-3.25361
-3.69056
-4.10342
-4.49251
-4.85811
-5.20051
-5.52
-5.81686
-6.09133
-6.34368
-6.57414
-6.78291
-6.97022
-7.13623
-7.28112
-7.40503
-7.50809
-7.59041
-7.65208
-7.69315
-7.71368
30.2943
34.4785
38.2837
41.7275
44.8272
47.5997
50.0609
52.2278
54.1148
55.7369
57.1104
58.2478
59.1624
59.8686
60.3796
60.7069
60.8621
60.8564
60.7015
60.4082
59.9867
59.4464
58.7965
58.0457
57.2024
56.275
55.2713
54.1989
53.0647
51.8755
50.6375
49.3569
48.0391
46.6896
45.3133
43.9151
42.4995
41.0705
39.6323
38.1884
36.7424
35.2975
33.8566
32.4226
30.998
29.5853
28.1865
26.8038
25.439
24.0936
22.7694
21.4675
20.1893
18.9359
17.7082
16.5072
15.3334
14.1877
13.0705
11.9823
10.9235
9.89435
8.89508
7.92585
6.98675
6.07781
5.19901
4.35027
3.5315
2.74253
1.9832
1.25327
0.552512
-0.119339
-0.762567
-1.37747
-1.96437
-2.52357
-3.05542
-3.56024
-4.03838
-4.49015
-4.91591
-5.31596
-5.69064
-6.04024
-6.36507
-6.66542
-6.94155
-7.19372
-7.42217
-7.62713
-7.80879
-7.96733
-8.10292
-8.2157
-8.30578
-8.37325
-8.4182
-8.44066
32.896
37.4396
41.5716
45.3112
48.677
51.6876
54.3602
56.7132
58.7622
60.5237
62.0151
63.2502
64.2434
65.0102
65.5651
65.9206
66.089
66.0829
65.9147
65.5962
65.1385
64.5518
63.846
63.0307
62.115
61.108
60.0181
58.8536
57.622
56.3306
54.9864
53.5957
52.1648
50.6994
49.2049
47.6866
46.1494
44.5977
43.0359
41.4681
39.8979
38.3289
36.7643
35.2071
33.6602
32.1261
30.6073
29.1058
27.6237
26.1628
24.7248
23.3112
21.9232
20.5622
19.229
17.9248
16.6503
15.4062
14.193
13.0114
11.8616
10.7441
9.65901
8.60654
7.58679
6.59978
5.64551
4.72388
3.83479
2.97807
2.15352
1.3609
0.599962
-0.129588
-0.828058
-1.49577
-2.13307
-2.7403
-3.31783
-3.866
-4.3852
-4.87578
-5.33809
-5.77251
-6.17936
-6.55899
-6.91171
-7.23785
-7.5377
-7.81153
-8.0596
-8.28216
-8.47942
-8.65158
-8.79881
-8.92127
-9.01909
-9.09236
-9.14117
-9.16556
35.4896
40.3914
44.8492
48.8836
52.5149
55.7628
58.6461
61.1846
63.3952
65.2955
66.9045
68.237
69.3085
70.1358
70.7344
71.1179
71.2996
71.293
71.1116
70.768
70.2741
69.6412
68.8798
68.0002
67.0123
65.9259
64.7501
63.4937
62.165
60.7719
59.3217
57.8214
56.2776
54.6966
53.0844
51.4464
49.7879
48.1139
46.429
44.7375
43.0435
41.3508
39.6628
37.9829
36.3141
34.659
33.0204
31.4006
29.8016
28.2256
26.6742
25.1491
23.6517
22.1833
20.7451
19.3381
17.963
16.6208
15.312
14.0372
12.7968
11.5912
10.4205
9.2851
8.18495
7.12013
6.09061
5.09632
4.13713
3.21287
2.3233
1.4682
0.647264
-0.139806
-0.893345
-1.6137
-2.30125
-2.95636
-3.57941
-4.17081
-4.73094
-5.2602
-5.75896
-6.22763
-6.66655
-7.07611
-7.45665
-7.80851
-8.13199
-8.42741
-8.69504
-8.93515
-9.14796
-9.33369
-9.49253
-9.62465
-9.73018
-9.80923
-9.86188
-9.88819
38.0744
43.3333
48.1158
52.444
56.3397
59.8242
62.9176
65.6409
68.0125
70.0513
71.7775
73.207
74.3565
75.2441
75.8863
76.2977
76.4926
76.4856
76.2909
75.9223
75.3925
74.7135
73.8966
72.9529
71.8931
70.7275
69.4661
68.1182
66.6928
65.1982
63.6423
62.0327
60.3765
58.6804
56.9507
55.1934
53.4142
51.6183
49.8106
47.996
46.1786
44.3626
42.5517
40.7494
38.959
37.1834
35.4254
33.6876
31.9722
30.2814
28.617
26.9808
25.3744
23.799
22.2561
20.7465
19.2714
17.8314
16.4273
15.0596
13.7289
12.4354
11.1795
9.96137
8.78109
7.63871
6.53421
5.46751
4.43846
3.44687
2.49252
1.57513
0.694407
-0.149989
-0.958411
-1.73124
-2.46886
-3.17168
-3.84012
-4.47459
-5.07551
-5.64332
-6.17841
-6.68121
-7.15211
-7.59149
-7.99975
-8.37723
-8.72428
-9.04121
-9.32834
-9.58593
-9.81424
-10.0135
-10.1839
-10.3257
-10.4389
-10.5237
-10.5802
-10.6084
40.6499
46.2645
51.3704
55.9915
60.1507
63.8709
67.1735
70.081
72.613
74.7897
76.6327
78.1589
79.3862
80.3339
81.0194
81.4587
81.6668
81.6593
81.4515
81.0579
80.4923
79.7673
78.8951
77.8876
76.7561
75.5117
74.165
72.7259
71.2041
69.6083
67.9473
66.2288
64.4606
62.6497
60.803
58.9269
57.0273
55.1099
53.18
51.2425
49.3022
47.3634
45.43
43.5058
41.5942
39.6986
37.8217
35.9663
34.1349
32.3297
30.5527
28.8059
27.0907
25.4089
23.7615
22.1499
20.5749
19.0375
17.5385
16.0783
14.6575
13.2766
11.9357
10.6352
9.37507
8.15542
6.97621
5.83735
4.73869
3.68003
2.66112
1.68168
0.741378
-0.160135
-1.02324
-1.84834
-2.63586
-3.38622
-4.09987
-4.77726
-5.41884
-6.02505
-6.59634
-7.13314
-7.63589
-8.105
-8.54087
-8.94389
-9.31441
-9.65278
-9.95933
-10.2343
-10.4781
-10.6908
-10.8728
-11.0241
-11.145
-11.2355
-11.2958
-11.326
43.2153
49.1843
54.6124
59.5251
63.9468
67.9018
71.4128
74.5038
77.1957
79.5098
81.469
83.0915
84.3963
85.4038
86.1326
86.5995
86.8208
86.8128
86.5919
86.1735
85.5721
84.8014
83.8742
82.8031
81.6002
80.2773
78.8456
77.3157
75.6978
74.0014
72.2354
70.4085
68.5287
66.6036
64.6403
62.6458
60.6263
58.5878
56.5362
54.4765
52.4137
50.3525
48.2971
46.2514
44.2193
42.204
40.2086
38.2361
36.2891
34.37
32.4809
30.6238
28.8004
27.0124
25.2611
23.5478
21.8734
20.239
18.6453
17.093
15.5826
14.1145
12.689
11.3064
9.96673
8.67011
7.41648
6.20574
5.03774
3.91227
2.82906
1.78781
0.788166
-0.170241
-1.08782
-1.96499
-2.80221
-3.59993
-4.35862
-5.07876
-5.76082
-6.40529
-7.01263
-7.58332
-8.1178
-8.61651
-9.07989
-9.50834
-9.90224
-10.262
-10.5879
-10.8802
-11.1394
-11.3655
-11.559
-11.7198
-11.8483
-11.9446
-12.0087
-12.0408
45.7701
52.0919
57.841
63.0441
67.7272
71.9159
75.6346
78.9082
81.7592
84.2102
86.2852
88.0036
89.3856
90.4526
91.2245
91.719
91.9534
91.9449
91.711
91.2678
90.6309
89.8146
88.8326
87.6981
86.4241
85.023
83.5067
81.8864
80.1728
78.3761
76.5058
74.5709
72.5799
70.541
68.4617
66.3492
64.2103
62.0514
59.8784
57.6969
55.5122
53.3292
51.1522
48.9857
46.8334
44.6989
42.5856
40.4966
38.4345
36.4019
34.4011
32.4342
30.503
28.6093
26.7545
24.9398
23.1665
21.4355
19.7476
18.1035
16.5038
14.9489
13.4391
11.9748
10.5559
9.18266
7.85492
6.57261
5.33556
4.14355
2.99631
1.8935
0.83476
-0.180305
-1.15213
-2.08116
-2.96787
-3.81274
-4.61629
-5.379
-6.10138
-6.78395
-7.4272
-8.03162
-8.5977
-9.12589
-9.61667
-10.0704
-10.4876
-10.8686
-11.2138
-11.5234
-11.7979
-12.0374
-12.2423
-12.4127
-12.5488
-12.6507
-12.7186
-12.7526
48.3136
54.9867
61.0552
66.5474
71.4908
75.9123
79.8376
83.2932
86.3027
88.8898
91.0801
92.894
94.3528
95.4791
96.2939
96.8159
97.0633
97.0544
96.8074
96.3397
95.6673
94.8056
93.769
92.5715
91.2268
89.7478
88.1472
86.4369
84.6281
82.7315
80.7573
78.7148
76.6133
74.461
72.2661
70.0363
67.7785
65.4996
63.2059
60.9032
58.5971
56.2927
53.9948
51.7078
49.4359
47.1829
44.9521
42.747
40.5703
38.4247
36.3128
34.2366
32.1981
30.1991
28.2412
26.3257
24.4539
22.6266
20.8449
19.1095
17.4209
15.7796
14.186
12.6402
11.1425
9.69294
8.29142
6.93785
5.63206
4.37381
3.16281
1.99872
0.881148
-0.190325
-1.21615
-2.19681
-3.13279
-4.02462
-4.87281
-5.67791
-6.44044
-7.16094
-7.83993
-8.47794
-9.07548
-9.63303
-10.1511
-10.6301
-11.0704
-11.4726
-11.8369
-12.1638
-12.4535
-12.7064
-12.9226
-13.1025
-13.2461
-13.3537
-13.4254
-13.4612
50.8451
57.8679
64.2544
70.0344
75.2368
79.89
84.021
87.6576
90.8248
93.5475
95.8525
97.7615
99.2967
100.482
101.34
101.889
102.149
102.14
101.88
101.388
100.68
99.7733
98.6823
97.4221
96.0069
94.4504
92.766
90.966
89.0625
87.0665
84.9888
82.8394
80.6277
78.3626
76.0528
73.7061
71.33
68.9317
66.5178
64.0944
61.6675
59.2423
56.824
54.4172
52.0263
49.6552
47.3076
44.9868
42.6961
40.4381
38.2155
36.0305
33.8852
31.7815
29.721
27.7052
25.7352
23.8122
21.9372
20.1108
18.3337
16.6064
14.9293
13.3025
11.7264
10.2008
8.72587
7.30138
5.92717
4.60299
3.32854
2.10345
0.927318
-0.200298
-1.27988
-2.31192
-3.29695
-4.2355
-5.12814
-5.97542
-6.77791
-7.53616
-8.25073
-8.92217
-9.55101
-10.1378
-10.683
-11.1871
-11.6505
-12.0738
-12.4572
-12.8012
-13.1061
-13.3722
-13.5997
-13.789
-13.9402
-14.0534
-14.1289
-14.1666
53.3641
60.7348
67.4378
73.5041
78.9642
83.848
88.1836
92.0004
95.3245
98.1821
100.601
102.605
104.216
105.46
106.36
106.937
107.21
107.2
106.927
106.411
105.668
104.716
103.571
102.249
100.763
99.1298
97.3618
95.4727
93.4749
91.3801
89.1994
86.9435
84.6222
82.2449
79.8206
77.3577
74.8639
72.3468
69.8132
67.2698
64.7227
62.1774
59.6392
57.1132
54.6038
52.1152
49.6513
47.2156
44.8114
42.4415
40.1088
37.8156
35.564
33.3561
31.1935
29.0778
27.0102
24.992
23.024
21.1071
19.242
17.4291
15.6689
13.9616
12.3073
10.7062
9.15818
7.66311
6.22082
4.83104
3.49344
2.20766
0.97326
-0.210222
-1.34328
-2.42646
-3.46028
-4.44534
-5.3822
-6.27146
-7.1137
-7.90952
-8.6595
-9.3642
-10.0242
-10.64
-11.2122
-11.7413
-12.2277
-12.6719
-13.0743
-13.4354
-13.7554
-14.0346
-14.2735
-14.4722
-14.6308
-14.7497
-14.8289
-14.8684
55.87
63.5868
70.6045
76.9557
82.6722
87.7853
92.3245
96.3205
99.8007
102.792
105.325
107.423
109.11
110.412
111.355
111.958
112.244
112.234
111.948
111.408
110.63
109.633
108.435
107.05
105.495
103.785
101.934
99.9559
97.8642
95.671
93.388
91.0261
88.5958
86.107
83.5688
80.9902
78.3793
75.744
73.0915
70.4287
67.7619
65.097
62.4397
59.7951
57.1679
54.5624
51.9828
49.4327
46.9156
44.4345
41.9922
39.5913
37.234
34.9224
32.6582
30.4432
28.2785
26.1655
24.1052
22.0983
20.1456
18.2476
16.4047
14.6172
12.8853
11.2089
9.58822
8.02295
6.51293
5.05789
3.65749
2.31133
1.01896
-0.220094
-1.40636
-2.5404
-3.62277
-4.65408
-5.63494
-6.56595
-7.44775
-8.28093
-9.06612
-9.80392
-10.4949
-11.1397
-11.7387
-12.2926
-12.8019
-13.267
-13.6883
-14.0663
-14.4013
-14.6937
-14.9437
-15.1517
-15.3179
-15.4423
-15.5252
-15.5666
58.362
66.423
73.7537
80.3882
86.3598
91.7009
96.4426
100.617
104.252
107.377
110.023
112.214
113.977
115.337
116.321
116.952
117.251
117.24
116.942
116.377
115.565
114.524
113.271
111.825
110.2
108.414
106.48
104.414
102.229
99.9384
97.5535
95.0863
92.5476
89.9477
87.2964
84.6027
81.8754
79.1225
76.3517
73.5701
70.7843
68.0007
65.2248
62.4622
59.7178
56.9961
54.3015
51.6377
49.0082
46.4165
43.8652
41.3572
38.8948
36.4801
34.115
31.8011
29.5399
27.3326
25.1804
23.084
21.0441
19.0615
17.1364
15.2692
13.46
11.7089
10.0159
8.38081
6.80344
5.28349
3.82063
2.41442
1.06441
-0.229911
-1.46909
-2.65371
-3.78436
-4.86168
-5.88628
-6.85882
-7.77995
-8.6503
-9.47051
-10.2412
-10.963
-11.6365
-12.2623
-12.8409
-13.3729
-13.8587
-14.2988
-14.6937
-15.0436
-15.3491
-15.6103
-15.8276
-16.0011
-16.1311
-16.2177
-16.2609
60.8397
69.2429
76.8848
83.801
90.026
95.5939
100.537
104.888
108.678
111.936
114.694
116.978
118.815
120.234
121.26
121.917
122.228
122.217
121.906
121.317
120.471
119.386
118.08
116.572
114.879
113.016
111.001
108.847
106.569
104.181
101.695
99.123
96.4766
93.7663
91.0024
88.1944
85.3512
82.4815
79.5931
76.6934
73.7894
70.8875
67.9938
65.114
62.253
59.4158
56.6067
53.8298
51.0888
48.387
45.7275
43.113
40.546
38.0288
35.5632
33.1511
30.7939
28.493
26.2493
24.0639
21.9375
19.8707
17.8639
15.9174
14.0314
12.206
10.4411
8.7366
7.09226
5.5078
3.98282
2.51692
1.1096
-0.239672
-1.53146
-2.76637
-3.94502
-5.06807
-6.13617
-7.15
-8.11023
-9.01753
-9.87257
-10.676
-11.4284
-12.1305
-12.7829
-13.3861
-13.9406
-14.4471
-14.9059
-15.3175
-15.6823
-16.0007
-16.273
-16.4995
-16.6804
-16.8159
-16.9062
-16.9513
63.3023
72.0457
79.9969
87.193
93.67
99.4633
104.606
109.134
113.077
116.467
119.337
121.713
123.625
125.101
126.168
126.852
127.176
127.164
126.841
126.228
125.347
124.218
122.86
121.291
119.529
117.591
115.494
113.253
110.883
108.398
105.811
103.135
100.382
97.5617
94.6859
91.7643
88.8061
85.8202
82.8148
79.7977
76.7762
73.7569
70.7461
67.7496
64.7729
61.8208
58.898
56.0087
53.1567
50.3456
47.5784
44.8581
42.1872
39.5681
37.0027
34.493
32.0404
29.6463
27.3118
25.038
22.8255
20.675
18.587
16.5617
14.5994
12.7001
10.8637
9.09023
7.37934
5.73074
4.14404
2.6188
1.15451
-0.249374
-1.59345
-2.87834
-4.10471
-5.27321
-6.38455
-7.43942
-8.43851
-9.38254
-10.2722
-11.1081
-11.891
-12.6216
-13.3003
-13.9279
-14.5049
-15.0318
-15.5092
-15.9375
-16.3171
-16.6484
-16.9317
-17.1673
-17.3556
-17.4966
-17.5905
-17.6374
65.7493
74.8307
83.0893
90.5636
97.291
103.308
108.65
113.353
117.448
120.969
123.95
126.418
128.404
129.936
131.045
131.755
132.092
132.08
131.744
131.107
130.192
129.02
127.609
125.979
124.149
122.137
119.958
117.631
115.169
112.588
109.902
107.122
104.262
101.333
98.3461
95.3115
92.239
89.1376
86.0161
82.8824
79.744
76.608
73.4808
70.3685
67.2767
64.2106
61.1748
58.1738
55.2116
52.2917
49.4176
46.5921
43.818
41.0976
38.4331
35.8264
33.279
30.7923
28.3676
26.0059
23.7079
21.4742
19.3055
17.2019
15.1637
13.191
11.2837
9.44163
7.6646
5.95226
4.30423
2.72003
1.19914
-0.259014
-1.65505
-2.98961
-4.26338
-5.47706
-6.63135
-7.727
-8.76471
-9.74523
-10.6693
-11.5375
-12.3507
-13.1095
-13.8145
-14.4663
-15.0656
-15.6129
-16.1087
-16.5536
-16.9478
-17.2919
-17.5862
-17.831
-18.0265
-18.1729
-18.2705
-18.3192
68.1801
77.5972
86.1612
93.9118
100.888
107.128
112.667
117.543
121.79
125.441
128.532
131.092
133.151
134.74
135.89
136.627
136.976
136.963
136.615
135.955
135.006
133.79
132.327
130.637
128.739
126.652
124.393
121.98
119.427
116.751
113.965
111.083
108.117
105.079
101.982
98.8352
95.6491
92.4331
89.1962
85.9466
82.6922
79.4403
76.1975
72.9701
69.764
66.5845
63.4365
60.3245
57.2528
54.225
51.2446
48.3147
45.438
42.617
39.854
37.1509
34.5093
31.9307
29.4164
26.9673
24.5844
22.2682
20.0192
17.8379
15.7243
13.6787
11.7008
9.79069
7.94796
6.17232
4.46336
2.82059
1.24347
-0.26859
-1.71624
-3.10014
-4.421
-5.67955
-6.87652
-8.01267
-9.08875
-10.1055
-11.0637
-11.9641
-12.8073
-13.5941
-14.3252
-15.0011
-15.6226
-16.1901
-16.7043
-17.1656
-17.5744
-17.9312
-18.2364
-18.4902
-18.6929
-18.8448
-18.9459
-18.9965
70.5941
80.3446
89.2118
97.2368
104.46
110.92
116.656
121.705
126.102
129.883
133.083
135.733
137.865
139.511
140.701
141.464
141.825
141.812
141.452
140.768
139.786
138.527
137.012
135.262
133.297
131.136
128.798
126.299
123.656
120.885
118
115.015
111.945
108.8
105.593
102.335
99.0356
95.7058
92.3543
88.9896
85.62
82.2529
78.8953
75.5537
72.2341
68.942
65.6825
62.4604
59.2799
56.1449
53.0589
50.0253
47.0468
44.1259
41.2651
38.4662
35.7311
33.0613
30.4579
27.9221
25.4548
23.0566
20.728
18.4694
16.2811
14.163
12.1151
10.1373
8.22936
6.39086
4.62139
2.92046
1.2875
-0.2781
-1.777
-3.2099
-4.57753
-5.88063
-7.11999
-8.29637
-9.41055
-10.4633
-11.4554
-12.3877
-13.2608
-14.0754
-14.8324
-15.5323
-16.1757
-16.7634
-17.2957
-17.7733
-18.1966
-18.5661
-18.8821
-19.1449
-19.3548
-19.512
-19.6167
-19.6691
72.9907
83.0722
92.2404
100.538
108.006
114.686
120.616
125.837
130.383
134.292
137.601
140.341
142.545
144.247
145.478
146.266
146.64
146.627
146.254
145.547
144.531
143.229
141.663
139.854
137.823
135.588
133.17
130.586
127.854
124.988
122.006
118.92
115.745
112.493
109.178
105.809
102.398
98.9549
95.4895
92.0107
88.5267
85.0453
81.5737
78.1186
74.6863
71.2824
67.9123
64.5808
61.2923
58.0509
54.8602
51.7236
48.6439
45.6239
42.666
39.7721
36.9442
34.1836
31.4919
28.87
26.3189
23.8393
21.4317
19.0964
16.8338
14.6438
12.5264
10.4815
8.50874
6.60782
4.77828
3.0196
1.33121
-0.287541
-1.83733
-3.31887
-4.73293
-6.08027
-7.3617
-8.57801
-9.73002
-10.8185
-11.8443
-12.8082
-13.7109
-14.5533
-15.3359
-16.0596
-16.7249
-17.3325
-17.8829
-18.3767
-18.8144
-19.1964
-19.5231
-19.7948
-20.0118
-20.1744
-20.2827
-20.3368
75.3692
85.7793
95.2462
103.814
111.526
118.423
124.547
129.937
134.632
138.668
142.085
144.915
147.191
148.948
150.219
151.033
151.419
151.405
151.02
150.29
149.241
147.897
146.28
144.412
142.314
140.007
137.51
134.842
132.02
129.061
125.982
122.795
119.517
116.159
112.735
109.257
105.735
102.18
98.6013
95.0091
91.4115
87.8167
84.2319
80.6643
77.1201
73.6053
70.1254
66.6853
63.2897
59.9426
56.6479
53.4091
50.2291
47.1107
44.0563
41.0682
38.148
35.2976
32.5181
29.8108
27.1766
24.6162
22.1301
19.7187
17.3823
15.121
12.9346
10.823
8.78601
6.82315
4.93399
3.118
1.37459
-0.296911
-1.8972
-3.42702
-4.88716
-6.27841
-7.6016
-8.85755
-10.0471
-11.1711
-12.2303
-13.2256
-14.1577
-15.0275
-15.8357
-16.5829
-17.2699
-17.8973
-18.4656
-18.9755
-19.4275
-19.8219
-20.1593
-20.4398
-20.664
-20.8318
-20.9436
-20.9995
77.7292
88.4652
98.2286
107.065
115.018
122.131
128.447
134.006
138.848
143.01
146.534
149.452
151.799
153.612
154.922
155.762
156.16
156.146
155.748
154.996
153.914
152.528
150.86
148.933
146.77
144.391
141.815
139.064
136.154
133.103
129.926
126.64
123.259
119.796
116.265
112.678
109.045
105.379
101.689
97.984
94.2738
90.5664
86.8694
83.19
79.5349
75.91
72.3211
68.7734
65.2714
61.8195
58.4217
55.0814
51.8018
48.5858
45.4358
42.3541
39.3425
36.4028
33.5363
30.7442
28.0275
25.3869
22.823
20.3362
17.9266
15.5945
13.3396
11.1619
9.06112
7.03679
5.08848
3.21563
1.41763
-0.306208
-1.9566
-3.53433
-5.04019
-6.475
-7.83962
-9.13489
-10.3617
-11.5209
-12.6133
-13.6397
-14.6011
-15.4981
-16.3315
-17.1021
-17.8106
-18.4577
-19.0438
-19.5697
-20.0358
-20.4426
-20.7905
-21.0799
-21.311
-21.4841
-21.5994
-21.6571
80.0699
91.1293
101.187
110.289
118.482
125.809
132.315
138.042
143.029
147.317
150.947
153.953
156.371
158.237
159.588
160.453
160.863
160.848
160.439
159.664
158.549
157.121
155.403
153.418
151.19
148.739
146.086
143.252
140.254
137.111
133.839
130.454
126.971
123.404
119.767
116.071
112.329
108.552
104.751
100.935
97.1128
93.2937
89.4854
85.6953
81.93
78.196
74.4991
70.8444
67.237
63.6812
60.181
56.7402
53.3618
50.0489
46.8041
43.6296
40.5273
37.4991
34.5463
31.6701
28.8716
26.1515
23.5103
20.9486
18.4665
16.0641
13.7413
11.4981
9.33399
7.2487
5.24172
3.31247
1.46032
-0.31543
-2.01553
-3.64076
-5.19197
-6.66999
-8.0757
-9.40998
-10.6737
-11.8678
-12.9931
-14.0505
-15.0408
-15.9648
-16.8233
-17.6172
-18.347
-19.0135
-19.6173
-20.159
-20.6392
-21.0582
-21.4166
-21.7147
-21.9527
-22.1311
-22.2499
-22.3092
82.391
93.7709
104.12
113.486
121.916
129.456
136.15
142.043
147.175
151.587
155.322
158.415
160.903
162.824
164.214
165.104
165.526
165.511
165.089
164.292
163.145
161.676
159.908
157.866
155.572
153.05
150.321
147.404
144.32
141.085
137.719
134.236
130.652
126.981
123.238
119.436
115.585
111.699
107.787
103.861
99.9278
95.9981
92.0794
88.1793
84.305
80.4627
76.6586
72.898
69.186
65.5271
61.9255
58.3849
54.9086
51.4997
48.1608
44.8943
41.7021
38.5861
35.5477
32.5881
29.7085
26.9095
24.1918
21.5558
19.0018
16.5297
14.1397
11.8314
9.60456
7.45882
5.39366
3.40849
1.50265
-0.324574
-2.07395
-3.7463
-5.34247
-6.86334
-8.3098
-9.68276
-10.9831
-12.2118
-13.3697
-14.4578
-15.4767
-16.4276
-17.311
-18.1278
-18.8788
-19.5647
-20.186
-20.7434
-21.2374
-21.6686
-22.0374
-22.3441
-22.5891
-22.7726
-22.8948
-22.9559
84.6917
96.3893
107.027
116.655
125.32
133.071
139.952
146.009
151.285
155.82
159.659
162.839
165.397
167.371
168.799
169.714
170.148
170.132
169.699
168.88
167.701
166.19
164.373
162.274
159.917
157.324
154.518
151.52
148.35
145.025
141.564
137.984
134.3
130.527
126.68
122.771
118.813
114.818
110.797
106.761
102.718
98.6787
94.6506
90.6417
86.6591
82.7096
78.7992
74.9336
71.118
67.3569
63.6547
60.0152
56.4419
52.9378
49.5057
46.1479
42.8666
39.6635
36.5403
33.4981
30.5381
27.6609
24.8674
22.1578
19.5324
16.9913
14.5345
12.1617
9.87275
7.6671
5.54427
3.50367
1.54461
-0.333637
-2.13187
-3.85091
-5.49165
-7.05499
-8.54184
-9.95314
-11.2898
-12.5528
-13.7431
-14.8615
-15.9089
-16.8863
-17.7944
-18.634
-19.406
-20.111
-20.7497
-21.3226
-21.8305
-22.2737
-22.6528
-22.968
-23.2199
-23.4085
-23.5342
-23.597
86.9714
98.984
109.908
119.795
128.694
136.653
143.719
149.94
155.357
160.015
163.957
167.223
169.849
171.877
173.343
174.282
174.728
174.712
174.268
173.426
172.215
170.664
168.798
166.642
164.221
161.559
158.678
155.599
152.343
148.929
145.375
141.698
137.915
134.041
130.09
126.076
122.011
117.909
113.78
109.635
105.483
101.335
97.1985
93.0816
88.9919
84.936
80.9204
76.9507
73.0324
69.1701
65.3682
61.6308
57.9613
54.3628
50.8383
47.3901
44.0205
40.7312
37.5239
34.3998
31.3601
28.4055
25.5368
22.7542
20.0582
17.4487
14.9257
12.4891
10.1385
7.87349
5.69352
3.59798
1.58619
-0.342619
-2.18925
-3.95457
-5.63948
-7.2449
-8.77177
-10.2211
-11.5937
-12.8907
-14.113
-15.2615
-16.3372
-17.3408
-18.2734
-19.1356
-19.9284
-20.6523
-21.3082
-21.8966
-22.4181
-22.8733
-23.2626
-23.5863
-23.8449
-24.0386
-24.1677
-24.2322
89.2298
101.554
112.762
122.906
132.036
140.202
147.451
153.833
159.391
164.17
168.215
171.565
174.259
176.34
177.844
178.808
179.265
179.249
178.793
177.929
176.687
175.095
173.181
170.969
168.486
165.754
162.798
159.639
156.299
152.796
149.15
145.378
141.496
137.521
133.468
129.349
125.179
120.971
116.734
112.481
108.222
103.966
99.7224
95.4986
91.3026
87.1415
83.0216
78.9489
74.9288
70.9662