/*--------------------------------*- C++ -*----------------------------------*\
| =========                 |                                                 |
| \\      /  F ield         | OpenFOAM: The Open Source CFD Toolbox           |
|  \\    /   O peration     | Version:  2406                                  |
|   \\  /    A nd           | Website:  www.openfoam.com                      |
|    \\/     M anipulation  |                                                 |
\*---------------------------------------------------------------------------*/
FoamFile
{
    version     2.0;
    format      ascii;
    arch        "LSB;label=32;scalar=64";
    class       volScalarField;
    location    "195";
    object      gradTy;
}
// * * * * * * * * * * * * * * * * * * * * * * * * * * * * * * * * * * * * * //

dimensions      [0 -1 0 1 0 0 0];

internalField   nonuniform List<scalar> 
20000
(
-128.849
-125.786
-122.198
-118.159
-113.74
-109.006
-104.015
-98.8237
-93.4813
-88.0347
-82.5256
-76.9916
-71.4669
-65.9821
-60.5646
-55.2386
-50.0253
-44.9432
-40.0079
-35.233
-30.6296
-26.2068
-21.9721
-17.9308
-14.0869
-10.443
-7.00022
-3.75853
-0.71688
2.12675
4.77524
7.2322
9.50188
11.5891
13.4992
15.2379
16.8111
18.2253
19.4869
20.6026
21.5791
22.4233
23.142
23.7421
24.2302
24.6132
24.8975
25.0895
25.1957
25.2219
25.1743
25.0585
24.88
24.6441
24.356
24.0203
23.6419
23.225
22.7738
22.2922
21.784
21.2525
20.7011
20.1328
19.5504
18.9566
18.3536
17.7438
17.1291
16.5114
15.8925
15.2737
14.6564
14.0419
13.4311
12.8249
12.2242
11.6296
11.0416
10.4607
9.88705
9.32099
8.76261
8.21196
7.66899
7.13358
6.60556
6.08467
5.57061
5.06301
4.56148
4.06555
3.57475
3.08855
2.60639
2.1277
1.65187
1.17829
0.706328
0.235335
-128.817
-125.755
-122.168
-118.13
-113.712
-108.979
-103.99
-98.7992
-93.4583
-88.0131
-82.5052
-76.9725
-71.4492
-65.9657
-60.5496
-55.225
-50.013
-44.9321
-39.9981
-35.2243
-30.622
-26.2004
-21.9666
-17.9264
-14.0835
-10.4404
-6.99849
-3.7576
-0.716701
2.12623
4.77407
7.23042
9.49954
11.5863
13.4959
15.2341
16.807
18.2208
19.4821
20.5975
21.5738
22.4178
23.1363
23.7362
24.2243
24.6071
24.8913
25.0833
25.1894
25.2157
25.1681
25.0523
24.8739
24.6381
24.35
24.0144
23.636
23.2192
22.7681
22.2867
21.7786
21.2473
20.696
20.1279
19.5456
18.9519
18.3491
17.7394
17.1249
16.5074
15.8885
15.2699
14.6528
14.0384
13.4278
12.8218
12.2212
11.6268
11.0389
10.4581
9.88461
9.31869
8.76045
8.20993
7.6671
7.13182
6.60393
6.08317
5.56923
5.06176
4.56035
4.06455
3.57387
3.08779
2.60575
2.12718
1.65147
1.178
0.706154
0.235276
-128.754
-125.693
-122.107
-118.072
-113.656
-108.925
-103.938
-98.7504
-93.4123
-87.9697
-82.4645
-76.9345
-71.4138
-65.9331
-60.5197
-55.1978
-49.9884
-44.91
-39.9783
-35.2069
-30.6069
-26.1874
-21.9558
-17.9175
-14.0765
-10.4353
-6.99503
-3.75574
-0.716346
2.12518
4.77171
7.22685
9.49485
11.5805
13.4892
15.2266
16.7987
18.2118
19.4725
20.5873
21.5631
22.4067
23.1249
23.7245
24.2123
24.595
24.879
25.071
25.177
25.2033
25.1557
25.04
24.8616
24.6259
24.3379
24.0026
23.6244
23.2078
22.7569
22.2757
21.7678
21.2368
20.6858
20.1179
19.536
18.9425
18.34
17.7306
17.1164
16.4992
15.8807
15.2624
14.6456
14.0315
13.4211
12.8154
12.2152
11.621
11.0335
10.4529
9.87973
9.31409
8.75612
8.20588
7.66331
7.1283
6.60067
6.08016
5.56648
5.05926
4.5581
4.06254
3.57211
3.08626
2.60446
2.12613
1.65065
1.17742
0.705806
0.23516
-128.658
-125.6
-122.017
-117.984
-113.572
-108.844
-103.861
-98.6774
-93.3432
-87.9046
-82.4034
-76.8775
-71.3609
-65.8843
-60.4749
-55.1569
-49.9514
-44.8767
-39.9487
-35.1809
-30.5842
-26.1681
-21.9395
-17.9042
-14.0661
-10.4276
-6.98985
-3.75296
-0.715811
2.12361
4.76818
7.2215
9.48782
11.572
13.4792
15.2153
16.7863
18.1983
19.458
20.5721
21.5472
22.3901
23.1078
23.7069
24.1944
24.5768
24.8606
25.0524
25.1584
25.1846
25.1371
25.0214
24.8432
24.6077
24.3199
23.9848
23.6069
23.1906
22.7401
22.2592
21.7517
21.2211
20.6705
20.103
19.5215
18.9285
18.3264
17.7175
17.1037
16.487
15.8689
15.2511
14.6347
14.0211
13.4112
12.806
12.2062
11.6124
11.0253
10.4452
9.87241
9.30719
8.74964
8.1998
7.65764
7.12302
6.59578
6.07566
5.56236
5.05552
4.55472
4.05954
3.56946
3.08398
2.60254
2.12455
1.64943
1.17655
0.705283
0.234986
-128.532
-125.476
-121.896
-117.868
-113.46
-108.737
-103.759
-98.5799
-93.251
-87.8178
-82.322
-76.8015
-71.2904
-65.8192
-60.4152
-55.1024
-49.902
-44.8324
-39.9093
-35.1461
-30.554
-26.1422
-21.9179
-17.8865
-14.0522
-10.4172
-6.98294
-3.74925
-0.715101
2.12152
4.76348
7.21437
9.47846
11.5605
13.4659
15.2003
16.7697
18.1804
19.4388
20.5517
21.5259
22.368
23.0849
23.6835
24.1705
24.5525
24.8361
25.0277
25.1335
25.1597
25.1122
24.9967
24.8186
24.5834
24.2959
23.9611
23.5836
23.1677
22.7176
22.2372
21.7302
21.2001
20.6501
20.0832
19.5022
18.9098
18.3083
17.7
17.0868
16.4707
15.8533
15.236
14.6203
14.0072
13.3979
12.7933
12.1941
11.6009
11.0144
10.4349
9.86266
9.29799
8.741
8.1917
7.65007
7.11599
6.58927
6.06966
5.55686
5.05052
4.55022
4.05553
3.56594
3.08093
2.59996
2.12245
1.6478
1.17539
0.704586
0.234754
-128.373
-125.321
-121.746
-117.722
-113.32
-108.602
-103.63
-98.4581
-93.1357
-87.7092
-82.2203
-76.7066
-71.2023
-65.7379
-60.3406
-55.0344
-49.8404
-44.777
-39.86
-35.1027
-30.5163
-26.1099
-21.8908
-17.8644
-14.0348
-10.4044
-6.97431
-3.74461
-0.714214
2.1189
4.75759
7.20546
9.46675
11.5463
13.4493
15.1815
16.749
18.1579
19.4148
20.5264
21.4993
22.3404
23.0564
23.6543
24.1406
24.5221
24.8054
24.9967
25.1025
25.1287
25.0812
24.9658
24.788
24.553
24.2659
23.9315
23.5544
23.1391
22.6895
22.2097
21.7034
21.1739
20.6246
20.0584
19.4781
18.8864
18.2857
17.6781
17.0657
16.4504
15.8337
15.2172
14.6022
13.9899
13.3814
12.7775
12.179
11.5866
11.0008
10.422
9.85047
9.28651
8.7302
8.18158
7.64062
7.1072
6.58112
6.06216
5.55
5.04428
4.5446
4.05051
3.56153
3.07713
2.59675
2.11983
1.64576
1.17394
0.703716
0.234464
-128.182
-125.135
-121.565
-117.547
-113.151
-108.441
-103.477
-98.312
-92.9975
-87.5791
-82.0983
-76.5928
-71.0967
-65.6404
-60.251
-54.9527
-49.7665
-44.7106
-39.8009
-35.0506
-30.471
-26.0712
-21.8583
-17.8379
-14.014
-10.3889
-6.96396
-3.73905
-0.713151
2.11576
4.75054
7.19477
9.4527
11.5291
13.4293
15.159
16.7241
18.1309
19.386
20.4959
21.4674
22.3072
23.0222
23.6192
24.1048
24.4858
24.7686
24.9596
25.0652
25.0914
25.044
24.9288
24.7512
24.5165
24.2299
23.896
23.5195
23.1047
22.6559
22.1768
21.6712
21.1425
20.594
20.0286
19.4492
18.8584
18.2586
17.6519
17.0404
16.426
15.8102
15.1946
14.5805
13.9692
13.3615
12.7585
12.161
11.5694
10.9845
10.4065
9.83586
9.27273
8.71724
8.16944
7.62928
7.09665
6.57136
6.05317
5.54176
5.0368
4.53786
4.0445
3.55624
3.07256
2.5929
2.11669
1.64332
1.17219
0.702671
0.234116
-127.96
-124.918
-121.354
-117.344
-112.955
-108.253
-103.297
-98.1417
-92.8364
-87.4273
-81.956
-76.4601
-70.9735
-65.5266
-60.1467
-54.8575
-49.6803
-44.6331
-39.7319
-34.9899
-30.4182
-26.026
-21.8204
-17.807
-13.9897
-10.3709
-6.95189
-3.73257
-0.711912
2.1121
4.74231
7.18231
9.43633
11.5092
13.4061
15.1327
16.6951
18.0995
19.3524
20.4604
21.4302
22.2686
22.9823
23.5782
24.063
24.4433
24.7257
24.9164
25.0218
25.0479
25.0006
24.8856
24.7083
24.4741
24.1879
23.8546
23.4787
23.0647
22.6166
22.1384
21.6336
21.1059
20.5583
19.9939
19.4155
18.8257
18.2269
17.6213
17.0109
16.3975
15.7828
15.1683
14.5553
13.945
13.3384
12.7364
12.1399
11.5494
10.9654
10.3885
9.81881
9.25666
8.70214
8.15529
7.61606
7.08435
6.55997
6.04268
5.53216
5.02807
4.53
4.0375
3.55008
3.06724
2.58841
2.11302
1.64047
1.17016
0.701454
0.23371
-127.706
-124.67
-121.114
-117.111
-112.731
-108.039
-103.093
-97.9471
-92.6523
-87.254
-81.7935
-76.3085
-70.8328
-65.3968
-60.0274
-54.7488
-49.5818
-44.5447
-39.6532
-34.9205
-30.3579
-25.9744
-21.7772
-17.7717
-13.962
-10.3504
-6.9381
-3.72517
-0.710497
2.10791
4.73291
7.16807
9.41762
11.4863
13.3795
15.1027
16.662
18.0637
19.3141
20.4198
21.3877
22.2244
22.9368
23.5315
24.0153
24.3949
24.6766
24.867
24.9722
24.9982
24.951
24.8362
24.6593
24.4255
24.1399
23.8073
23.4322
23.019
22.5718
22.0945
21.5907
21.064
20.5175
19.9543
19.377
18.7884
18.1908
17.5864
16.9772
16.365
15.7515
15.1382
14.5264
13.9173
13.3119
12.7112
12.1158
11.5265
10.9437
10.3679
9.79935
9.23831
8.68488
8.13912
7.60096
7.07031
6.54697
6.0307
5.52119
5.0181
4.52102
4.02949
3.54304
3.06115
2.58327
2.10883
1.63722
1.16784
0.700063
0.233247
-127.421
-124.392
-120.843
-116.85
-112.48
-107.798
-102.862
-97.7284
-92.4454
-87.0591
-81.6109
-76.1381
-70.6746
-65.2507
-59.8934
-54.6265
-49.4711
-44.4452
-39.5646
-34.8426
-30.2901
-25.9164
-21.7285
-17.732
-13.9308
-10.3273
-6.92261
-3.71685
-0.708907
2.10321
4.72234
7.15207
9.39659
11.4607
13.3496
15.069
16.6248
18.0233
19.2709
20.3742
21.3399
22.1748
22.8855
23.4789
23.9617
24.3404
24.6215
24.8115
24.9164
24.9424
24.8953
24.7808
24.6043
24.371
24.086
23.7541
23.3798
22.9675
22.5213
22.0451
21.5425
21.017
20.4717
19.9097
19.3338
18.7464
18.1502
17.5471
16.9392
16.3284
15.7163
15.1044
14.494
13.8862
13.2822
12.6828
12.0888
11.5007
10.9193
10.3447
9.77746
9.21768
8.66549
8.12094
7.58399
7.05452
6.53235
6.01723
5.50886
5.00689
4.51092
4.02049
3.53513
3.05432
2.57751
2.10412
1.63357
1.16523
0.6985
0.232726
-127.105
-124.083
-120.543
-116.559
-112.2
-107.53
-102.607
-97.4855
-92.2157
-86.8428
-81.4081
-75.9489
-70.499
-65.0886
-59.7446
-54.4908
-49.3481
-44.3348
-39.4663
-34.756
-30.2149
-25.852
-21.6745
-17.688
-13.8962
-10.3016
-6.9054
-3.70761
-0.707142
2.09799
4.71061
7.1343
9.37325
11.4322
13.3164
15.0316
16.5835
17.9785
19.223
20.3236
21.2869
22.1197
22.8287
23.4206
23.9022
24.2799
24.5603
24.7498
24.8545
24.8804
24.8334
24.7192
24.5431
24.3104
24.0262
23.6951
23.3217
22.9105
22.4654
21.9903
21.489
20.9647
20.4208
19.8602
19.2857
18.6999
18.1051
17.5035
16.8971
16.2879
15.6773
15.0669
14.4579
13.8517
13.2492
12.6513
12.0587
11.4722
10.8921
10.319
9.75317
9.19477
8.64396
8.10076
7.56514
7.03699
6.51611
6.00228
5.49517
4.99445
4.49971
4.0105
3.52635
3.04673
2.5711
2.09889
1.62951
1.16234
0.696764
0.232148
-126.757
-123.743
-120.213
-116.24
-111.893
-107.235
-102.326
-97.2186
-91.9633
-86.6051
-81.1852
-75.741
-70.306
-64.9104
-59.581
-54.3416
-49.213
-44.2134
-39.3582
-34.6608
-30.1321
-25.7812
-21.6152
-17.6395
-13.8581
-10.2734
-6.88649
-3.69745
-0.705203
2.09225
4.69772
7.11477
9.34759
11.4009
13.28
14.9904
16.5381
17.9293
19.1704
20.268
21.2286
22.0591
22.7662
23.3565
23.8367
24.2134
24.4931
24.682
24.7864
24.8123
24.7654
24.6515
24.4759
24.2439
23.9604
23.6302
23.2579
22.8477
22.4039
21.9301
21.4301
20.9073
20.3649
19.8058
19.2329
18.6487
18.0555
17.4556
16.8509
16.2433
15.6343
15.0256
14.4184
13.8138
13.2129
12.6166
12.0257
11.4407
10.8623
10.2908
9.72646
9.1696
8.62029
8.07858
7.54443
7.01772
6.49827
5.98584
5.48013
4.98078
4.48739
3.99952
3.51669
3.03839
2.56406
2.09314
1.62505
1.15916
0.694856
0.231512
-126.377
-123.373
-119.853
-115.892
-111.558
-106.914
-102.02
-96.9278
-91.6881
-86.3459
-80.9423
-75.5144
-70.0957
-64.7162
-59.4028
-54.179
-49.0658
-44.0811
-39.2405
-34.5571
-30.042
-25.7041
-21.5505
-17.5868
-13.8166
-10.2426
-6.86589
-3.68639
-0.703091
2.08599
4.68366
7.09348
9.31962
11.3668
13.2403
14.9456
16.4886
17.8757
19.113
20.2073
21.1651
21.9931
22.6981
23.2866
23.7654
24.141
24.4198
24.6082
24.7123
24.7381
24.6913
24.5777
24.4027
24.1713
23.8887
23.5595
23.1883
22.7794
22.3368
21.8645
21.366
20.8448
20.304
19.7466
19.1754
18.5929
18.0015
17.4033
16.8005
16.1947
15.5876
14.9806
14.3752
13.7725
13.1734
12.5789
11.9897
11.4065
10.8298
10.26
9.69736
9.14216
8.5945
8.05441
7.52186
6.99672
6.47883
5.96793
5.46373
4.96587
4.47396
3.98755
3.50617
3.0293
2.55639
2.08688
1.62018
1.15569
0.692777
0.23082
-125.967
-122.972
-119.464
-115.516
-111.196
-106.567
-101.688
-96.613
-91.3903
-86.0655
-80.6795
-75.2692
-69.868
-64.506
-59.2098
-54.0031
-48.9064
-43.9379
-39.113
-34.4449
-29.9444
-25.6206
-21.4805
-17.5296
-13.7718
-10.2094
-6.84358
-3.67441
-0.700805
2.07922
4.66846
7.07045
9.28935
11.3299
13.1973
14.897
16.4351
17.8176
19.051
20.1417
21.0964
21.9217
22.6243
23.211
23.6882
24.0626
24.3405
24.5283
24.632
24.6577
24.6112
24.4979
24.3234
24.0928
23.8111
23.483
23.113
22.7054
22.2643
21.7935
21.2966
20.7771
20.238
19.6824
19.1131
18.5325
17.943
17.3468
16.7459
16.1421
15.5369
14.932
14.3285
13.7277
13.1306
12.538
11.9508
11.3695
10.7946
10.2267
9.66586
9.11247
8.56658
8.02825
7.49743
6.974
6.45779
5.94855
5.44599
4.94975
4.45943
3.9746
3.49478
3.01946
2.54809
2.0801
1.61492
1.15194
0.690527
0.23007
-125.525
-122.541
-119.045
-115.111
-110.806
-106.194
-101.332
-96.2743
-91.07
-85.7639
-80.3967
-75.0054
-69.6232
-64.2799
-59.0023
-53.8138
-48.735
-43.7839
-38.976
-34.3242
-29.8395
-25.5308
-21.4052
-17.4682
-13.7235
-10.1736
-6.8196
-3.66153
-0.698347
2.07193
4.65209
7.04566
9.2568
11.2902
13.151
14.8448
16.3775
17.7552
18.9842
20.0711
21.0224
21.8448
22.545
23.1296
23.6052
23.9782
24.2552
24.4423
24.5457
24.5713
24.5249
24.4121
24.2382
24.0084
23.7276
23.4007
23.032
22.6258
22.1863
21.7171
21.222
20.7043
20.1671
19.6135
19.0461
18.4675
17.8801
17.286
16.6872
16.0855
15.4825
14.8797
14.2783
13.6796
13.0846
12.4941
11.9089
11.3296
10.7568
10.1908
9.63198
9.08053
8.53656
8.00011
7.47115
6.94955
6.43515
5.9277
5.4269
4.9324
4.4438
3.96067
3.48253
3.00887
2.53915
2.07281
1.60926
1.1479
0.688107
0.229263
-125.053
-122.08
-118.597
-114.678
-110.389
-105.794
-100.951
-95.912
-90.7272
-85.441
-80.0941
-74.723
-69.3611
-64.038
-58.7802
-53.6112
-48.5516
-43.6191
-38.8292
-34.1949
-29.7271
-25.4347
-21.3247
-17.4024
-13.6718
-10.1353
-6.79392
-3.64775
-0.695717
2.06413
4.63458
7.01914
9.22195
11.2477
13.1015
14.7889
16.3158
17.6883
18.9127
19.9955
20.9433
21.7626
22.4602
23.0425
23.5163
23.888
24.1639
24.3503
24.4533
24.4788
24.4326
24.3202
24.1469
23.918
23.6383
23.3126
22.9453
22.5406
22.1027
21.6354
21.1421
20.6263
20.0912
19.5396
18.9744
18.398
17.8128
17.2209
16.6244
16.0249
15.4242
14.8236
14.2246
13.6281
13.0353
12.4471
11.8641
11.287
10.7163
10.1524
9.59573
9.04634
8.50442
7.97
7.44302
6.92339
6.41093
5.90539
5.40647
4.91383
4.42707
3.94576
3.46942
2.99755
2.5296
2.06501
1.6032
1.14358
0.685517
0.2284
-124.549
-121.589
-118.12
-114.216
-109.945
-105.368
-100.544
-95.5259
-90.362
-85.0971
-79.7717
-74.4223
-69.0819
-63.7802
-58.5436
-53.3954
-48.3562
-43.4436
-38.6729
-34.0573
-29.6075
-25.3323
-21.2388
-17.3324
-13.6168
-10.0945
-6.76658
-3.63306
-0.692915
2.05582
4.61593
6.99089
9.18483
11.2024
13.0488
14.7294
16.2502
17.6171
18.8366
19.915
20.859
21.675
22.3698
22.9498
23.4217
23.7918
24.0666
24.2523
24.3549
24.3803
24.3342
24.2223
24.0497
23.8217
23.5432
23.2187
22.8529
22.4499
22.0138
21.5483
21.057
20.5433
20.0103
19.461
18.898
18.3239
17.7411
17.1516
16.5575
15.9604
15.3621
14.764
14.1673
13.5733
12.9829
12.397
11.8163
11.2415
10.6732
10.1116
9.5571
9.00993
8.47019
7.93791
7.41306
6.89553
6.38512
5.88162
5.38471
4.89405
4.40925
3.92988
3.45546
2.98548
2.51941
2.0567
1.59675
1.13897
0.682757
0.227481
-124.015
-121.067
-117.614
-113.726
-109.473
-104.916
-100.113
-95.1163
-89.9746
-84.7322
-79.4296
-74.1031
-68.7857
-63.5067
-58.2926
-53.1665
-48.1488
-43.2573
-38.5071
-33.9113
-29.4805
-25.2237
-21.1478
-17.2581
-13.5584
-10.0512
-6.73756
-3.61748
-0.689942
2.04701
4.59614
6.96091
9.14545
11.1544
12.9928
14.6662
16.1805
17.5416
18.7558
19.8296
20.7695
21.5821
22.2738
22.8514
23.3212
23.6898
23.9634
24.1483
24.2504
24.2757
24.2299
24.1184
23.9466
23.7196
23.4422
23.1192
22.7549
22.3536
21.9194
21.4559
20.9667
20.4552
19.9245
19.3775
18.817
18.2454
17.665
17.0781
16.4865
15.892
15.2962
14.7007
14.1066
13.5151
12.9272
12.3438
11.7656
11.1933
10.6274
10.0682
9.51612
8.9713
8.43387
7.90388
7.38128
6.86596
6.35774
5.85639
5.36162
4.87306
4.39035
3.91303
3.44064
2.97268
2.50861
2.04788
1.5899
1.13409
0.67983
0.226506
-123.451
-120.516
-117.078
-113.209
-108.975
-104.439
-99.6572
-94.6832
-89.5649
-84.3464
-79.0679
-73.7657
-68.4725
-63.2176
-58.0272
-52.9244
-47.9296
-43.0603
-38.3318
-33.7569
-29.3463
-25.1088
-21.0515
-17.1795
-13.4967
-10.0054
-6.70688
-3.60101
-0.6868
2.03769
4.57521
6.92922
9.10381
11.1036
12.9336
14.5995
16.1068
17.4617
18.6704
19.7394
20.675
21.4838
22.1724
22.7473
23.215
23.5819
23.8543
24.0383
24.14
24.1652
24.1195
24.0086
23.8376
23.6116
23.3355
23.0139
22.6513
22.2519
21.8196
21.3582
20.8712
20.3621
19.8338
19.2893
18.7313
18.1623
17.5846
17.0003
16.4114
15.8196
15.2266
14.6337
14.0423
13.4535
12.8683
12.2876
11.7121
11.1424
10.579
10.0224
9.47279
8.93045
8.39547
7.86789
7.34767
6.83469
6.32879
5.82973
5.3372
4.85088
4.37036
3.89521
3.42497
2.95914
2.49719
2.03855
1.58266
1.12893
0.676734
0.225474
-122.856
-119.935
-116.514
-112.663
-108.45
-103.935
-99.1768
-94.2267
-89.1331
-83.9398
-78.6868
-73.4101
-68.1424
-62.9128
-57.7474
-52.6693
-47.6985
-42.8527
-38.147
-33.5941
-29.2048
-24.9878
-20.95
-17.0967
-13.4316
-9.9572
-6.67454
-3.58365
-0.683489
2.02787
4.55315
6.89581
9.05992
11.0501
12.8713
14.5291
16.0291
17.3775
18.5804
19.6442
20.5753
21.3802
22.0655
22.6377
23.1031
23.4682
23.7393
23.9224
24.0236
24.0487
24.0033
23.8928
23.7226
23.4977
23.223
22.903
22.5421
22.1446
21.7144
21.2552
20.7706
20.2639
19.7382
19.1963
18.641
18.0747
17.4998
16.9183
16.3323
15.7434
15.1532
14.5632
13.9746
13.3887
12.8063
12.2283
11.6556
11.0886
10.528
9.97406
9.42712
8.88739
8.35499
7.82996
7.31224
6.80174
6.29828
5.80162
5.31147
4.82749
4.34929
3.87643
3.40846
2.94488
2.48515
2.02873
1.57503
1.12348
0.673472
0.224387
-122.23
-119.324
-115.92
-112.089
-107.897
-103.406
-98.6719
-93.747
-88.6793
-83.5125
-78.2862
-73.0364
-67.7955
-62.5925
-57.4534
-52.4011
-47.4557
-42.6346
-37.9528
-33.4231
-29.0561
-24.8606
-20.8433
-17.0096
-13.3632
-9.9065
-6.64056
-3.5654
-0.680009
2.01754
4.52997
6.86071
9.01379
10.9938
12.8058
14.4551
15.9475
17.2891
18.4858
19.5442
20.4705
21.2714
21.9532
22.5224
22.9855
23.3488
23.6184
23.8006
23.9013
23.9262
23.8811
23.7712
23.6019
23.3781
23.1047
22.7863
22.4273
22.0318
21.6038
21.147
20.6649
20.1607
19.6377
19.0986
18.5461
17.9827
17.4107
16.8322
16.2491
15.6632
15.076
14.489
13.9035
13.3205
12.7411
12.1661
11.5963
11.0322
10.4744
9.92328
9.37913
8.84215
8.31246
7.79009
7.27502
6.76712
6.26622
5.77209
5.28443
4.80291
4.32714
3.8567
3.39111
2.92989
2.4725
2.0184
1.56701
1.11776
0.670043
0.223245
-121.575
-118.684
-115.299
-111.488
-107.319
-102.851
-98.1426
-93.2442
-88.2037
-83.0645
-77.8663
-72.6446
-67.4318
-62.2568
-57.1453
-52.12
-47.2011
-42.4059
-37.7492
-33.2438
-28.9003
-24.7272
-20.7315
-16.9184
-13.2916
-9.85337
-6.60495
-3.54628
-0.676362
2.00672
4.50567
6.82391
8.96544
10.9348
12.7371
14.3776
15.862
17.1963
18.3867
19.4393
20.3607
21.1573
21.8354
22.4016
22.8622
23.2235
23.4918
23.673
23.7731
23.7979
23.753
23.6437
23.4753
23.2527
22.9808
22.6641
22.307
21.9137
21.4879
21.0336
20.554
20.0526
19.5323
18.9961
18.4466
17.8862
17.3173
16.7419
16.162
15.5792
14.9952
14.4113
13.8289
13.249
12.6727
12.1008
11.5341
10.973
10.4182
9.87005
9.32882
8.79472
8.26787
7.74831
7.23599
6.73082
6.23261
5.74113
5.25609
4.77715
4.30393
3.83601
3.37292
2.91417
2.45924
2.00757
1.55861
1.11177
0.666449
0.222048
-120.889
-118.015
-114.648
-110.859
-106.713
-102.271
-97.5892
-92.7184
-87.7063
-82.5961
-77.4272
-72.235
-67.0515
-61.9057
-56.823
-51.8261
-46.9349
-42.1667
-37.5363
-33.0563
-28.7373
-24.5878
-20.6146
-16.823
-13.2166
-9.7978
-6.5677
-3.52628
-0.672549
1.9954
4.48026
6.78542
8.91488
10.8732
12.6652
14.2965
15.7725
17.0993
18.283
19.3297
20.2459
21.038
21.7123
22.2753
22.7333
23.0925
23.3593
23.5395
23.639
23.6637
23.619
23.5103
23.3429
23.1216
22.8512
22.5363
22.1812
21.7901
21.3668
20.9149
20.4381
19.9395
19.4222
18.889
18.3426
17.7854
17.2197
16.6475
16.0708
15.4913
14.9106
14.33
13.7509
13.1743
12.6013
12.0326
11.469
10.9111
10.3595
9.81439
9.27621
8.74512
8.22124
7.70461
7.19519
6.69286
6.19746
5.70875
5.22645
4.75021
4.27966
3.81438
3.3539
2.89774
2.44537
1.99625
1.54982
1.1055
0.662691
0.220795
-120.173
-117.317
-113.97
-110.203
-106.082
-101.666
-97.0116
-92.1696
-87.1872
-82.1073
-76.9689
-71.8075
-66.6547
-61.5393
-56.4867
-51.5194
-46.6572
-41.9172
-37.3142
-32.8607
-28.5672
-24.4423
-20.4926
-16.7234
-13.1384
-9.73982
-6.52883
-3.50541
-0.66857
1.98359
4.45375
6.74526
8.86212
10.8088
12.5903
14.2119
15.6792
16.9981
18.1748
19.2153
20.1261
20.9135
21.5838
22.1434
22.5987
22.9559
23.221
23.4002
23.4991
23.5236
23.4792
23.3712
23.2047
22.9847
22.716
22.4029
22.05
21.6611
21.2403
20.7912
20.3171
19.8215
19.3072
18.7772
18.234
17.6801
17.1178
16.549
15.9757
15.3997
14.8224
14.2452
13.6695
13.0964
12.5267
11.9614
11.4011
10.8466
10.2982
9.75631
9.22131
8.69337
8.17259
7.65901
7.1526
6.65325
6.16078
5.67496
5.19551
4.7221
4.25433
3.7918
3.33405
2.88059
2.4309
1.98444
1.54065
1.09896
0.658769
0.219489
-119.428
-116.589
-113.263
-109.52
-105.424
-101.036
-96.4101
-91.5982
-86.6466
-81.5982
-76.4917
-71.3622
-66.2415
-61.1578
-56.1365
-51.2
-46.3679
-41.6573
-37.0828
-32.657
-28.3901
-24.2907
-20.3655
-16.6197
-13.0569
-9.67943
-6.48835
-3.48368
-0.664426
1.97129
4.42613
6.70344
8.80717
10.7418
12.5122
14.1238
15.582
16.8927
18.0621
19.0962
20.0013
20.7838
21.45
22.0061
22.4586
22.8135
23.077
23.2551
23.3534
23.3778
23.3336
23.2263
23.0608
22.8422
22.5751
22.264
21.9132
21.5268
21.1086
20.6622
20.1912
19.6986
19.1875
18.6608
18.121
17.5705
17.0116
16.4464
15.8767
15.3042
14.7305
14.1569
13.5848
13.0152
12.449
11.8872
11.3304
10.7793
10.2343
9.69582
9.16414
8.63947
8.12192
7.61153
7.10826
6.612
6.12258
5.63978
5.1633
4.69282
4.22796
3.76829
3.31338
2.86273
2.41582
1.97213
1.5311
1.09214
0.654684
0.218128
-118.654
-115.833
-112.529
-108.81
-104.74
-100.381
-95.7849
-91.0041
-86.0847
-81.069
-75.9956
-70.8994
-65.8119
-60.7611
-55.7724
-50.8679
-46.0672
-41.3871
-36.8423
-32.4452
-28.206
-24.1332
-20.2335
-16.5119
-12.9722
-9.61666
-6.44627
-3.46109
-0.660118
1.95851
4.39742
6.65996
8.75005
10.6721
12.4311
14.0322
15.4809
16.7832
17.9449
18.9723
19.8716
20.649
21.3108
21.8634
22.313
22.6656
22.9274
23.1042
23.202
23.2262
23.1823
23.0757
22.9113
22.6941
22.4287
22.1196
21.7711
21.3872
20.9717
20.5282
20.0602
19.5708
19.0631
18.5398
18.0034
17.4565
16.9013
16.3397
15.7737
15.2049
14.6349
14.0651
13.4967
12.9308
12.3683
11.8101
11.257
10.7094
10.1679
9.63293
9.1047
8.58343
8.06924
7.56216
7.06216
6.56912
6.08288
5.6032
5.12982
4.66239
4.20054
3.74386
3.29189
2.84416
2.40016
1.95934
1.52117
1.08506
0.650438
0.216713
-117.85
-115.048
-111.766
-108.073
-104.031
-99.7005
-95.136
-90.3876
-85.5015
-80.5198
-75.4808
-70.4191
-65.366
-60.3495
-55.3946
-50.5233
-45.7551
-41.1067
-36.5927
-32.2254
-28.0149
-23.9697
-20.0964
-16.4001
-12.8844
-9.55151
-6.4026
-3.43764
-0.655647
1.94524
4.36763
6.61484
8.69077
10.5998
12.3469
13.9371
15.376
16.6695
17.8234
18.8438
19.737
20.5091
21.1665
21.7153
22.1618
22.512
22.7721
22.9477
23.0448
23.0688
23.0253
22.9193
22.7561
22.5403
22.2768
21.9698
21.6236
21.2423
20.8296
20.3892
19.9243
19.4383
18.9339
18.4142
17.8815
17.3383
16.7868
16.229
15.6668
15.1019
14.5358
13.9698
13.4052
12.8431
12.2845
11.7301
11.1807
10.6368
10.099
9.56767
9.04302
8.52528
8.01458
7.51093
7.01431
6.52461
6.04167
5.56524
5.09506
4.6308
4.17208
3.71849
3.26959
2.82489
2.3839
1.94607
1.51086
1.07771
0.646032
0.215245
-117.017
-114.235
-110.976
-107.309
-103.296
-98.9958
-94.4636
-89.7488
-84.8972
-79.9507
-74.9473
-69.9214
-64.904
-59.923
-55.0031
-50.1662
-45.4317
-40.8162
-36.3341
-31.9976
-27.8169
-23.8003
-19.9544
-16.2842
-12.7933
-9.484
-6.35735
-3.41335
-0.651015
1.93149
4.33676
6.56809
8.62935
10.5249
12.2596
13.8386
15.2674
16.5517
17.6974
18.7106
19.5975
20.3641
21.0169
21.5618
22.0052
22.3529
22.6111
22.7855
22.8819
22.9058
22.8625
22.7573
22.5952
22.381
22.1193
21.8145
21.4708
21.0922
20.6824
20.2451
19.7835
19.3009
18.8001
18.284
17.7551
17.2157
16.6681
16.1143
15.5561
14.9952
14.433
13.8711
13.3105
12.7524
12.1977
11.6472
11.1017
10.5617
10.0277
9.50005
8.97911
8.46503
7.95793
7.45785
6.96474
6.4785
5.99897
5.52591
5.05905
4.59807
4.14259
3.69221
3.24648
2.80493
2.36705
1.93231
1.50018
1.07009
0.641466
0.213724
-116.155
-113.394
-110.159
-106.519
-102.535
-98.2668
-93.7679
-89.0878
-84.272
-79.3619
-74.3954
-69.4065
-64.426
-59.4817
-54.598
-49.7968
-45.0971
-40.5156
-36.0665
-31.762
-27.612
-23.625
-19.8074
-16.1643
-12.6991
-9.41416
-6.31054
-3.38821
-0.646223
1.91726
4.30482
6.51972
8.56579
10.4474
12.1693
13.7367
15.1549
16.4298
17.5671
18.5728
19.4531
20.2142
20.8621
21.403
21.8431
22.1883
22.4446
22.6177
22.7134
22.7371
22.6941
22.5897
22.4288
22.2162
21.9564
21.6539
21.3127
20.9368
20.5301
20.096
19.6378
19.1587
18.6617
18.1494
17.6243
17.089
16.5454
15.9956
15.4415
14.8847
14.3267
13.7689
13.2125
12.6585
12.1078
11.5614
11.0199
10.4839
9.95382
9.43009
8.91298
8.40269
7.89933
7.40292
6.91345
6.43079
5.95479
5.48521
5.0218
4.56421
4.11208
3.66502
3.22257
2.78427
2.34961
1.91808
1.48913
1.06221
0.636742
0.21215
-115.265
-112.525
-109.315
-105.702
-101.749
-97.5135
-93.0491
-88.4049
-83.626
-78.7535
-73.8251
-68.8744
-63.9322
-59.0257
-54.1795
-49.4151
-44.7514
-40.205
-35.7901
-31.5185
-27.4004
-23.4439
-19.6556
-16.0403
-12.6017
-9.34199
-6.26216
-3.36224
-0.641271
1.90256
4.27182
6.46974
8.50013
10.3673
12.076
13.6314
15.0387
16.3038
17.4324
18.4304
19.304
20.0592
20.7022
21.239
21.6756
22.0182
22.2725
22.4443
22.5393
22.5628
22.5202
22.4166
22.2569
22.0459
21.7881
21.4879
21.1493
20.7763
20.3727
19.9419
19.4873
19.0119
18.5186
18.0102
17.4892
16.9579
16.4186
15.873
15.3232
14.7706
14.2169
13.6634
13.1112
12.5614
12.015
11.4728
10.9354
10.4035
9.87751
9.3578
8.84465
8.33827
7.83877
7.34617
6.86045
6.38149
5.90914
5.44316
4.9833
4.52922
4.08056
3.63692
3.19787
2.76293
2.3316
1.90338
1.47772
1.05407
0.631861
0.210523
-114.346
-111.628
-108.443
-104.859
-100.938
-96.7361
-92.3073
-87.7001
-82.9593
-78.1257
-73.2365
-68.3254
-63.4225
-58.5551
-53.7475
-49.0211
-44.3947
-39.8845
-35.5047
-31.2672
-27.1819
-23.257
-19.4989
-15.9125
-12.5013
-9.26752
-6.21224
-3.33544
-0.63616
1.88739
4.23776
6.41816
8.43236
10.2847
11.9797
13.5227
14.9189
16.1738
17.2934
18.2835
19.1501
19.8993
20.5371
21.0696
21.5028
21.8427
22.095
22.2654
22.3596
22.3829
22.3406
22.2379
22.0795
21.8701
21.6144
21.3165
20.9807
20.6107
20.2103
19.7829
19.3319
18.8603
18.371
17.8666
17.3498
16.8228
16.2877
15.7465
15.201
14.6529
14.1036
13.5544
13.0067
12.4613
11.9192
11.3813
10.8483
10.3206
9.79877
9.2832
8.77415
8.2718
7.77628
7.28761
6.80576
6.33062
5.86203
5.39977
4.94357
4.49311
4.04803
3.60793
3.17238
2.7409
2.31302
1.88821
1.46594
1.04566
0.626823
0.208845
-113.399
-110.703
-107.545
-103.991
-100.102
-95.9349
-91.5428
-86.9737
-82.2722
-77.4786
-72.6299
-67.7594
-62.8972
-58.0702
-53.3024
-48.6151
-44.027
-39.5542
-35.2107
-31.0082
-26.9568
-23.0644
-19.3374
-15.7807
-12.3977
-9.19076
-6.16079
-3.30781
-0.630893
1.87176
4.20266
6.365
8.36252
10.1995
11.8805
13.4107
14.7953
16.0399
17.1502
18.1321
18.9915
19.7345
20.367
20.8951
21.3247
21.6618
21.912
22.081
22.1744
22.1975
22.1556
22.0537
21.8966
21.689
21.4354
21.14
20.8069
20.44
20.0429
19.6191
19.1718
18.7041
18.2188
17.7187
17.2061
16.6834
16.1528
15.6161
15.0751
14.5315
13.9868
13.4422
12.8989
12.3581
11.8205
11.2871
10.7584
10.2351
9.71761
9.20631
8.70147
8.20329
7.71187
7.22725
6.74939
6.27818
5.81348
5.35505
4.90263
4.4559
4.0145
3.57805
3.1461
2.7182
2.29386
1.87257
1.4538
1.037
0.621632
0.207115
-112.424
-109.751
-106.62
-103.097
-99.241
-95.11
-90.7556
-86.2259
-81.5648
-76.8124
-72.0054
-67.1768
-62.3564
-57.5708
-52.8441
-48.1971
-43.6484
-39.2141
-34.9079
-30.7416
-26.725
-22.8661
-19.1711
-15.645
-12.2911
-9.11174
-6.10782
-3.27937
-0.62547
1.85566
4.16652
6.31026
8.29061
10.1118
11.7784
13.2954
14.6681
15.902
17.0027
17.9762
18.8282
19.5648
20.1919
20.7154
21.1414
21.4755
21.7235
21.8911
21.9837
22.0066
21.9651
21.864
21.7083
21.5025
21.2511
20.9582
20.628
20.2642
19.8706
19.4504
19.0069
18.5432
18.0622
17.5663
17.0581
16.54
16.0139
15.4818
14.9455
14.4066
13.8665
13.3266
12.788
12.2518
11.7189
11.19
10.6659
10.1471
9.63405
9.12715
8.62665
8.13275
7.64556
7.1651
6.69135
6.2242
5.76349
5.309
4.86047
4.41758
3.97998
3.54728
3.11905
2.69483
2.27413
1.85646
1.4413
1.02809
0.616286
0.205334
-111.421
-108.772
-105.669
-102.177
-98.3558
-94.2616
-89.9461
-85.4568
-80.8372
-76.1273
-71.3632
-66.5776
-61.8002
-57.0573
-52.3727
-47.7672
-43.2591
-38.8643
-34.5965
-30.4674
-26.4866
-22.6621
-19.0001
-15.5054
-12.1815
-9.03046
-6.05334
-3.25012
-0.619893
1.83911
4.12935
6.25397
8.21665
10.0216
11.6733
13.1768
14.5372
15.7601
16.851
17.8158
18.6602
19.3903
20.0118
20.5307
20.9528
21.2839
21.5298
21.6958
21.7876
21.8103
21.7692
21.669
21.5147
21.3107
21.0615
20.7713
20.444
20.0835
19.6933
19.2769
18.8374
18.3778
17.901
17.4096
16.906
16.3924
15.871
15.3437
14.8122
14.2781
13.7428
13.2077
12.6739
12.1425
11.6143
11.0902
10.5708
10.0566
9.54812
9.04573
8.5497
8.06021
7.57736
7.10119
6.63167
6.16868
5.71208
5.26165
4.81712
4.37818
3.94448
3.51564
3.09123
2.67079
2.25385
1.83991
1.42844
1.01892
0.610789
0.203503
-110.391
-107.767
-104.692
-101.232
-97.4463
-93.39
-89.1144
-84.6666
-80.0897
-75.4233
-70.7033
-65.962
-61.2287
-56.5297
-51.8884
-47.3255
-42.859
-38.5049
-34.2766
-30.1857
-26.2417
-22.4525
-18.8244
-15.3621
-12.0689
-8.94696
-5.99737
-3.22007
-0.614163
1.8221
4.09117
6.19614
8.14067
9.92889
11.5653
13.0549
14.4028
15.6144
16.6952
17.6511
18.4877
19.211
19.8267
20.3408
20.759
21.0871
21.3307
21.4952
21.5861
21.6087
21.5679
21.4686
21.3157
21.1136
20.8667
20.5792
20.2549
19.8978
19.5112
19.0986
18.6632
18.2079
17.7355
17.2486
16.7497
16.2408
15.7243
15.2018
14.6752
14.146
13.6157
13.0856
12.5567
12.0302
11.5069
10.9877
10.473
9.96359
9.45983
8.96209
8.47064
7.98568
7.50729
7.03553
6.57034
6.11164
5.65926
5.21299
4.77257
4.33769
3.90801
3.48313
3.06264
2.64609
2.23301
1.82289
1.41523
1.00949
0.605141
0.201621
-109.333
-106.734
-103.689
-100.262
-96.5128
-92.4953
-88.2607
-83.8555
-79.3225
-74.7008
-70.0259
-65.3301
-60.6421
-55.9882
-51.3913
-46.8721
-42.4485
-38.136
-33.9483
-29.8965
-25.9903
-22.2374
-18.6441
-15.2149
-11.9532
-8.86125
-5.93991
-3.18923
-0.608281
1.80464
4.05197
6.13678
8.06268
9.83377
11.4546
12.9299
14.2648
15.4648
16.5353
17.482
18.3106
19.0269
19.6368
20.1459
20.5602
20.8851
21.1263