/*--------------------------------*- C++ -*----------------------------------*\
| =========                 |                                                 |
| \\      /  F ield         | OpenFOAM: The Open Source CFD Toolbox           |
|  \\    /   O peration     | Version:  2406                                  |
|   \\  /    A nd           | Website:  www.openfoam.com                      |
|    \\/     M anipulation  |                                                 |
\*---------------------------------------------------------------------------*/
FoamFile
{
    version     2.0;
    format      ascii;
    arch        "LSB;label=32;scalar=64";
    class       volScalarField;
    location    "100";
    object      gradTx;
}
// * * * * * * * * * * * * * * * * * * * * * * * * * * * * * * * * * * * * * //

dimensions      [0 -1 0 1 0 0 0];

internalField   nonuniform List<scalar> 
20000
(
-0.219498
-0.633925
-1.00088
-1.32299
-1.60335
-1.84568
-2.05216
-2.22513
-2.36787
-2.48304
-2.57282
-2.63939
-2.68494
-2.71158
-2.72129
-2.71594
-2.69721
-2.66671
-2.62592
-2.57621
-2.51886
-2.45505
-2.38586
-2.31228
-2.23523
-2.15551
-2.07388
-1.99101
-1.9075
-1.82388
-1.74063
-1.65815
-1.57683
-1.49696
-1.41883
-1.34265
-1.26862
-1.19689
-1.12758
-1.0608
-0.996591
-0.935017
-0.876096
-0.819833
-0.766218
-0.715224
-0.666814
-0.62094
-0.577544
-0.536561
-0.497919
-0.461543
-0.427351
-0.395261
-0.365188
-0.337043
-0.310741
-0.286193
-0.263314
-0.242017
-0.222219
-0.203838
-0.186792
-0.171005
-0.156401
-0.142907
-0.130454
-0.118975
-0.108406
-0.098686
-0.0897569
-0.0815639
-0.0740549
-0.0671807
-0.060895
-0.0551543
-0.0499176
-0.0451466
-0.0408055
-0.036861
-0.0332819
-0.0300395
-0.027107
-0.0244598
-0.022075
-0.0199319
-0.0180112
-0.0162955
-0.014769
-0.0134173
-0.0122275
-0.0111881
-0.0102889
-0.00952109
-0.0088769
-0.00834984
-0.00793455
-0.00762677
-0.00742332
-0.00732211
-0.658672
-1.9017
-3.0019
-3.96858
-4.81012
-5.53653
-6.1556
-6.6748
-7.10321
-7.44861
-7.71783
-7.91748
-8.05411
-8.13404
-8.16321
-8.14715
-8.09099
-7.99949
-7.87712
-7.728
-7.55597
-7.36454
-7.15699
-6.93628
-6.70512
-6.466
-6.22114
-5.97255
-5.72203
-5.47119
-5.22145
-4.97405
-4.73009
-4.49052
-4.25613
-4.02762
-3.80555
-3.59037
-3.38247
-3.18212
-2.98953
-2.80482
-2.62807
-2.4593
-2.29846
-2.14549
-2.00028
-1.86267
-1.73249
-1.60955
-1.49363
-1.38451
-1.28195
-1.18569
-1.09547
-1.01105
-0.932145
-0.858509
-0.789877
-0.725992
-0.666603
-0.611463
-0.56033
-0.512973
-0.469164
-0.428686
-0.391331
-0.356896
-0.325192
-0.296034
-0.269249
-0.244672
-0.222146
-0.201526
-0.18267
-0.165449
-0.14974
-0.135429
-0.122406
-0.110574
-0.0998376
-0.0901112
-0.0813145
-0.0733734
-0.0662197
-0.0597908
-0.0540292
-0.0488826
-0.0443034
-0.0402485
-0.0366794
-0.0335615
-0.0308642
-0.0285609
-0.0266285
-0.0250475
-0.0238017
-0.0228784
-0.0222681
-0.0219645
-1.09768
-3.16922
-5.00234
-6.61318
-8.01583
-9.22594
-10.2573
-11.1228
-11.8369
-12.4124
-12.8609
-13.1936
-13.4212
-13.5545
-13.6031
-13.5764
-13.4828
-13.3303
-13.1264
-12.8779
-12.5912
-12.2722
-11.9264
-11.5586
-11.1734
-10.7749
-10.3669
-9.95261
-9.53515
-9.11715
-8.70098
-8.28872
-7.88219
-7.48296
-7.09239
-6.71159
-6.34153
-5.98297
-5.63653
-5.30267
-4.98173
-4.67393
-4.3794
-4.09815
-3.83014
-3.57524
-3.33325
-3.10393
-2.88701
-2.68214
-2.48898
-2.30714
-2.13623
-1.97582
-1.82549
-1.6848
-1.55332
-1.43061
-1.31624
-1.20979
-1.11082
-1.01894
-0.93373
-0.854814
-0.781811
-0.71436
-0.652111
-0.59473
-0.541897
-0.493308
-0.448674
-0.407719
-0.370183
-0.335821
-0.3044
-0.275703
-0.249526
-0.225677
-0.203977
-0.18426
-0.166369
-0.150161
-0.135502
-0.122269
-0.110348
-0.0996349
-0.0900339
-0.0814576
-0.0738268
-0.0670699
-0.0611223
-0.0559266
-0.051432
-0.0475937
-0.0443736
-0.0417389
-0.039663
-0.0381245
-0.0371075
-0.0366016
-1.53617
-4.43585
-7.00177
-9.25616
-11.2194
-12.913
-14.3565
-15.5682
-16.5678
-17.3732
-18.0009
-18.4664
-18.785
-18.9715
-19.0396
-19.0022
-18.8712
-18.6578
-18.3724
-18.0246
-17.6233
-17.1769
-16.6928
-16.178
-15.6389
-15.0811
-14.51
-13.9302
-13.3459
-12.7609
-12.1784
-11.6013
-11.0323
-10.4736
-9.92689
-9.39391
-8.87595
-8.37409
-7.88919
-7.4219
-6.9727
-6.54189
-6.12964
-5.736
-5.36088
-5.0041
-4.66539
-4.34443
-4.04081
-3.75407
-3.48371
-3.22921
-2.98998
-2.76546
-2.55505
-2.35814
-2.17411
-2.00236
-1.84229
-1.69328
-1.55477
-1.42616
-1.3069
-1.19644
-1.09427
-0.999857
-0.91273
-0.832416
-0.758469
-0.690461
-0.627989
-0.570666
-0.518129
-0.470033
-0.426055
-0.38589
-0.349251
-0.31587
-0.285498
-0.2579
-0.232859
-0.210173
-0.189656
-0.171134
-0.154449
-0.139455
-0.126016
-0.114013
-0.103332
-0.0938747
-0.0855502
-0.078278
-0.071987
-0.0666148
-0.0621077
-0.0584201
-0.0555145
-0.0533611
-0.0519378
-0.0512297
-1.97426
-5.70124
-8.99938
-11.8968
-14.4202
-16.597
-18.4522
-20.0097
-21.2945
-22.3297
-23.1363
-23.7346
-24.1442
-24.3839
-24.4715
-24.4234
-24.2551
-23.9808
-23.6139
-23.1669
-22.6511
-22.0773
-21.4551
-20.7934
-20.1005
-19.3836
-18.6496
-17.9044
-17.1534
-16.4014
-15.6527
-14.9111
-14.1798
-13.4616
-12.7589
-12.0739
-11.4082
-10.7631
-10.1399
-9.5393
-8.96194
-8.40823
-7.87838
-7.37243
-6.89029
-6.43172
-5.99639
-5.58386
-5.19362
-4.82507
-4.47759
-4.15047
-3.843
-3.55443
-3.28399
-3.03089
-2.79437
-2.57362
-2.36788
-2.17636
-1.99833
-1.83303
-1.67975
-1.53778
-1.40645
-1.28511
-1.17312
-1.0699
-0.974853
-0.887444
-0.807148
-0.733472
-0.665946
-0.60413
-0.547605
-0.495981
-0.448889
-0.405985
-0.366948
-0.331476
-0.299291
-0.270134
-0.243763
-0.219957
-0.198512
-0.17924
-0.161968
-0.146539
-0.132812
-0.120656
-0.109957
-0.10061
-0.0925244
-0.0856195
-0.0798266
-0.075087
-0.0713524
-0.0685847
-0.0667552
-0.0658452
-2.41192
-6.96523
-10.9947
-14.5346
-17.6175
-20.2768
-22.5434
-24.4463
-26.016
-27.2807
-28.266
-28.9969
-29.4973
-29.7903
-29.8973
-29.8386
-29.6329
-29.2978
-28.8496
-28.3034
-27.6733
-26.9723
-26.2121
-25.4037
-24.5572
-23.6814
-22.7846
-21.8741
-20.9566
-20.0379
-19.1233
-18.2172
-17.3237
-16.4463
-15.5878
-14.7509
-13.9376
-13.1495
-12.3881
-11.6544
-10.949
-10.2725
-9.62517
-9.00704
-8.418
-7.85776
-7.32591
-6.82191
-6.34514
-5.89489
-5.47035
-5.07071
-4.69507
-4.34251
-4.01211
-3.7029
-3.41393
-3.14424
-2.89288
-2.65891
-2.4414
-2.23945
-2.05218
-1.87874
-1.71829
-1.57004
-1.43323
-1.30711
-1.191
-1.08421
-0.986109
-0.896097
-0.8136
-0.738077
-0.66902
-0.60595
-0.548417
-0.496
-0.448308
-0.404971
-0.36565
-0.330028
-0.29781
-0.268726
-0.242526
-0.218981
-0.197879
-0.17903
-0.162259
-0.147408
-0.134337
-0.122917
-0.113039
-0.104603
-0.0975258
-0.0917353
-0.0871728
-0.0837913
-0.0815563
-0.0804445
-2.84902
-8.22753
-12.9873
-17.1687
-20.8104
-23.9517
-26.6291
-28.8769
-30.7311
-32.2249
-33.3888
-34.2521
-34.8432
-35.1893
-35.3157
-35.2464
-35.0034
-34.6076
-34.0782
-33.433
-32.6887
-31.8606
-30.9626
-30.0078
-29.0078
-27.9733
-26.9139
-25.8385
-24.7547
-23.6695
-22.5891
-21.5188
-20.4634
-19.4269
-18.4129
-17.4243
-16.4636
-15.5327
-14.6333
-13.7665
-12.9333
-12.1342
-11.3696
-10.6394
-9.94363
-9.28185
-8.65361
-8.05828
-7.4951
-6.96324
-6.46177
-5.9897
-5.54598
-5.12953
-4.73924
-4.374
-4.03265
-3.71409
-3.41717
-3.14079
-2.88386
-2.64532
-2.42411
-2.21923
-2.0297
-1.85459
-1.69298
-1.54401
-1.40685
-1.2807
-1.16483
-1.0585
-0.961053
-0.871843
-0.79027
-0.715769
-0.647809
-0.585893
-0.529557
-0.478366
-0.431919
-0.389841
-0.351784
-0.317429
-0.286481
-0.258668
-0.233742
-0.211477
-0.191666
-0.174124
-0.158683
-0.145195
-0.133526
-0.123561
-0.115201
-0.108361
-0.102972
-0.0989774
-0.0963373
-0.095024
-3.28543
-9.48782
-14.9767
-19.7986
-23.9982
-27.6207
-30.7081
-33.3003
-35.4386
-37.1611
-38.5033
-39.4988
-40.1805
-40.5796
-40.7255
-40.6455
-40.3653
-39.9089
-39.2983
-38.5544
-37.696
-36.741
-35.7055
-34.6044
-33.4512
-32.2583
-31.0367
-29.7965
-28.5467
-27.2952
-26.0493
-24.815
-23.598
-22.4027
-21.2334
-20.0934
-18.9855
-17.912
-16.8748
-15.8753
-14.9145
-13.993
-13.1112
-12.2692
-11.4668
-10.7037
-9.97919
-9.29266
-8.64322
-8.02988
-7.4516
-6.90721
-6.39552
-5.91528
-5.46521
-5.04401
-4.65038
-4.28302
-3.94062
-3.62191
-3.32562
-3.05053
-2.79544
-2.55917
-2.34062
-2.13868
-1.95231
-1.78052
-1.62235
-1.47688
-1.34326
-1.22064
-1.10827
-1.00539
-0.911325
-0.825412
-0.747042
-0.675642
-0.610675
-0.551644
-0.498081
-0.449557
-0.405671
-0.366054
-0.330365
-0.298291
-0.269547
-0.243871
-0.221026
-0.200797
-0.182991
-0.167436
-0.153979
-0.142488
-0.132848
-0.12496
-0.118745
-0.114139
-0.111095
-0.10958
-3.72103
-10.7458
-16.9624
-22.4237
-27.1801
-31.2828
-34.7796
-37.7155
-40.1373
-42.0882
-43.6082
-44.7358
-45.5079
-45.96
-46.1251
-46.0346
-45.7173
-45.2003
-44.5088
-43.6662
-42.6941
-41.6124
-40.4396
-39.1925
-37.8864
-36.5353
-35.1517
-33.7471
-32.3316
-30.9142
-29.5031
-28.1052
-26.7267
-25.3731
-24.0487
-22.7575
-21.5027
-20.2869
-19.1122
-17.9802
-16.8919
-15.8483
-14.8496
-13.8959
-12.9872
-12.1228
-11.3023
-10.5247
-9.78919
-9.09454
-8.43958
-7.82301
-7.24348
-6.69957
-6.18982
-5.71278
-5.26696
-4.85089
-4.46309
-4.10212
-3.76655
-3.45499
-3.16607
-2.89849
-2.65095
-2.42224
-2.21116
-2.0166
-1.83745
-1.6727
-1.52136
-1.38249
-1.25521
-1.1387
-1.03216
-0.934851
-0.84609
-0.765223
-0.691643
-0.624785
-0.564121
-0.509163
-0.459458
-0.414588
-0.374167
-0.337841
-0.305286
-0.276206
-0.250332
-0.22742
-0.207253
-0.189636
-0.174395
-0.161381
-0.150462
-0.141529
-0.134489
-0.129273
-0.125825
-0.124109
-4.15572
-12.0011
-18.944
-25.0432
-30.3553
-34.9373
-38.8425
-42.1214
-44.8262
-47.0049
-48.7025
-49.9617
-50.8241
-51.3289
-51.5134
-51.4123
-51.058
-50.4806
-49.7083
-48.7672
-47.6815
-46.4736
-45.1638
-43.771
-42.3123
-40.8033
-39.2581
-37.6894
-36.1085
-34.5256
-32.9496
-31.3884
-29.8489
-28.3371
-26.858
-25.416
-24.0146
-22.6568
-21.3449
-20.0806
-18.8652
-17.6996
-16.5843
-15.5192
-14.5043
-13.539
-12.6226
-11.7542
-10.9328
-10.157
-9.42548
-8.73689
-8.08966
-7.4822
-6.91291
-6.38014
-5.88224
-5.41757
-4.98447
-4.58133
-4.20656
-3.8586
-3.53593
-3.23709
-2.96063
-2.7052
-2.46947
-2.25218
-2.0521
-1.86811
-1.69908
-1.54399
-1.40184
-1.27172
-1.15273
-1.04406
-0.94493
-0.854616
-0.772441
-0.697772
-0.630021
-0.568643
-0.513132
-0.46302
-0.417877
-0.377308
-0.34095
-0.308472
-0.279575
-0.253988
-0.231465
-0.211789
-0.194768
-0.180233
-0.168039
-0.158062
-0.150201
-0.144375
-0.140524
-0.138608
-4.58938
-13.2535
-20.9208
-27.6565
-33.523
-38.5831
-42.8958
-46.5169
-49.5039
-51.91
-53.7847
-55.1753
-56.1277
-56.6853
-56.889
-56.7774
-56.386
-55.7484
-54.8955
-53.8563
-52.6573
-51.3232
-49.8767
-48.3386
-46.7277
-45.0612
-43.3548
-41.6224
-39.8765
-38.1284
-36.388
-34.6639
-32.9638
-31.2942
-29.6607
-28.0683
-26.5206
-25.0211
-23.5723
-22.176
-20.8339
-19.5466
-18.3149
-17.1387
-16.0179
-14.9518
-13.9398
-12.9808
-12.0736
-11.2169
-10.4091
-9.64861
-8.93384
-8.26299
-7.63429
-7.04593
-6.49607
-5.98291
-5.50461
-5.05941
-4.64553
-4.26126
-3.90492
-3.57489
-3.26958
-2.9875
-2.72717
-2.4872
-2.26625
-2.06305
-1.87638
-1.70511
-1.54813
-1.40443
-1.27302
-1.15301
-1.04354
-0.943799
-0.853048
-0.770587
-0.695766
-0.627983
-0.566679
-0.511338
-0.461484
-0.416681
-0.376529
-0.340663
-0.30875
-0.280492
-0.255619
-0.23389
-0.215093
-0.199042
-0.185575
-0.174557
-0.165875
-0.159441
-0.155188
-0.153072
-5.02191
-14.5025
-22.8925
-30.263
-36.6824
-42.2194
-46.9385
-50.901
-54.1695
-56.8023
-58.8536
-60.3753
-61.4175
-62.0276
-62.2506
-62.1284
-61.7002
-61.0025
-60.0692
-58.932
-57.62
-56.1602
-54.5774
-52.8943
-51.1316
-49.3081
-47.4408
-45.5451
-43.6347
-41.7219
-39.8174
-37.9308
-36.0704
-34.2435
-32.4561
-30.7136
-29.0201
-27.3792
-25.7938
-24.266
-22.7974
-21.3888
-20.041
-18.754
-17.5275
-16.361
-15.2536
-14.2042
-13.2115
-12.274
-11.3901
-10.558
-9.77581
-9.04174
-8.35379
-7.70998
-7.1083
-6.54677
-6.0234
-5.53623
-5.08335
-4.66286
-4.27294
-3.9118
-3.57773
-3.26906
-2.98419
-2.72161
-2.47983
-2.25748
-2.05323
-1.86581
-1.69404
-1.53679
-1.393
-1.26168
-1.14189
-1.03275
-0.933445
-0.843212
-0.76134
-0.687169
-0.620087
-0.55953
-0.504978
-0.455952
-0.412016
-0.372769
-0.337849
-0.306928
-0.279711
-0.255934
-0.235365
-0.217801
-0.203065
-0.191008
-0.181508
-0.174468
-0.169814
-0.167499
-5.45321
-15.748
-24.8586
-32.862
-39.8327
-45.8452
-50.9696
-55.2724
-58.8217
-61.6806
-63.908
-65.5604
-66.6921
-67.3546
-67.5968
-67.4641
-66.9991
-66.2415
-65.2281
-63.9932
-62.5685
-60.9833
-59.2646
-57.4369
-55.5228
-53.5427
-51.5151
-49.4566
-47.3821
-45.305
-43.237
-41.1884
-39.1682
-37.1844
-35.2435
-33.3513
-31.5124
-29.7306
-28.0091
-26.35
-24.7552
-23.2257
-21.7621
-20.3646
-19.0328
-17.7661
-16.5636
-15.4241
-14.3461
-13.3281
-12.3683
-11.4647
-10.6154
-9.81826
-9.07123
-8.37212
-7.71878
-7.10902
-6.5407
-6.01169
-5.51992
-5.06332
-4.63991
-4.24776
-3.88499
-3.54981
-3.24048
-2.95534
-2.69281
-2.45136
-2.22956
-2.02605
-1.83952
-1.66877
-1.51263
-1.37003
-1.23995
-1.12144
-1.01361
-0.915629
-0.826726
-0.746185
-0.673342
-0.607584
-0.548347
-0.495111
-0.447401
-0.404784
-0.366865
-0.333288
-0.303733
-0.277914
-0.255579
-0.236506
-0.220505
-0.207413
-0.197097
-0.189452
-0.184398
-0.181885
-5.88315
-16.9897
-26.8185
-35.453
-42.9732
-49.4598
-54.9882
-59.6303
-63.4593
-66.5436
-68.9467
-70.7294
-71.9502
-72.6651
-72.9263
-72.7832
-72.2816
-71.4642
-70.3709
-69.0386
-67.5016
-65.7914
-63.9372
-61.9654
-59.9004
-57.7642
-55.5767
-53.3559
-51.1179
-48.877
-46.6459
-44.4357
-42.2563
-40.1161
-38.0222
-35.9808
-33.9969
-32.0747
-30.2174
-28.4275
-26.707
-25.0569
-23.4779
-21.9702
-20.5334
-19.1668
-17.8695
-16.6402
-15.4772
-14.3789
-13.3434
-12.3686
-11.4523
-10.5924
-9.78643
-9.0322
-8.32734
-7.66951
-7.05639
-6.48567
-5.95512
-5.46252
-5.00573
-4.58266
-4.1913
-3.82969
-3.49597
-3.18835
-2.90512
-2.64463
-2.40535
-2.18579
-1.98456
-1.80034
-1.6319
-1.47805
-1.33772
-1.20986
-1.09353
-0.987821
-0.891908
-0.805016
-0.72643
-0.655488
-0.59158
-0.534147
-0.482676
-0.436698
-0.39579
-0.359566
-0.327681
-0.299826
-0.27573
-0.255154
-0.23789
-0.223766
-0.212637
-0.204389
-0.198937
-0.196225
-6.31164
-18.2271
-28.7718
-38.0351
-46.1032
-53.0621
-58.9932
-63.9734
-68.0814
-71.3903
-73.9683
-75.8808
-77.1907
-77.9576
-78.2379
-78.0843
-77.5461
-76.6692
-75.4963
-74.067
-72.418
-70.5833
-68.594
-66.4786
-64.2632
-61.9714
-59.6246
-57.242
-54.841
-52.4369
-50.0433
-47.6722
-45.334
-43.0379
-40.7915
-38.6014
-36.473
-34.4108
-32.4182
-30.498
-28.6522
-26.8819
-25.1879
-23.5703
-22.0289
-20.5628
-19.171
-17.8521
-16.6045
-15.4262
-14.3153
-13.2694
-12.2864
-11.3638
-10.4992
-9.69006
-8.93386
-8.22811
-7.57033
-6.95805
-6.38886
-5.86038
-5.37032
-4.91644
-4.49657
-4.10862
-3.7506
-3.42057
-3.11671
-2.83725
-2.58054
-2.34499
-2.1291
-1.93147
-1.75075
-1.58571
-1.43515
-1.29798
-1.17317
-1.05977
-0.95687
-0.86365
-0.77934
-0.703231
-0.634668
-0.573052
-0.517832
-0.468506
-0.424617
-0.385755
-0.351547
-0.321665
-0.295814
-0.273738
-0.255217
-0.240064
-0.228125
-0.219276
-0.213427
-0.210518
-6.73858
-19.46
-30.718
-40.6079
-49.2217
-56.6514
-62.9836
-68.3007
-72.6866
-76.2193
-78.9717
-81.0136
-82.412
-83.2308
-83.5301
-83.3662
-82.7916
-81.8553
-80.6031
-79.0771
-77.3166
-75.3577
-73.2339
-70.9754
-68.6101
-66.1633
-63.6577
-61.114
-58.5506
-55.9838
-53.4283
-50.8968
-48.4005
-45.9491
-43.5508
-41.2125
-38.9401
-36.7384
-34.6111
-32.561
-30.5903
-28.7003
-26.8917
-25.1647
-23.519
-21.9537
-20.4678
-19.0597
-17.7277
-16.4697
-15.2836
-14.167
-13.1175
-12.1325
-11.2094
-10.3455
-9.53817
-8.78469
-8.08241
-7.42871
-6.82102
-6.25679
-5.73358
-5.249
-4.80073
-4.38654
-4.0043
-3.65195
-3.32753
-3.02917
-2.7551
-2.50361
-2.27312
-2.06212
-1.86918
-1.69297
-1.53223
-1.38578
-1.25253
-1.13146
-1.0216
-0.92207
-0.832057
-0.7508
-0.6776
-0.611816
-0.55286
-0.500197
-0.45334
-0.411849
-0.375328
-0.343423
-0.315824
-0.292255
-0.272482
-0.256304
-0.243556
-0.234109
-0.227865
-0.224758
-7.16385
-20.6881
-32.6566
-43.1707
-52.3281
-60.2267
-66.9585
-72.6112
-77.2739
-81.0295
-83.9556
-86.1264
-87.6131
-88.4835
-88.8017
-88.6275
-88.0166
-87.0213
-85.6899
-84.0676
-82.196
-80.1136
-77.8557
-75.4547
-72.9401
-70.3388
-67.6752
-64.9709
-62.2457
-59.517
-56.8002
-54.1089
-51.4551
-48.849
-46.2993
-43.8134
-41.3977
-39.057
-36.7954
-34.6159
-32.5208
-30.5115
-28.5888
-26.7528
-25.0033
-23.3392
-21.7595
-20.2626
-18.8465
-17.5091
-16.2481
-15.0611
-13.9454
-12.8982
-11.9168
-10.9984
-10.1401
-9.33909
-8.59249
-7.89754
-7.2515
-6.65166
-6.09543
-5.58027
-5.1037
-4.66338
-4.25701
-3.88243
-3.53753
-3.22035
-2.92897
-2.66162
-2.41658
-2.19226
-1.98715
-1.79981
-1.62893
-1.47324
-1.33158
-1.20286
-1.08607
-0.980263
-0.88457
-0.798184
-0.720364
-0.650428
-0.587752
-0.531765
-0.481951
-0.437842
-0.399015
-0.365098
-0.335756
-0.3107
-0.289679
-0.27248
-0.258928
-0.248884
-0.242246
-0.238944
-7.58736
-21.9112
-34.5872
-45.7228
-55.4216
-63.7871
-70.9169
-76.9038
-81.8421
-85.8197
-88.9188
-91.2179
-92.7925
-93.7144
-94.0514
-93.8669
-93.2199
-92.1657
-90.7557
-89.0375
-87.0552
-84.8497
-82.4583
-79.9153
-77.2521
-74.4971
-71.6759
-68.8118
-65.9255
-63.0354
-60.158
-57.3077
-54.497
-51.7368
-49.0363
-46.4035
-43.845
-41.3659
-38.9706
-36.6623
-34.4434
-32.3153
-30.2789
-28.3344
-26.4814
-24.719
-23.0459
-21.4604
-19.9606
-18.5442
-17.2087
-15.9515
-14.7698
-13.6607
-12.6213
-11.6486
-10.7396
-9.89119
-9.10046
-8.36442
-7.68018
-7.04489
-6.45578
-5.91016
-5.40542
-4.93907
-4.50868
-4.11195
-3.74667
-3.41073
-3.10213
-2.81896
-2.55944
-2.32186
-2.10462
-1.90621
-1.72523
-1.56033
-1.4103
-1.27397
-1.15028
-1.03821
-0.936864
-0.845371
-0.762951
-0.688881
-0.622499
-0.563203
-0.510444
-0.463726
-0.422605
-0.386682
-0.355606
-0.329068
-0.306804
-0.288588
-0.274236
-0.263598
-0.256567
-0.25307
-8.00899
-23.1288
-36.5092
-48.2636
-58.5014
-67.3318
-74.8578
-81.1774
-86.3901
-90.5888
-93.8601
-96.2869
-97.949
-98.9222
-99.278
-99.0831
-98.4002
-97.2875
-95.7991
-93.9854
-91.8929
-89.5648
-87.0405
-84.3563
-81.5451
-78.6369
-75.659
-72.6357
-69.589
-66.5383
-63.501
-60.4923
-57.5254
-54.6118
-51.7613
-48.9822
-46.2814
-43.6646
-41.1362
-38.6996
-36.3574
-34.1111
-31.9615
-29.9089
-27.953
-26.0926
-24.3266
-22.653
-21.0698
-19.5747
-18.165
-16.8379
-15.5905
-14.4199
-13.3227
-12.2959
-11.3364
-10.4409
-9.60618
-8.82924
-8.10698
-7.43638
-6.81453
-6.23859
-5.70581
-5.21353
-4.75923
-4.34045
-3.95487
-3.60026
-3.27451
-2.97562
-2.70167
-2.45089
-2.22158
-2.01215
-1.8211
-1.64704
-1.48867
-1.34477
-1.2142
-1.09591
-0.988927
-0.89235
-0.80535
-0.727163
-0.657093
-0.594501
-0.53881
-0.489496
-0.44609
-0.408171
-0.375368
-0.347356
-0.323854
-0.304626
-0.289476
-0.278247
-0.270826
-0.267134
-8.42865
-24.3407
-38.4222
-50.7926
-61.5668
-70.8598
-78.7802
-85.4309
-90.9168
-95.3355
-98.7782
-101.332
-103.081
-104.106
-104.48
-104.275
-103.556
-102.385
-100.819
-98.91
-96.708
-94.2579
-91.6013
-88.7764
-85.8179
-82.7573
-79.6234
-76.4417
-73.2353
-70.0248
-66.8284
-63.662
-60.5396
-57.4733
-54.4735
-51.5488
-48.7065
-45.9526
-43.2917
-40.7274
-38.2624
-35.8984
-33.6362
-31.4761
-29.4176
-27.4598
-25.6012
-23.84
-22.1738
-20.6004
-19.1168
-17.7202
-16.4075
-15.1754
-14.0208
-12.9402
-11.9304
-10.9879
-10.1095
-9.29188
-8.53177
-7.82604
-7.1716
-6.56548
-6.00478
-5.48672
-5.00861
-4.56789
-4.1621
-3.78891
-3.44609
-3.13154
-2.84324
-2.57932
-2.33799
-2.11758
-1.91652
-1.73335
-1.56668
-1.41524
-1.27782
-1.15334
-1.04075
-0.939109
-0.84755
-0.765266
-0.691524
-0.625653
-0.567044
-0.515146
-0.469465
-0.429559
-0.395037
-0.365557
-0.340824
-0.320589
-0.304644
-0.292828
-0.285017
-0.281132
-8.84623
-25.5466
-40.3258
-53.309
-64.617
-74.3704
-82.6831
-89.6634
-95.4211
-100.059
-103.672
-106.352
-108.188
-109.263
-109.656
-109.441
-108.687
-107.458
-105.814
-103.81
-101.499
-98.9277
-96.1395
-93.1746
-90.0695
-86.8574
-83.5681
-80.2288
-76.8636
-73.494
-70.1392
-66.816
-63.5389
-60.3207
-57.1722
-54.1026
-51.1195
-48.2292
-45.4365
-42.7452
-40.1581
-37.6769
-35.3027
-33.0355
-30.8751
-28.8203
-26.8696
-25.0211
-23.2724
-21.621
-20.0639
-18.5981
-17.2203
-15.9273
-14.7154
-13.5813
-12.5215
-11.5323
-10.6104
-9.75223
-8.95446
-8.21376
-7.52691
-6.89076
-6.30228
-5.75854
-5.25675
-4.79419
-4.36831
-3.97663
-3.61683
-3.28668
-2.9841
-2.7071
-2.45382
-2.22249
-2.01148
-1.81922
-1.6443
-1.48535
-1.34113
-1.21048
-1.09231
-0.985636
-0.889541
-0.803181
-0.725785
-0.65665
-0.595138
-0.540669
-0.492725
-0.450841
-0.414609
-0.383669
-0.357711
-0.336472
-0.319738
-0.307336
-0.299138
-0.295061
-9.26162
-26.7462
-42.2194
-55.8122
-67.6512
-77.8627
-86.5657
-93.8738
-99.9018
-104.757
-108.54
-111.346
-113.269
-114.394
-114.805
-114.58
-113.79
-112.504
-110.782
-108.685
-106.265
-103.573
-100.654
-97.5498
-94.2989
-90.9359
-87.4923
-83.9961
-80.4729
-76.9451
-73.4328
-69.9535
-66.5225
-63.1532
-59.8569
-56.6431
-53.52
-50.4939
-47.57
-44.7524
-42.0438
-39.4461
-36.9604
-34.5868
-32.3249
-30.1736
-28.1313
-26.196
-24.3652
-22.6362
-21.006
-19.4714
-18.029
-16.6752
-15.4064
-14.2191
-13.1094
-12.0738
-11.1086
-10.2102
-9.37494
-8.59946
-7.88035
-7.21433
-6.59822
-6.02895
-5.50359
-5.01932
-4.57343
-4.16336
-3.78666
-3.44102
-3.12423
-2.83422
-2.56905
-2.32686
-2.10593
-1.90465
-1.72151
-1.5551
-1.40411
-1.26732
-1.1436
-1.03192
-0.931312
-0.840897
-0.759867
-0.687486
-0.623085
-0.566058
-0.515863
-0.472013
-0.434079
-0.401686
-0.374508
-0.352273
-0.334753
-0.321768
-0.313186
-0.308917
-9.67473
-27.9392
-44.1025
-58.3017
-70.6688
-81.3357
-90.4269
-98.061
-104.358
-109.43
-113.381
-116.313
-118.321
-119.496
-119.926
-119.691
-118.866
-117.522
-115.724
-113.533
-111.005
-108.193
-105.144
-101.901
-98.5051
-94.9921
-91.3948
-87.7427
-84.0623
-80.3772
-76.7082
-73.0737
-69.4897
-65.9701
-62.5268
-59.1697
-55.9072
-52.7461
-49.6919
-46.7485
-43.9191
-41.2056
-38.609
-36.1295
-33.7667
-31.5195
-29.3861
-27.3644
-25.452
-23.6459
-21.943
-20.3399
-18.8331
-17.419
-16.0936
-14.8533
-13.6942
-12.6124
-11.6041
-10.6656
-9.79311
-8.98304
-8.23185
-7.53612
-6.89253
-6.29787
-5.74908
-5.2432
-4.77743
-4.34907
-3.95557
-3.59451
-3.26359
-2.96065
-2.68364
-2.43065
-2.19987
-1.98961
-1.7983
-1.62447
-1.46674
-1.32385
-1.19461
-1.07795
-0.972854
-0.878406
-0.793762
-0.718152
-0.650878
-0.591308
-0.538873
-0.493067
-0.453442
-0.419603
-0.391214
-0.367987
-0.349685
-0.336122
-0.327156
-0.322697
-10.0855
-29.1253
-45.9748
-60.7768
-73.6689
-84.7886
-94.2658
-102.224
-108.788
-114.075
-118.195
-121.251
-123.344
-124.569
-125.017
-124.772
-123.912
-122.511
-120.637
-118.353
-115.718
-112.786
-109.607
-106.227
-102.687
-99.0248
-95.2748
-91.4677
-87.631
-83.7895
-79.9647
-76.1759
-72.4398
-68.7708
-65.1812
-61.6816
-58.2806
-54.9854
-51.8014
-48.7331
-45.7836
-42.9549
-40.248
-37.6633
-35.2002
-32.8576
-30.6336
-28.5261
-26.5325
-24.6497
-22.8746
-21.2034
-19.6327
-18.1584
-16.7768
-15.4839
-14.2755
-13.1478
-12.0967
-11.1184
-10.2089
-9.3644
-8.58132
-7.85606
-7.18514
-6.56524
-5.99315
-5.4658
-4.98025
-4.5337
-4.1235
-3.74711
-3.40214
-3.08634
-2.79757
-2.53384
-2.29326
-2.07408
-1.87465
-1.69343
-1.52901
-1.38005
-1.24533
-1.12371
-1.01416
-0.915698
-0.82746
-0.748641
-0.678511
-0.616412
-0.561751
-0.514001
-0.472693
-0.437418
-0.407823
-0.38361
-0.364531
-0.350392
-0.341046
-0.336397
-10.4937
-30.3042
-47.8358
-63.2369
-76.6508
-88.2207
-98.0815
-106.362
-113.192
-118.693
-122.979
-126.159
-128.337
-129.612
-130.078
-129.823
-128.928
-127.47
-125.52
-123.143
-120.402
-117.351
-114.044
-110.527
-106.843
-103.033
-99.1313
-95.17
-91.1781
-87.181
-83.2015
-79.2593
-75.372
-71.5544
-67.8196
-64.1783
-60.6397
-57.211
-53.8982
-50.7057
-47.6368
-44.6936
-41.8772
-39.1878
-36.625
-34.1875
-31.8736
-29.6808
-27.6065
-25.6475
-23.8005
-22.0617
-20.4273
-18.8935
-17.4559
-16.1106
-14.8534
-13.68
-12.5864
-11.5684
-10.6221
-9.74345
-8.92868
-8.17405
-7.47598
-6.83099
-6.23574
-5.68704
-5.18184
-4.71722
-4.29041
-3.89878
-3.53985
-3.21127
-2.91081
-2.6364
-2.38609
-2.15803
-1.95053
-1.76198
-1.5909
-1.43591
-1.29574
-1.1692
-1.05521
-0.952765
-0.860955
-0.778945
-0.705977
-0.641364
-0.58449
-0.534807
-0.491827
-0.455124
-0.424332
-0.399138
-0.379287
-0.364576
-0.354852
-0.350014
-10.8993
-31.4756
-49.6849
-65.6814
-79.6139
-91.631
-101.873
-110.473
-117.567
-123.281
-127.733
-131.036
-133.298
-134.622
-135.106
-134.841
-133.912
-132.397
-130.372
-127.904
-125.056
-121.888
-118.452
-114.799
-110.974
-107.016
-102.963
-98.8489
-94.7027
-90.5511
-86.4177
-82.3232
-78.2855
-74.3204
-70.4412
-66.6592
-62.9838
-59.4226
-55.9817
-52.6658
-49.4783
-46.4213
-43.496
-40.7027
-38.0408
-35.5091
-33.1057
-30.8281
-28.6736
-26.6389
-24.7205
-22.9145
-21.217
-19.6238
-18.1307
-16.7334
-15.4276
-14.2088
-13.0729
-12.0156
-11.0327
-10.1201
-9.27383
-8.49003
-7.76498
-7.09505
-6.47679
-5.90688
-5.38215
-4.89957
-4.45626
-4.0495
-3.67669
-3.3354
-3.02333
-2.73832
-2.47833
-2.24146
-2.02593
-1.83009
-1.6524
-1.49142
-1.34583
-1.2144
-1.096
-0.989596
-0.894238
-0.809057
-0.733268
-0.666157
-0.607086
-0.555482
-0.51084
-0.472719
-0.440736
-0.414568
-0.39395
-0.37867
-0.36857
-0.363545
-11.3023
-32.6393
-51.5218
-68.1096
-82.5573
-95.0186
-105.639
-114.558
-121.914
-127.839
-132.455
-135.88
-138.226
-139.599
-140.101
-139.826
-138.863
-137.292
-135.192
-132.632
-129.679
-126.394
-122.832
-119.044
-115.076
-110.972
-106.77
-102.503
-98.2039
-93.8988
-89.6126
-85.3667
-81.1798
-77.0681
-73.0455
-69.1236
-65.3123
-61.6195
-58.0514
-54.6129
-51.3075
-48.1375
-45.1041
-42.2075
-39.4472
-36.8219
-34.3296
-31.9679
-29.7337
-27.6238
-25.6344
-23.7617
-22.0014
-20.3493
-18.801
-17.3521
-15.9979
-14.7342
-13.5563
-12.4598
-11.4406
-10.4942
-9.61669
-8.80392
-8.05205
-7.35736
-6.71625
-6.12527
-5.58114
-5.08071
-4.62101
-4.19921
-3.81262
-3.45872
-3.13511
-2.83956
-2.56995
-2.32433
-2.10083
-1.89775
-1.71349
-1.54656
-1.39559
-1.2593
-1.13652
-1.02618
-0.927299
-0.83897
-0.760379
-0.690787
-0.629531
-0.576019
-0.529727
-0.490196
-0.457031
-0.429896
-0.408516
-0.39267
-0.382197
-0.376987
-11.7025
-33.795
-53.346
-70.5211
-85.4803
-98.3828
-109.379
-118.614
-126.23
-132.365
-137.145
-140.691
-143.12
-144.542
-145.062
-144.777
-143.779
-142.153
-139.978
-137.328
-134.271
-130.869
-127.181
-123.258
-119.151
-114.901
-110.55
-106.133
-101.681
-97.2234
-92.7854
-88.3892
-84.054
-79.7968
-75.6317
-71.571
-67.6248
-63.8012
-60.1067
-56.5465
-53.1241
-49.8418
-46.701
-43.7019
-40.8439
-38.1256
-35.5451
-33.0997
-30.7865
-28.6018
-26.542
-24.603
-22.7804
-21.0698
-19.4667
-17.9664
-16.5644
-15.2558
-14.0362
-12.901
-11.8457
-10.8658
-9.95718
-9.11563
-8.33715
-7.61786
-6.95404
-6.34214
-5.77874
-5.2606
-4.78463
-4.34789
-3.94761
-3.58118
-3.24611
-2.9401
-2.66095
-2.40662
-2.17522
-1.96495
-1.77416
-1.60132
-1.445
-1.30388
-1.17676
-1.06252
-0.960133
-0.868676
-0.787302
-0.715246
-0.651821
-0.596415
-0.548484
-0.507553
-0.473214
-0.445118
-0.42298
-0.406574
-0.39573
-0.390335
-12.0997
-34.9422
-55.157
-72.9152
-88.3822
-101.723
-113.093
-122.64
-130.516
-136.859
-141.801
-145.467
-147.978
-149.449
-149.986
-149.692
-148.66
-146.979
-144.73
-141.99
-138.829
-135.312
-131.498
-127.443
-123.196
-118.802
-114.303
-109.736
-105.133
-100.524
-95.9353
-91.3898
-86.9075
-82.5057
-78.1993
-74.0007
-69.9205
-65.9671
-62.1473
-58.4662
-54.9276
-51.5339
-48.2864
-45.1855
-42.2304
-39.4199
-36.7518
-34.2234
-31.8316
-29.5728
-27.4431
-25.4382
-23.5537
-21.7851
-20.1276
-18.5764
-17.1267
-15.7737
-14.5127
-13.339
-12.2478
-11.2347
-10.2952
-9.4251
-8.62018
-7.87647
-7.19012
-6.55745
-5.97492
-5.43919
-4.94706
-4.4955
-4.08163
-3.70276
-3.35632
-3.03991
-2.75128
-2.48833
-2.24906
-2.03166
-1.83439
-1.65568
-1.49406
-1.34815
-1.21671
-1.09859
-0.992729
-0.898167
-0.81403
-0.739528
-0.673951
-0.616663
-0.567105
-0.524785
-0.489279
-0.46023
-0.437341
-0.420377
-0.409165
-0.403587
-12.494
-36.0809
-56.9544
-75.2913
-91.2623
-105.038
-116.778
-126.637
-134.769
-141.319
-146.422
-150.208
-152.8
-154.319
-154.874
-154.57
-153.505
-151.769
-149.447
-146.617
-143.353
-139.721
-135.783
-131.596
-127.21
-122.674
-118.028
-113.312
-108.559
-103.8
-99.0616
-94.368
-89.7396
-85.1943
-80.7476
-76.4122
-72.199
-68.1168
-64.1725
-60.3714
-56.7175
-53.2132
-49.8599
-46.6579
-43.6066
-40.7045
-37.9494
-35.3387
-32.8689
-30.5365
-28.3374
-26.2672
-24.3213
-22.495
-20.7835
-19.1817
-17.6848
-16.2878
-14.9857
-13.7737
-12.6469
-11.6008
-10.6307
-9.73224
-8.90109
-8.13315
-7.42443
-6.77114
-6.16963
-5.61644
-5.10827
-4.64199
-4.21464
-3.82342
-3.46569
-3.13897
-2.84094
-2.56941
-2.32235
-2.09786
-1.89417
-1.70964
-1.54275
-1.39208
-1.25636
-1.13439
-1.02508
-0.927437
-0.840558
-0.763629
-0.695914
-0.636759
-0.585586
-0.541887
-0.505225
-0.475229
-0.451594
-0.434077
-0.422499
-0.41674
-12.8852
-37.2107
-58.7377
-77.6488
-94.1199
-108.327
-120.435
-130.602
-138.989
-145.744
-151.006
-154.911
-157.585
-159.151
-159.723
-159.41
-158.311
-156.521
-154.126
-151.208
-147.842
-144.096
-140.035
-135.716
-131.193
-126.515
-121.724
-116.86
-111.958
-107.05
-102.163
-97.3228
-92.5495
-87.8619
-83.2759
-78.8048
-74.4597
-70.2496
-66.1818
-62.2618
-58.4934
-54.8794
-51.4211
-48.1189
-44.972
-41.979
-39.1377
-36.4452
-33.8981
-31.4927
-29.2247
-27.0896
-25.0828
-23.1994
-21.4342
-19.7823
-18.2385
-16.7978
-15.4549
-14.2049
-13.0429
-11.964
-10.9636
-10.037
-9.1798
-8.38781
-7.65691
-6.98316
-6.36282
-5.79231
-5.26823
-4.78735
-4.34661
-3.94314
-3.57421
-3.23726
-2.9299
-2.64987
-2.39507
-2.16355
-1.95348
-1.76317
-1.59105
-1.43567
-1.2957
-1.16991
-1.05718
-0.956478
-0.866879
-0.78754
-0.717705
-0.656699
-0.603923
-0.558855
-0.521045
-0.49011
-0.465735
-0.44767
-0.43573
-0.42979
-13.2733
-38.3312
-60.5066
-79.9872
-96.9543
-111.589
-124.061
-134.535
-143.174
-150.133
-155.554
-159.576
-162.331
-163.944
-164.533
-164.21
-163.079
-161.234
-158.768
-155.762
-152.294
-148.436
-144.252
-139.803
-135.144
-130.325
-125.389
-120.379
-115.329
-110.274
-105.24
-100.254
-95.3365
-90.5078
-85.7837
-81.1779
-76.702
-72.3651
-68.1748
-64.1367
-60.2549
-56.5321
-52.9697
-49.568
-46.3263
-43.2432
-40.3163
-37.5427
-34.9189
-32.4411
-30.1048
-27.9054
-25.8382
-23.898
-22.0797
-20.3781
-18.7878
-17.3036
-15.9203
-14.6327
-13.4357
-12.3243
-11.2937
-10.3392
-9.45625
-8.64041
-7.88749
-7.19346
-6.55443
-5.96674
-5.42688
-4.93152
-4.47751
-4.06189
-3.68185
-3.33475
-3.01813
-2.72967
-2.4672
-2.22871
-2.01231
-1.81627
-1.63897
-1.47891