/*--------------------------------*- C++ -*----------------------------------*\
| =========                 |                                                 |
| \\      /  F ield         | OpenFOAM: The Open Source CFD Toolbox           |
|  \\    /   O peration     | Version:  2406                                  |
|   \\  /    A nd           | Website:  www.openfoam.com                      |
|    \\/     M anipulation  |                                                 |
\*---------------------------------------------------------------------------*/
FoamFile
{
    version     2.0;
    format      ascii;
    arch        "LSB;label=32;scalar=64";
    class       volVectorField;
    location    "190";
    object      flux;
}
// * * * * * * * * * * * * * * * * * * * * * * * * * * * * * * * * * * * * * //

dimensions      [0 1 -1 1 0 0 0];

internalField   nonuniform List<vector> 
20000
(
(0.000839776 -0.0806576 0)
(0.000883844 -0.0789313 0)
(0.000922775 -0.0771224 0)
(0.000956785 -0.0752405 0)
(0.000986017 -0.0732956 0)
(0.00101081 -0.0712966 0)
(0.00103156 -0.0692524 0)
(0.00104846 -0.0671706 0)
(0.00106145 -0.065059 0)
(0.00107097 -0.0629251 0)
(0.00107746 -0.0607752 0)
(0.00108085 -0.0586155 0)
(0.00108128 -0.0564522 0)
(0.00107907 -0.0542907 0)
(0.00107448 -0.0521361 0)
(0.00106764 -0.049993 0)
(0.00105867 -0.0478658 0)
(0.00104773 -0.0457586 0)
(0.00103498 -0.0436752 0)
(0.00102061 -0.041619 0)
(0.00100477 -0.039593 0)
(0.000987584 -0.0376001 0)
(0.000969177 -0.0356429 0)
(0.000949662 -0.0337236 0)
(0.000929157 -0.0318445 0)
(0.000907774 -0.0300073 0)
(0.000885625 -0.0282136 0)
(0.000862811 -0.026465 0)
(0.000839431 -0.0247626 0)
(0.000815573 -0.0231075 0)
(0.000791322 -0.0215005 0)
(0.000766756 -0.0199424 0)
(0.000741948 -0.0184336 0)
(0.000716969 -0.0169748 0)
(0.000691881 -0.0155659 0)
(0.000666748 -0.0142074 0)
(0.000641624 -0.0128991 0)
(0.000616563 -0.0116411 0)
(0.000591614 -0.010433 0)
(0.000566822 -0.00927475 0)
(0.000542229 -0.00816588 0)
(0.000517873 -0.00710597 0)
(0.000493791 -0.00609451 0)
(0.000470013 -0.00513093 0)
(0.00044657 -0.00421457 0)
(0.000423488 -0.00334475 0)
(0.000400791 -0.00252072 0)
(0.0003785 -0.00174169 0)
(0.000356635 -0.00100682 0)
(0.000335212 -0.000315236 0)
(0.000314245 0.000333949 0)
(0.000293749 0.000941668 0)
(0.000273733 0.00150887 0)
(0.000254206 0.00203653 0)
(0.000235176 0.00252563 0)
(0.00021665 0.00297718 0)
(0.000198631 0.00339218 0)
(0.000181122 0.00377165 0)
(0.000164126 0.00411662 0)
(0.000147643 0.00442812 0)
(0.000131673 0.00470716 0)
(0.000116214 0.00495477 0)
(0.000101265 0.00517199 0)
(8.6822e-05 0.00535981 0)
(7.28817e-05 0.00551925 0)
(5.94397e-05 0.00565132 0)
(4.6491e-05 0.005757 0)
(3.403e-05 0.00583727 0)
(2.20508e-05 0.00589311 0)
(1.05471e-05 0.00592547 0)
(-4.87777e-07 0.00593529 0)
(-1.10609e-05 0.00592352 0)
(-2.11794e-05 0.00589105 0)
(-3.08507e-05 0.0058388 0)
(-4.00823e-05 0.00576766 0)
(-4.88817e-05 0.00567849 0)
(-5.72566e-05 0.00557214 0)
(-6.52145e-05 0.00544947 0)
(-7.27631e-05 0.0053113 0)
(-7.99099e-05 0.00515844 0)
(-8.66621e-05 0.00499168 0)
(-9.30271e-05 0.00481181 0)
(-9.90118e-05 0.0046196 0)
(-0.000104623 0.00441579 0)
(-0.000109868 0.00420113 0)
(-0.000114752 0.00397634 0)
(-0.000119281 0.00374215 0)
(-0.000123462 0.00349925 0)
(-0.0001273 0.00324833 0)
(-0.000130799 0.00299008 0)
(-0.000133965 0.00272517 0)
(-0.000136802 0.00245425 0)
(-0.000139313 0.002178 0)
(-0.000141503 0.00189704 0)
(-0.000143374 0.00161202 0)
(-0.000144929 0.00132358 0)
(-0.00014617 0.00103234 0)
(-0.0001471 0.000738933 0)
(-0.000147718 0.000443978 0)
(-0.000148028 0.000148096 0)
(0.00251915 -0.0806377 0)
(0.00265134 -0.0789117 0)
(0.00276803 -0.0771032 0)
(0.00287001 -0.075222 0)
(0.00295785 -0.0732776 0)
(0.00303241 -0.0712791 0)
(0.00309444 -0.0692352 0)
(0.0031449 -0.0671541 0)
(0.00318409 -0.0650431 0)
(0.00321282 -0.0629095 0)
(0.00323211 -0.0607601 0)
(0.00324218 -0.0586011 0)
(0.00324353 -0.0564383 0)
(0.00323698 -0.0542774 0)
(0.00322322 -0.0521232 0)
(0.00320267 -0.0499806 0)
(0.00317574 -0.047854 0)
(0.0031429 -0.0457473 0)
(0.00310468 -0.0436644 0)
(0.00306159 -0.0416087 0)
(0.00301407 -0.0395832 0)
(0.00296252 -0.0375908 0)
(0.00290729 -0.0356341 0)
(0.00284875 -0.0337153 0)
(0.00278724 -0.0318366 0)
(0.0027231 -0.0299998 0)
(0.00265665 -0.0282066 0)
(0.00258822 -0.0264584 0)
(0.00251809 -0.0247565 0)
(0.00244652 -0.0231018 0)
(0.00237377 -0.0214952 0)
(0.00230008 -0.0199374 0)
(0.00222566 -0.0184291 0)
(0.00215073 -0.0169706 0)
(0.00207547 -0.0155621 0)
(0.00200008 -0.0142039 0)
(0.00192471 -0.0128959 0)
(0.00184954 -0.0116382 0)
(0.0017747 -0.0104304 0)
(0.00170033 -0.00927246 0)
(0.00162655 -0.00816386 0)
(0.00155349 -0.00710421 0)
(0.00148125 -0.00609301 0)
(0.00140992 -0.00512966 0)
(0.0013396 -0.00421353 0)
(0.00127036 -0.00334393 0)
(0.00120227 -0.0025201 0)
(0.00113541 -0.00174126 0)
(0.00106982 -0.00100657 0)
(0.00100555 -0.000315158 0)
(0.000942659 0.000333867 0)
(0.000881174 0.000941436 0)
(0.00082113 0.0015085 0)
(0.000762555 0.00203603 0)
(0.000705471 0.00252501 0)
(0.000649896 0.00297644 0)
(0.000595843 0.00339134 0)
(0.000543322 0.00377072 0)
(0.000492337 0.00411561 0)
(0.000442892 0.00442702 0)
(0.000394986 0.004706 0)
(0.000348614 0.00495355 0)
(0.00030377 0.00517071 0)
(0.000260444 0.00535849 0)
(0.000218627 0.00551789 0)
(0.000178304 0.00564992 0)
(0.000139461 0.00575558 0)
(0.000102082 0.00583583 0)
(6.61471e-05 0.00589165 0)
(3.16388e-05 0.00592401 0)
(-1.46321e-06 0.00593383 0)
(-3.318e-05 0.00592206 0)
(-6.35331e-05 0.0058896 0)
(-9.25445e-05 0.00583736 0)
(-0.000120237 0.00576623 0)
(-0.000146633 0.00567708 0)
(-0.000171756 0.00557077 0)
(-0.000195628 0.00544813 0)
(-0.000218271 0.00530999 0)
(-0.00023971 0.00515717 0)
(-0.000259965 0.00499045 0)
(-0.000279058 0.00481062 0)
(-0.000297011 0.00461846 0)
(-0.000313844 0.0044147 0)
(-0.000329576 0.00420009 0)
(-0.000344227 0.00397536 0)
(-0.000357814 0.00374123 0)
(-0.000370356 0.00349839 0)
(-0.000381868 0.00324753 0)
(-0.000392365 0.00298934 0)
(-0.000401862 0.0027245 0)
(-0.000410371 0.00245365 0)
(-0.000417905 0.00217746 0)
(-0.000424473 0.00189657 0)
(-0.000430086 0.00161162 0)
(-0.000434751 0.00132325 0)
(-0.000438474 0.00103208 0)
(-0.000441262 0.00073875 0)
(-0.000443119 0.000443868 0)
(-0.000444046 0.000148059 0)
(0.004198 -0.080598 0)
(0.00441828 -0.0788728 0)
(0.00461255 -0.0770651 0)
(0.00478245 -0.0751848 0)
(0.00492887 -0.0732413 0)
(0.00505323 -0.0712439 0)
(0.0051566 -0.069201 0)
(0.00524053 -0.0671209 0)
(0.00530596 -0.065011 0)
(0.00535395 -0.0628785 0)
(0.00538595 -0.0607301 0)
(0.00540264 -0.0585722 0)
(0.00540496 -0.0564105 0)
(0.00539414 -0.0542506 0)
(0.0053712 -0.0520975 0)
(0.00533691 -0.0499559 0)
(0.005292 -0.0478303 0)
(0.00523727 -0.0457248 0)
(0.0051736 -0.0436429 0)
(0.00510181 -0.0415882 0)
(0.00502264 -0.0395637 0)
(0.00493673 -0.0375723 0)
(0.0048447 -0.0356165 0)
(0.00474713 -0.0336987 0)
(0.00464462 -0.0318209 0)
(0.00453774 -0.029985 0)
(0.00442702 -0.0281927 0)
(0.00431299 -0.0264454 0)
(0.00419612 -0.0247443 0)
(0.00407686 -0.0230904 0)
(0.00395564 -0.0214846 0)
(0.00383284 -0.0199276 0)
(0.00370883 -0.01842 0)
(0.00358396 -0.0169622 0)
(0.00345855 -0.0155544 0)
(0.00333292 -0.0141969 0)
(0.00320733 -0.0128896 0)
(0.00308205 -0.0116324 0)
(0.00295734 -0.0104253 0)
(0.00283341 -0.00926788 0)
(0.00271048 -0.00815983 0)
(0.00258873 -0.00710071 0)
(0.00246835 -0.00609 0)
(0.00234949 -0.00512713 0)
(0.0022323 -0.00421145 0)
(0.00211692 -0.00334228 0)
(0.00200346 -0.00251886 0)
(0.00189204 -0.0017404 0)
(0.00178273 -0.00100607 0)
(0.00167565 -0.000315003 0)
(0.00157084 0.000333702 0)
(0.00146838 0.000940971 0)
(0.00136833 0.00150775 0)
(0.00127072 0.00203502 0)
(0.00117559 0.00252376 0)
(0.00108298 0.00297498 0)
(0.000992909 0.00338967 0)
(0.000905387 0.00376886 0)
(0.000820427 0.00411358 0)
(0.000738032 0.00442484 0)
(0.000658201 0.00470367 0)
(0.000580927 0.00495111 0)
(0.000506199 0.00516816 0)
(0.000434003 0.00535584 0)
(0.000364319 0.00551517 0)
(0.000297125 0.00564713 0)
(0.000232397 0.00575274 0)
(0.000170108 0.00583295 0)
(0.000110227 0.00588875 0)
(5.27227e-05 0.00592108 0)
(-2.4383e-06 0.0059309 0)
(-5.52909e-05 0.00591913 0)
(-0.000105871 0.00588669 0)
(-0.000154216 0.00583448 0)
(-0.000200362 0.00576339 0)
(-0.000244348 0.00567428 0)
(-0.000286212 0.00556802 0)
(-0.000325992 0.00544544 0)
(-0.000363726 0.00530737 0)
(-0.000399451 0.00515462 0)
(-0.000433204 0.00498799 0)
(-0.000465021 0.00480825 0)
(-0.000494937 0.00461618 0)
(-0.000522987 0.00441252 0)
(-0.000549203 0.00419802 0)
(-0.000573617 0.0039734 0)
(-0.000596259 0.00373938 0)
(-0.000617158 0.00349666 0)
(-0.000636342 0.00324593 0)
(-0.000653834 0.00298787 0)
(-0.00066966 0.00272315 0)
(-0.00068384 0.00245244 0)
(-0.000696394 0.00217638 0)
(-0.000707339 0.00189563 0)
(-0.000716692 0.00161083 0)
(-0.000724465 0.0013226 0)
(-0.00073067 0.00103158 0)
(-0.000735316 0.000738386 0)
(-0.00073841 0.000443649 0)
(-0.000739955 0.000147986 0)
(0.00587577 -0.0805383 0)
(0.00618424 -0.0788146 0)
(0.0064561 -0.0770081 0)
(0.00669377 -0.0751291 0)
(0.00689866 -0.0731871 0)
(0.00707271 -0.0711912 0)
(0.00721749 -0.0691498 0)
(0.00733495 -0.0670712 0)
(0.00742652 -0.0649628 0)
(0.00749371 -0.0628319 0)
(0.00753843 -0.0606852 0)
(0.00756178 -0.0585288 0)
(0.00756509 -0.0563687 0)
(0.00754999 -0.0542104 0)
(0.00751786 -0.0520589 0)
(0.00746983 -0.0499189 0)
(0.00740693 -0.0477949 0)
(0.00733034 -0.0456909 0)
(0.00724125 -0.0436106 0)
(0.00714079 -0.0415574 0)
(0.00702998 -0.0395344 0)
(0.00690973 -0.0375444 0)
(0.00678091 -0.0355901 0)
(0.00664434 -0.0336737 0)
(0.00650086 -0.0317973 0)
(0.00635126 -0.0299628 0)
(0.0061963 -0.0281719 0)
(0.00603669 -0.0264258 0)
(0.00587312 -0.0247259 0)
(0.0057062 -0.0230733 0)
(0.00553653 -0.0214687 0)
(0.00536465 -0.0199129 0)
(0.00519108 -0.0184064 0)
(0.00501631 -0.0169496 0)
(0.00484078 -0.0155429 0)
(0.00466493 -0.0141864 0)
(0.00448915 -0.01288 0)
(0.00431381 -0.0116238 0)
(0.00413925 -0.0104176 0)
(0.00396579 -0.00926102 0)
(0.00379373 -0.00815379 0)
(0.00362333 -0.00709545 0)
(0.00345483 -0.00608549 0)
(0.00328847 -0.00512333 0)
(0.00312445 -0.00420833 0)
(0.00296296 -0.0033398 0)
(0.00280415 -0.00251699 0)
(0.0026482 -0.00173911 0)
(0.00249521 -0.00100532 0)
(0.00234532 -0.000314769 0)
(0.00219863 0.000333455 0)
(0.00205523 0.000940275 0)
(0.00191518 0.00150664 0)
(0.00177856 0.00203352 0)
(0.00164542 0.0025219 0)
(0.0015158 0.00297277 0)
(0.00138973 0.00338716 0)
(0.00126723 0.00376607 0)
(0.00114831 0.00411053 0)
(0.00103299 0.00442156 0)
(0.000921254 0.00470019 0)
(0.000813097 0.00494744 0)
(0.000708504 0.00516433 0)
(0.000607454 0.00535188 0)
(0.00050992 0.00551108 0)
(0.000415872 0.00564295 0)
(0.000325276 0.00574848 0)
(0.000238092 0.00582863 0)
(0.00015428 0.00588439 0)
(7.37936e-05 0.0059167 0)
(-3.41279e-06 0.00592651 0)
(-7.73881e-05 0.00591475 0)
(-0.000148183 0.00588233 0)
(-0.000215849 0.00583016 0)
(-0.000280438 0.00575912 0)
(-0.000342003 0.00567008 0)
(-0.000400598 0.0055639 0)
(-0.000456276 0.00544141 0)
(-0.000509091 0.00530344 0)
(-0.000559093 0.0051508 0)
(-0.000606336 0.00498429 0)
(-0.000650868 0.00480469 0)
(-0.000692741 0.00461276 0)
(-0.000732001 0.00440925 0)
(-0.000768694 0.00419491 0)
(-0.000802865 0.00397046 0)
(-0.000834557 0.00373661 0)
(-0.000863809 0.00349407 0)
(-0.000890659 0.00324352 0)
(-0.000915142 0.00298566 0)
(-0.000937293 0.00272113 0)
(-0.000957139 0.00245062 0)
(-0.00097471 0.00217477 0)
(-0.00099003 0.00189423 0)
(-0.00100312 0.00160963 0)
(-0.001014 0.00132162 0)
(-0.00102269 0.00103081 0)
(-0.00102919 0.000737839 0)
(-0.00103352 0.000443321 0)
(-0.00103568 0.000147876 0)
(0.00755194 -0.0804586 0)
(0.00794854 -0.0787368 0)
(0.0082981 -0.0769321 0)
(0.00860346 -0.0750549 0)
(0.00886679 -0.0731148 0)
(0.00909047 -0.0711208 0)
(0.00927659 -0.0690815 0)
(0.00942756 -0.0670049 0)
(0.00954524 -0.0648986 0)
(0.00963161 -0.0627699 0)
(0.00968905 -0.0606252 0)
(0.00971906 -0.058471 0)
(0.00972336 -0.056313 0)
(0.00970397 -0.0541568 0)
(0.00966266 -0.0520075 0)
(0.00960088 -0.0498696 0)
(0.00952003 -0.0477477 0)
(0.0094216 -0.0456458 0)
(0.00930712 -0.0435675 0)
(0.00917802 -0.0415163 0)
(0.00903559 -0.0394953 0)
(0.00888103 -0.0375073 0)
(0.00871544 -0.0355549 0)
(0.00853991 -0.0336404 0)
(0.00835549 -0.0317659 0)
(0.00816321 -0.0299332 0)
(0.00796404 -0.028144 0)
(0.00775891 -0.0263997 0)
(0.00754867 -0.0247015 0)
(0.00733413 -0.0230505 0)
(0.00711605 -0.0214475 0)
(0.00689514 -0.0198932 0)
(0.00667205 -0.0183882 0)
(0.00644742 -0.0169329 0)
(0.00622182 -0.0155276 0)
(0.0059958 -0.0141724 0)
(0.00576987 -0.0128673 0)
(0.0055445 -0.0116123 0)
(0.00532015 -0.0104073 0)
(0.0050972 -0.00925187 0)
(0.00487605 -0.00814573 0)
(0.00465703 -0.00708844 0)
(0.00444046 -0.00607948 0)
(0.00422664 -0.00511827 0)
(0.00401583 -0.00420418 0)
(0.00380826 -0.0033365 0)
(0.00360416 -0.0025145 0)
(0.0034037 -0.00173739 0)
(0.00320708 -0.00100433 0)
(0.00301442 -0.000314458 0)
(0.00282588 0.000333126 0)
(0.00264156 0.000939346 0)
(0.00246157 0.00150515 0)
(0.00228597 0.00203151 0)
(0.00211485 0.0025194 0)
(0.00194825 0.00296984 0)
(0.00178621 0.00338381 0)
(0.00162876 0.00376235 0)
(0.00147592 0.00410647 0)
(0.00132769 0.00441719 0)
(0.00118408 0.00469555 0)
(0.00104507 0.00494255 0)
(0.000910634 0.00515923 0)
(0.000780755 0.00534659 0)
(0.000655396 0.00550564 0)
(0.000534517 0.00563738 0)
(0.000418074 0.0057428 0)
(0.000306018 0.00582287 0)
(0.000198294 0.00587857 0)
(9.48462e-05 0.00591085 0)
(-4.38645e-06 0.00592065 0)
(-9.94663e-05 0.00590891 0)
(-0.000190458 0.00587652 0)
(-0.000277428 0.0058244 0)
(-0.000360444 0.00575343 0)
(-0.000439574 0.00566448 0)
(-0.000514885 0.0055584 0)
(-0.000586448 0.00543603 0)
(-0.00065433 0.0052982 0)
(-0.000718598 0.00514572 0)
(-0.000779318 0.00497937 0)
(-0.000836555 0.00479994 0)
(-0.000890374 0.0046082 0)
(-0.000940834 0.0044049 0)
(-0.000987996 0.00419077 0)
(-0.00103192 0.00396654 0)
(-0.00107265 0.00373292 0)
(-0.00111025 0.00349062 0)
(-0.00114476 0.00324032 0)
(-0.00117622 0.00298271 0)
(-0.00120469 0.00271845 0)
(-0.0012302 0.0024482 0)
(-0.00125279 0.00217262 0)
(-0.00127248 0.00189236 0)
(-0.0012893 0.00160804 0)
(-0.00130329 0.00132031 0)
(-0.00131445 0.00102979 0)
(-0.00132281 0.00073711 0)
(-0.00132837 0.000442883 0)
(-0.00133115 0.00014773 0)
(0.00922617 -0.0803591 0)
(0.00971075 -0.0786394 0)
(0.010138 -0.076837 0)
(0.010511 -0.0749622 0)
(0.0108327 -0.0730245 0)
(0.011106 -0.071033 0)
(0.0113334 -0.0689961 0)
(0.0115178 -0.0669221 0)
(0.0116616 -0.0648185 0)
(0.0117671 -0.0626923 0)
(0.0118373 -0.0605503 0)
(0.011874 -0.0583987 0)
(0.0118792 -0.0562435 0)
(0.0118556 -0.0540899 0)
(0.0118051 -0.0519432 0)
(0.0117296 -0.049808 0)
(0.0116308 -0.0476887 0)
(0.0115105 -0.0455894 0)
(0.0113707 -0.0435137 0)
(0.011213 -0.041465 0)
(0.011039 -0.0394465 0)
(0.0108501 -0.037461 0)
(0.0106478 -0.035511 0)
(0.0104334 -0.0335989 0)
(0.0102081 -0.0317267 0)
(0.00997315 -0.0298963 0)
(0.00972982 -0.0281093 0)
(0.00947921 -0.0263671 0)
(0.00922236 -0.024671 0)
(0.00896025 -0.023022 0)
(0.00869382 -0.021421 0)
(0.00842393 -0.0198686 0)
(0.00815138 -0.0183655 0)
(0.00787694 -0.016912 0)
(0.00760131 -0.0155084 0)
(0.00732518 -0.0141548 0)
(0.00704916 -0.0128514 0)
(0.00677383 -0.011598 0)
(0.00649973 -0.0103944 0)
(0.00622735 -0.00924044 0)
(0.00595716 -0.00813567 0)
(0.00568958 -0.00707968 0)
(0.005425 -0.00607197 0)
(0.00516377 -0.00511195 0)
(0.00490622 -0.00419898 0)
(0.00465263 -0.00333238 0)
(0.00440327 -0.0025114 0)
(0.00415837 -0.00173524 0)
(0.00391815 -0.00100309 0)
(0.00368278 -0.000314069 0)
(0.00345244 0.000332715 0)
(0.00322725 0.000938186 0)
(0.00300734 0.00150329 0)
(0.00279282 0.002029 0)
(0.00258375 0.00251629 0)
(0.00238021 0.00296617 0)
(0.00218224 0.00337963 0)
(0.00198989 0.0037577 0)
(0.00180316 0.0041014 0)
(0.00162207 0.00441174 0)
(0.00144661 0.00468975 0)
(0.00127678 0.00493645 0)
(0.00111254 0.00515286 0)
(0.000953864 0.00533998 0)
(0.00080071 0.00549884 0)
(0.00065303 0.00563041 0)
(0.00051077 0.0057357 0)
(0.000373868 0.00581568 0)
(0.00024226 0.00587131 0)
(0.000115875 0.00590355 0)
(-5.35904e-06 0.00591334 0)
(-0.00012152 0.00590161 0)
(-0.000232686 0.00586926 0)
(-0.000338939 0.00581721 0)
(-0.000440361 0.00574632 0)
(-0.000537036 0.00565748 0)
(-0.000629046 0.00555153 0)
(-0.000716475 0.00542932 0)
(-0.000799407 0.00529165 0)
(-0.000877925 0.00513936 0)
(-0.000952108 0.00497322 0)
(-0.00102204 0.00479401 0)
(-0.00108779 0.00460251 0)
(-0.00114944 0.00439945 0)
(-0.00120705 0.00418559 0)
(-0.00126071 0.00396164 0)
(-0.00131048 0.00372831 0)
(-0.00135641 0.00348631 0)
(-0.00139857 0.00323632 0)
(-0.00143702 0.00297902 0)
(-0.0014718 0.00271509 0)
(-0.00150296 0.00244518 0)
(-0.00153055 0.00216994 0)
(-0.00155461 0.00189002 0)
(-0.00157517 0.00160606 0)
(-0.00159225 0.00131868 0)
(-0.00160589 0.00102852 0)
(-0.0016161 0.000736199 0)
(-0.0016229 0.000442336 0)
(-0.00162629 0.000147548 0)
(0.0108982 -0.0802399 0)
(0.0114706 -0.0785227 0)
(0.0119753 -0.076723 0)
(0.012416 -0.074851 0)
(0.012796 -0.0729161 0)
(0.0131188 -0.0709276 0)
(0.0133874 -0.0688938 0)
(0.0136052 -0.0668228 0)
(0.0137751 -0.0647223 0)
(0.0138998 -0.0625993 0)
(0.0139826 -0.0604605 0)
(0.0140259 -0.0583121 0)
(0.0140322 -0.05616 0)
(0.0140042 -0.0540097 0)
(0.0139446 -0.0518661 0)
(0.0138553 -0.0497341 0)
(0.0137387 -0.047618 0)
(0.0135966 -0.0455218 0)
(0.0134315 -0.0434491 0)
(0.0132452 -0.0414035 0)
(0.0130396 -0.039388 0)
(0.0128166 -0.0374054 0)
(0.0125776 -0.0354583 0)
(0.0123242 -0.033549 0)
(0.0120581 -0.0316796 0)
(0.0117806 -0.0298519 0)
(0.0114932 -0.0280676 0)
(0.0111972 -0.026328 0)
(0.0108938 -0.0246344 0)
(0.0105842 -0.0229878 0)
(0.0102694 -0.0213892 0)
(0.00995064 -0.0198391 0)
(0.00962869 -0.0183382 0)
(0.00930451 -0.0168869 0)
(0.00897894 -0.0154854 0)
(0.00865276 -0.0141338 0)
(0.00832671 -0.0128323 0)
(0.00800148 -0.0115808 0)
(0.0076777 -0.010379 0)
(0.00735596 -0.00922673 0)
(0.00703681 -0.0081236 0)
(0.00672073 -0.00706918 0)
(0.0064082 -0.00606296 0)
(0.00609963 -0.00510436 0)
(0.00579539 -0.00419275 0)
(0.00549585 -0.00332744 0)
(0.00520129 -0.00250767 0)
(0.00491201 -0.00173267 0)
(0.00462825 -0.0010016 0)
(0.00435023 -0.000313602 0)
(0.00407814 0.000332222 0)
(0.00381214 0.000936794 0)
(0.00355238 0.00150106 0)
(0.00329897 0.00202599 0)
(0.00305202 0.00251256 0)
(0.00281159 0.00296177 0)
(0.00257774 0.00337462 0)
(0.00235052 0.00375213 0)
(0.00212995 0.00409531 0)
(0.00191604 0.00440519 0)
(0.00170879 0.00468279 0)
(0.00150818 0.00492912 0)
(0.00131417 0.00514521 0)
(0.00112674 0.00533206 0)
(0.000945826 0.00549068 0)
(0.000771382 0.00562206 0)
(0.000603339 0.00572719 0)
(0.000441626 0.00580705 0)
(0.000286166 0.0058626 0)
(0.000136876 0.00589479 0)
(-6.33031e-06 0.00590457 0)
(-0.000143544 0.00589285 0)
(-0.000274857 0.00586055 0)
(-0.000400367 0.00580858 0)
(-0.00052017 0.0057378 0)
(-0.000634365 0.00564909 0)
(-0.000743051 0.00554329 0)
(-0.000846325 0.00542126 0)
(-0.000944288 0.0052838 0)
(-0.00103704 0.00513173 0)
(-0.00112466 0.00496584 0)
(-0.00120726 0.0047869 0)
(-0.00128493 0.00459568 0)
(-0.00135775 0.00439293 0)
(-0.00142581 0.00417938 0)
(-0.0014892 0.00395576 0)
(-0.00154798 0.00372278 0)
(-0.00160224 0.00348113 0)
(-0.00165204 0.00323151 0)
(-0.00169745 0.0029746 0)
(-0.00173854 0.00271106 0)
(-0.00177535 0.00244155 0)
(-0.00180794 0.00216672 0)
(-0.00183636 0.00188721 0)
(-0.00186064 0.00160367 0)
(-0.00188082 0.00131672 0)
(-0.00189693 0.00102699 0)
(-0.00190899 0.000735107 0)
(-0.00191702 0.000441679 0)
(-0.00192104 0.000147329 0)
(0.0125676 -0.0801009 0)
(0.0132276 -0.0783866 0)
(0.0138097 -0.0765901 0)
(0.0143179 -0.0747213 0)
(0.0147561 -0.0727898 0)
(0.0151284 -0.0708047 0)
(0.0154381 -0.0687744 0)
(0.0156893 -0.0667071 0)
(0.0158851 -0.0646102 0)
(0.016029 -0.0624908 0)
(0.0161245 -0.0603557 0)
(0.0161744 -0.058211 0)
(0.0161817 -0.0560627 0)
(0.0161494 -0.0539161 0)
(0.0160806 -0.0517763 0)
(0.0159777 -0.049648 0)
(0.0158431 -0.0475355 0)
(0.0156794 -0.0454429 0)
(0.0154889 -0.0433739 0)
(0.0152741 -0.0413318 0)
(0.0150371 -0.0393198 0)
(0.0147798 -0.0373406 0)
(0.0145042 -0.0353969 0)
(0.0142121 -0.0334909 0)
(0.0139052 -0.0316247 0)
(0.0135852 -0.0298002 0)
(0.0132537 -0.0280189 0)
(0.0129124 -0.0262824 0)
(0.0125625 -0.0245917 0)
(0.0122055 -0.022948 0)
(0.0118425 -0.0213521 0)
(0.0114749 -0.0198048 0)
(0.0111036 -0.0183064 0)
(0.0107298 -0.0168576 0)
(0.0103543 -0.0154585 0)
(0.0099782 -0.0141094 0)
(0.00960221 -0.0128101 0)
(0.00922716 -0.0115607 0)
(0.00885378 -0.010361 0)
(0.00848276 -0.00921074 0)
(0.00811471 -0.00810952 0)
(0.00775022 -0.00705693 0)
(0.00738982 -0.00605245 0)
(0.00703398 -0.00509551 0)
(0.00668314 -0.00418549 0)
(0.00633771 -0.00332167 0)
(0.00599803 -0.00250333 0)
(0.00566444 -0.00172967 0)
(0.00533721 -0.000999865 0)
(0.0050166 -0.000313058 0)
(0.00470283 0.000331647 0)
(0.00439609 0.000935172 0)
(0.00409654 0.00149846 0)
(0.00380431 0.00202248 0)
(0.00351953 0.00250821 0)
(0.00324227 0.00295663 0)
(0.0029726 0.00336877 0)
(0.00271058 0.00374563 0)
(0.00245622 0.00408822 0)
(0.00220955 0.00439756 0)
(0.00197055 0.00467468 0)
(0.0017392 0.00492058 0)
(0.00151548 0.00513629 0)
(0.00129933 0.00532282 0)
(0.00109071 0.00548116 0)
(0.000889543 0.00561232 0)
(0.000695759 0.00571727 0)
(0.000509275 0.00579699 0)
(0.000330001 0.00585244 0)
(0.000157843 0.00588458 0)
(-7.30005e-06 0.00589433 0)
(-0.000165532 0.00588264 0)
(-0.00031696 0.0058504 0)
(-0.000461696 0.00579851 0)
(-0.000599851 0.00572786 0)
(-0.000731538 0.0056393 0)
(-0.000856872 0.00553369 0)
(-0.000975967 0.00541187 0)
(-0.00108894 0.00527465 0)
(-0.00119589 0.00512284 0)
(-0.00129694 0.00495723 0)
(-0.0013922 0.0047786 0)
(-0.00148176 0.00458772 0)
(-0.00156574 0.00438531 0)
(-0.00164422 0.00417214 0)
(-0.00171731 0.0039489 0)
(-0.0017851 0.00371633 0)
(-0.00184767 0.0034751 0)
(-0.0019051 0.00322592 0)
(-0.00195747 0.00296945 0)
(-0.00200485 0.00270636 0)
(-0.0020473 0.00243732 0)
(-0.00208489 0.00216296 0)
(-0.00211766 0.00188394 0)
(-0.00214566 0.00160089 0)
(-0.00216893 0.00131444 0)
(-0.00218751 0.00102522 0)
(-0.00220141 0.000733833 0)
(-0.00221068 0.000440914 0)
(-0.0022153 0.000147074 0)
(0.0142339 -0.0799421 0)
(0.0149814 -0.0782312 0)
(0.0156407 -0.0764382 0)
(0.0162163 -0.0745731 0)
(0.0167126 -0.0726455 0)
(0.0171342 -0.0706643 0)
(0.017485 -0.0686381 0)
(0.0177695 -0.0665748 0)
(0.0179913 -0.0644821 0)
(0.0181542 -0.0623669 0)
(0.0182624 -0.0602361 0)
(0.0183189 -0.0580956 0)
(0.0183271 -0.0559515 0)
(0.0182906 -0.0538092 0)
(0.0182127 -0.0516736 0)
(0.0180961 -0.0495495 0)
(0.0179437 -0.0474413 0)
(0.0177583 -0.0453528 0)
(0.0175426 -0.0432879 0)
(0.0172993 -0.0412498 0)
(0.0170308 -0.0392418 0)
(0.0167394 -0.0372666 0)
(0.0164273 -0.0353267 0)
(0.0160964 -0.0334245 0)
(0.0157488 -0.031562 0)
(0.0153864 -0.0297411 0)
(0.015011 -0.0279634 0)
(0.0146244 -0.0262303 0)
(0.0142281 -0.024543 0)
(0.0138238 -0.0229025 0)
(0.0134127 -0.0213098 0)
(0.0129963 -0.0197655 0)
(0.0125758 -0.0182702 0)
(0.0121524 -0.0168242 0)
(0.0117272 -0.0154279 0)
(0.0113012 -0.0140814 0)
(0.0108753 -0.0127847 0)
(0.0104506 -0.0115378 0)
(0.0100277 -0.0103405 0)
(0.00960746 -0.00919248 0)
(0.00919062 -0.00809344 0)
(0.0087778 -0.00704294 0)
(0.00836961 -0.00604045 0)
(0.00796659 -0.00508541 0)
(0.00756924 -0.00417719 0)
(0.00717801 -0.00331508 0)
(0.00679329 -0.00249836 0)
(0.00641547 -0.00172624 0)
(0.00604486 -0.000997882 0)
(0.00568174 -0.000312438 0)
(0.00532637 0.000330989 0)
(0.00497896 0.000933318 0)
(0.00463969 0.00149549 0)
(0.00430872 0.00201847 0)
(0.00398617 0.00250323 0)
(0.00367215 0.00295077 0)
(0.00336673 0.00336209 0)
(0.00306997 0.0037382 0)
(0.00278189 0.00408011 0)
(0.0025025 0.00438884 0)
(0.00223181 0.00466541 0)
(0.00196979 0.00491083 0)
(0.00171641 0.00512611 0)
(0.00147161 0.00531227 0)
(0.00123532 0.0054703 0)
(0.00100749 0.00560119 0)
(0.000788008 0.00570593 0)
(0.000576798 0.00578549 0)
(0.000373755 0.00584084 0)
(0.000178771 0.00587291 0)
(-8.268e-06 0.00588265 0)
(-0.000187479 0.00587098 0)
(-0.000358985 0.0058388 0)
(-0.000522911 0.00578702 0)
(-0.000679383 0.0057165 0)
(-0.000828531 0.00562812 0)
(-0.000970482 0.00552272 0)
(-0.00110537 0.00540114 0)
(-0.00123331 0.00526419 0)
(-0.00135445 0.00511268 0)
(-0.0014689 0.00494741 0)
(-0.00157678 0.00476913 0)
(-0.00167822 0.00457862 0)
(-0.00177333 0.00437662 0)
(-0.00186222 0.00416387 0)
(-0.00194501 0.00394107 0)
(-0.00202178 0.00370896 0)
(-0.00209265 0.00346821 0)
(-0.00215769 0.00321952 0)
(-0.00221701 0.00296356 0)
(-0.00227067 0.002701 0)
(-0.00231875 0.00243249 0)
(-0.00236132 0.00215868 0)
(-0.00239843 0.00188021 0)
(-0.00243014 0.00159772 0)
(-0.0024565 0.00131184 0)
(-0.00247754 0.00102318 0)
(-0.00249329 0.000732378 0)
(-0.00250378 0.00044004 0)
(-0.00250902 0.000146782 0)
(0.0158967 -0.0797636 0)
(0.0167316 -0.0780565 0)
(0.0174678 -0.0762675 0)
(0.0181106 -0.0744066 0)
(0.018665 -0.0724833 0)
(0.0191358 -0.0705065 0)
(0.0195276 -0.0684848 0)
(0.0198453 -0.0664262 0)
(0.020093 -0.0643381 0)
(0.020275 -0.0622277 0)
(0.0203958 -0.0601015 0)
(0.0204589 -0.0579659 0)
(0.0204681 -0.0558266 0)
(0.0204273 -0.053689 0)
(0.0203403 -0.0515582 0)
(0.0202101 -0.0494389 0)
(0.0200399 -0.0473353 0)
(0.0198328 -0.0452515 0)
(0.0195919 -0.0431912 0)
(0.0193202 -0.0411577 0)
(0.0190203 -0.0391542 0)
(0.0186949 -0.0371833 0)
(0.0183463 -0.0352478 0)
(0.0179768 -0.0333498 0)
(0.0175886 -0.0314915 0)
(0.0171838 -0.0296747 0)
(0.0167646 -0.0279009 0)
(0.0163328 -0.0261717 0)
(0.0158902 -0.0244882 0)
(0.0154386 -0.0228514 0)
(0.0149796 -0.0212622 0)
(0.0145145 -0.0197214 0)
(0.0140449 -0.0182294 0)
(0.0135721 -0.0167866 0)
(0.0130972 -0.0153934 0)
(0.0126214 -0.0140499 0)
(0.0121458 -0.0127562 0)
(0.0116714 -0.011512 0)
(0.0111991 -0.0103174 0)
(0.0107298 -0.00917195 0)
(0.0102643 -0.00807537 0)
(0.00980322 -0.00702721 0)
(0.00934734 -0.00602696 0)
(0.00889724 -0.00507406 0)
(0.00845347 -0.00416786 0)
(0.00801653 -0.00330768 0)
(0.00758688 -0.00249278 0)
(0.00716492 -0.00172238 0)
(0.00675101 -0.000995653 0)
(0.00634548 -0.000311739 0)
(0.00594859 0.000330251 0)
(0.00556059 0.000931234 0)
(0.00518169 0.00149215 0)
(0.00481206 0.00201396 0)
(0.00445183 0.00249764 0)
(0.00410113 0.00294418 0)
(0.00376003 0.00335459 0)
(0.0034286 0.00372985 0)
(0.00310686 0.004071 0)
(0.00279484 0.00437904 0)
(0.00249253 0.00465499 0)
(0.0021999 0.00489986 0)
(0.00191692 0.00511467 0)
(0.00164352 0.00530041 0)
(0.00137963 0.00545808 0)
(0.00112518 0.00558868 0)
(0.000880062 0.00569319 0)
(0.000644179 0.00577258 0)
(0.000417417 0.00582779 0)
(0.000199654 0.0058598 0)
(-9.23392e-06 0.00586951 0)
(-0.000209381 0.00585787 0)
(-0.000400922 0.00582576 0)
(-0.000583997 0.00577409 0)
(-0.000758748 0.00570373 0)
(-0.000925319 0.00561555 0)
(-0.00108385 0.00551039 0)
(-0.0012345 0.00538908 0)
(-0.00137739 0.00525243 0)
(-0.00151267 0.00510127 0)
(-0.00164049 0.00493636 0)
(-0.00176098 0.00475848 0)
(-0.00187427 0.0045684 0)
(-0.00198049 0.00436685 0)
(-0.00207977 0.00415457 0)
(-0.00217222 0.00393227 0)
(-0.00225797 0.00370068 0)
(-0.00233711 0.00346047 0)
(-0.00240975 0.00321233 0)
(-0.002476 0.00295694 0)
(-0.00253593 0.00269496 0)
(-0.00258962 0.00242705 0)
(-0.00263716 0.00215386 0)
(-0.00267861 0.00187601 0)
(-0.00271403 0.00159415 0)
(-0.00274347 0.00130891 0)
(-0.00276696 0.0010209 0)
(-0.00278456 0.000730743 0)
(-0.00279627 0.000439057 0)
(-0.00280212 0.000146454 0)
(0.0175555 -0.0795654 0)
(0.0184776 -0.0778626 0)
(0.0192907 -0.076078 0)
(0.0200005 -0.0742217 0)
(0.0206127 -0.0723032 0)
(0.0211326 -0.0703313 0)
(0.0215654 -0.0683146 0)
(0.0219162 -0.0662611 0)
(0.0221898 -0.0641782 0)
(0.0223907 -0.062073 0)
(0.0225241 -0.0599522 0)
(0.0225939 -0.0578219 0)
(0.022604 -0.0556879 0)
(0.022559 -0.0535556 0)
(0.0224628 -0.0514301 0)
(0.0223191 -0.049316 0)
(0.0221311 -0.0472177 0)
(0.0219024 -0.0451391 0)
(0.0216364 -0.0430839 0)
(0.0213363 -0.0410554 0)
(0.0210052 -0.0390569 0)
(0.0206458 -0.037091 0)
(0.0202608 -0.0351602 0)
(0.0198527 -0.033267 0)
(0.019424 -0.0314133 0)
(0.018977 -0.029601 0)
(0.018514 -0.0278316 0)
(0.0180372 -0.0261067 0)
(0.0175484 -0.0244273 0)
(0.0170497 -0.0227946 0)
(0.0165427 -0.0212094 0)
(0.0160292 -0.0196724 0)
(0.0155106 -0.0181841 0)
(0.0149883 -0.0167449 0)
(0.0144639 -0.0153552 0)
(0.0139385 -0.014015 0)
(0.0134132 -0.0127245 0)
(0.0128893 -0.0114834 0)
(0.0123678 -0.0102918 0)
(0.0118495 -0.00914916 0)
(0.0113354 -0.0080553 0)
(0.0108262 -0.00700975 0)
(0.0103228 -0.00601198 0)
(0.00982569 -0.00506145 0)
(0.00933561 -0.0041575 0)
(0.00885308 -0.00329946 0)
(0.00837859 -0.00248659 0)
(0.0079126 -0.0017181 0)
(0.0074555 -0.000993179 0)
(0.00700764 -0.000310964 0)
(0.00656934 0.000329431 0)
(0.00614086 0.00092892 0)
(0.00572242 0.00148844 0)
(0.00531421 0.00200896 0)
(0.00491639 0.00249144 0)
(0.00452909 0.00293687 0)
(0.0041524 0.00334625 0)
(0.00378638 0.00372058 0)
(0.00343107 0.00406088 0)
(0.00308649 0.00436816 0)
(0.00275264 0.00464342 0)
(0.00242947 0.00488769 0)
(0.00211695 0.00510196 0)
(0.00181502 0.00528724 0)
(0.0015236 0.00544452 0)
(0.00124259 0.0055748 0)
(0.000971899 0.00567904 0)
(0.000711401 0.00575823 0)
(0.000460975 0.00581331 0)
(0.000220489 0.00584523 0)
(-1.01976e-05 0.00585493 0)
(-0.00023123 0.00584331 0)
(-0.000442759 0.00581129 0)
(-0.000644939 0.00575974 0)
(-0.000837926 0.00568956 0)
(-0.00102188 0.0056016 0)
(-0.00119696 0.00549669 0)
(-0.00136332 0.00537568 0)
(-0.00152112 0.00523938 0)
(-0.00167053 0.00508859 0)
(-0.00181168 0.00492409 0)
(-0.00194474 0.00474666 0)
(-0.00206986 0.00455704 0)
(-0.00218716 0.004356 0)
(-0.0022968 0.00414424 0)
(-0.0023989 0.0039225 0)
(-0.00249359 0.00369148 0)
(-0.00258099 0.00345187 0)
(-0.00266122 0.00320435 0)
(-0.00273437 0.00294959 0)
(-0.00280056 0.00268827 0)
(-0.00285986 0.00242102 0)
(-0.00291236 0.0021485 0)
(-0.00295813 0.00187135 0)
(-0.00299725 0.00159019 0)
(-0.00302975 0.00130565 0)
(-0.0030557 0.00101836 0)
(-0.00307513 0.000728927 0)
(-0.00308807 0.000437966 0)
(-0.00309453 0.00014609 0)
(0.0192101 -0.0793476 0)
(0.020219 -0.0776494 0)
(0.0211087 -0.0758697 0)
(0.0218855 -0.0740185 0)
(0.0225554 -0.0721052 0)