/*--------------------------------*- C++ -*----------------------------------*\
| =========                 |                                                 |
| \\      /  F ield         | OpenFOAM: The Open Source CFD Toolbox           |
|  \\    /   O peration     | Version:  2406                                  |
|   \\  /    A nd           | Website:  www.openfoam.com                      |
|    \\/     M anipulation  |                                                 |
\*---------------------------------------------------------------------------*/
FoamFile
{
    version     2.0;
    format      ascii;
    arch        "LSB;label=32;scalar=64";
    class       volScalarField;
    location    "10";
    object      gradTx;
}
// * * * * * * * * * * * * * * * * * * * * * * * * * * * * * * * * * * * * * //

dimensions      [0 -1 0 1 0 0 0];

internalField   nonuniform List<scalar> 
20000
(
-2.25739
-1.93796
-1.65642
-1.40959
-1.19429
-1.0075
-0.846269
-0.707782
-0.589464
-0.488903
-0.403827
-0.332195
-0.272184
-0.222152
-0.180628
-0.146314
-0.118081
-0.0949521
-0.0760855
-0.0607596
-0.0483596
-0.0383656
-0.0303404
-0.0239196
-0.0188003
-0.0147329
-0.011512
-0.00896991
-0.0069699
-0.00540131
-0.00417478
-0.00321855
-0.00247518
-0.00189889
-0.00145333
-0.00110975
-0.000845481
-0.000642728
-0.000487546
-0.000369053
-0.000278785
-0.000210172
-0.000158134
-0.000118751
-8.90088e-05
-6.65924e-05
-4.97313e-05
-3.70735e-05
-2.75894e-05
-2.04965e-05
-1.52017e-05
-1.12562e-05
-8.32128e-06
-6.14188e-06
-4.52626e-06
-3.33051e-06
-2.44699e-06
-1.79519e-06
-1.31513e-06
-9.62042e-07
-7.02771e-07
-5.12679e-07
-3.73501e-07
-2.71716e-07
-1.9742e-07
-1.43274e-07
-1.03817e-07
-7.5151e-08
-5.43232e-08
-3.92131e-08
-2.82996e-08
-2.03726e-08
-1.46549e-08
-1.05249e-08
-7.53841e-09
-5.41789e-09
-3.88578e-09
-2.77556e-09
-1.96509e-09
-1.43219e-09
-1.03251e-09
-7.21645e-10
-4.996e-10
-3.66374e-10
-2.44249e-10
-1.88738e-10
-1.22125e-10
-9.99201e-11
-5.55112e-11
-5.55112e-11
-5.55112e-11
-2.22045e-11
-1.11022e-11
1.11022e-11
0
-1.11022e-11
-2.22045e-11
1.11022e-11
-1.11022e-11
-1.11022e-11
-6.77161
-5.81339
-4.96886
-4.22841
-3.5826
-3.02225
-2.53857
-2.12318
-1.76827
-1.46659
-1.21137
-0.996499
-0.816492
-0.666408
-0.54184
-0.438903
-0.354211
-0.284832
-0.228238
-0.182265
-0.145068
-0.115088
-0.091014
-0.0717527
-0.0563962
-0.0441949
-0.0345331
-0.0269074
-0.0209079
-0.0162025
-0.0125233
-0.00965486
-0.00742494
-0.0056962
-0.00435963
-0.00332898
-0.00253625
-0.00192803
-0.00146252
-0.00110708
-0.000836292
-0.00063047
-0.000474369
-0.00035623
-0.000267008
-0.000199764
-0.000149184
-0.000111214
-8.27637e-05
-6.14864e-05
-4.56029e-05
-3.3767e-05
-2.49628e-05
-1.8425e-05
-1.35783e-05
-9.99123e-06
-7.34083e-06
-5.38551e-06
-3.94531e-06
-2.88611e-06
-2.10832e-06
-1.53803e-06
-1.12047e-06
-8.15181e-07
-5.92315e-07
-4.29801e-07
-3.11462e-07
-2.25464e-07
-1.62981e-07
-1.1765e-07
-8.48543e-08
-6.11178e-08
-4.39648e-08
-3.15858e-08
-2.26819e-08
-1.62759e-08
-1.16462e-08
-8.32667e-09
-5.9619e-09
-4.26326e-09
-3.03091e-09
-2.16493e-09
-1.53211e-09
-1.07692e-09
-7.77156e-10
-5.66214e-10
-3.55271e-10
-2.66454e-10
-1.9984e-10
-1.33227e-10
-9.99201e-11
-7.77156e-11
-5.55112e-11
-3.33067e-11
-2.22045e-11
-2.22045e-11
-2.22045e-11
-1.11022e-11
-2.22045e-11
0
-11.2842
-9.68738
-8.28008
-7.0462
-5.97003
-5.03625
-4.23024
-3.53806
-2.94665
-2.4439
-2.0186
-1.66056
-1.3606
-1.1105
-0.902919
-0.731382
-0.590252
-0.47464
-0.380334
-0.303726
-0.241741
-0.191782
-0.151665
-0.119568
-0.0939779
-0.0736457
-0.0575454
-0.0448381
-0.0348406
-0.0269997
-0.0208687
-0.0160888
-0.0123728
-0.00949211
-0.00726486
-0.00554739
-0.00422639
-0.00321287
-0.00243715
-0.00184483
-0.0013936
-0.00105062
-0.000790491
-0.000593625
-0.000444946
-0.00033289
-0.000248604
-0.00018533
-0.00013792
-0.000102463
-7.59945e-05
-5.62709e-05
-4.15993e-05
-3.07044e-05
-2.26277e-05
-1.66502e-05
-1.22333e-05
-8.97491e-06
-6.57487e-06
-4.80974e-06
-3.51358e-06
-2.56317e-06
-1.8673e-06
-1.35856e-06
-9.87121e-07
-7.16283e-07
-5.19107e-07
-3.75744e-07
-2.71594e-07
-1.96121e-07
-1.4142e-07
-1.01852e-07
-7.32858e-08
-5.2669e-08
-3.78253e-08
-2.71116e-08
-1.94067e-08
-1.38889e-08
-9.91429e-09
-7.08322e-09
-5.06262e-09
-3.59712e-09
-2.55351e-09
-1.78746e-09
-1.29896e-09
-9.32587e-10
-6.66134e-10
-4.32987e-10
-3.10862e-10
-2.44249e-10
-1.55431e-10
-1.22125e-10
-6.66134e-11
-7.77156e-11
-4.44089e-11
-4.44089e-11
-3.33067e-11
-1.11022e-11
-1.11022e-11
-1.11022e-11
-15.7939
-13.559
-11.5892
-9.86225
-8.35597
-7.04901
-5.92088
-4.95206
-4.12429
-3.42061
-2.82534
-2.32421
-1.90438
-1.55433
-1.26377
-1.02368
-0.826145
-0.66433
-0.532337
-0.425113
-0.338356
-0.26843
-0.21228
-0.167354
-0.131536
-0.103078
-0.0805433
-0.0627575
-0.0487647
-0.0377901
-0.0292089
-0.0225187
-0.0173177
-0.0132857
-0.0101683
-0.00776444
-0.0059155
-0.00449693
-0.00341119
-0.00258215
-0.00195057
-0.00147052
-0.00110643
-0.000830881
-0.000622782
-0.00046594
-0.000347968
-0.000259404
-0.000193046
-0.000143418
-0.00010637
-7.87632e-05
-5.82274e-05
-4.29778e-05
-3.16729e-05
-2.3306e-05
-1.71237e-05
-1.25628e-05
-9.20328e-06
-6.73259e-06
-4.91829e-06
-3.58793e-06
-2.61388e-06
-1.90173e-06
-1.38181e-06
-1.00271e-06
-7.26696e-07
-5.25957e-07
-3.80229e-07
-2.74525e-07
-1.97975e-07
-1.42597e-07
-1.02596e-07
-7.37299e-08
-5.29576e-08
-3.79474e-08
-2.71672e-08
-1.94733e-08
-1.38889e-08
-9.91429e-09
-7.06102e-09
-5.05151e-09
-3.56382e-09
-2.52021e-09
-1.80966e-09
-1.27676e-09
-9.21485e-10
-6.43929e-10
-4.44089e-10
-3.10862e-10
-2.10942e-10
-1.77636e-10
-1.33227e-10
-8.88178e-11
-6.66134e-11
-6.66134e-11
-4.44089e-11
-1.11022e-11
-2.22045e-11
0
-20.2998
-17.4272
-14.8955
-12.6759
-10.7399
-9.06004
-7.61005
-6.36484
-5.30091
-4.39648
-3.63138
-2.98729
-2.44769
-1.99776
-1.62432
-1.31572
-1.06183
-0.853857
-0.684209
-0.546395
-0.434888
-0.345012
-0.272842
-0.215099
-0.169062
-0.132485
-0.103521
-0.0806613
-0.0626765
-0.0485712
-0.0375418
-0.028943
-0.0222583
-0.017076
-0.0130693
-0.00997959
-0.00760317
-0.00577989
-0.00438439
-0.00331884
-0.00250708
-0.00189007
-0.0014221
-0.00106794
-0.000800471
-0.000598883
-0.000447251
-0.00033342
-0.000248128
-0.000184341
-0.000136722
-0.000101238
-7.48432e-05
-5.52423e-05
-4.07115e-05
-2.99572e-05
-2.20106e-05
-1.61482e-05
-1.183e-05
-8.65421e-06
-6.32213e-06
-4.61209e-06
-3.36005e-06
-2.44464e-06
-1.77628e-06
-1.28897e-06
-9.34142e-07
-6.76148e-07
-4.88776e-07
-3.52929e-07
-2.54541e-07
-1.8332e-07
-1.31883e-07
-9.47908e-08
-6.80789e-08
-4.87943e-08
-3.49387e-08
-2.50133e-08
-1.78635e-08
-1.27565e-08
-9.10383e-09
-6.4726e-09
-4.58522e-09
-3.26406e-09
-2.32037e-09
-1.63203e-09
-1.16573e-09
-8.21565e-10
-5.77316e-10
-4.21885e-10
-2.88658e-10
-2.22045e-10
-1.66533e-10
-1.22125e-10
-7.77156e-11
-6.66134e-11
-5.55112e-11
-1.11022e-11
0
-3.33067e-11
-24.8007
-21.2912
-18.1982
-15.4863
-13.1211
-11.0688
-9.29735
-7.77605
-6.47623
-5.37126
-4.43652
-3.64963
-2.99039
-2.44071
-1.98446
-1.60744
-1.29726
-1.04317
-0.835913
-0.667544
-0.531313
-0.421509
-0.333336
-0.26279
-0.206546
-0.161859
-0.126473
-0.0985451
-0.0765728
-0.0593401
-0.0458654
-0.0353602
-0.0271933
-0.0208621
-0.015967
-0.0121923
-0.00928898
-0.00706145
-0.00535654
-0.00405472
-0.00306298
-0.00230916
-0.00173744
-0.00130475
-0.000977972
-0.000731685
-0.000546431
-0.000407359
-0.000303155
-0.000225222
-0.000167044
-0.000123692
-9.14427e-05
-6.7495e-05
-4.97416e-05
-3.66021e-05
-2.68931e-05
-1.97304e-05
-1.44545e-05
-1.05742e-05
-7.72481e-06
-5.63544e-06
-4.10562e-06
-2.9871e-06
-2.17044e-06
-1.57501e-06
-1.1415e-06
-8.26239e-07
-5.97289e-07
-4.31244e-07
-3.1104e-07
-2.24032e-07
-1.61182e-07
-1.15841e-07
-8.31557e-08
-5.96301e-08
-4.27103e-08
-3.05644e-08
-2.1827e-08
-1.55986e-08
-1.11244e-08
-7.91589e-09
-5.61773e-09
-3.9857e-09
-2.83107e-09
-2.03171e-09
-1.40998e-09
-9.99201e-10
-6.99441e-10
-5.21805e-10
-3.66374e-10
-2.66454e-10
-1.88738e-10
-1.44329e-10
-1.22125e-10
-7.77156e-11
-4.44089e-11
-2.22045e-11
-1.11022e-11
-1.11022e-11
-29.2954
-25.1499
-21.4963
-18.293
-15.4991
-13.0749
-10.9823
-9.18534
-7.64995
-6.34472
-5.24057
-4.31107
-3.53236
-2.88305
-2.3441
-1.89876
-1.53237
-1.23223
-0.987411
-0.788528
-0.627607
-0.497902
-0.393749
-0.310417
-0.243979
-0.191193
-0.149394
-0.116404
-0.0904501
-0.0700944
-0.0541777
-0.0417686
-0.0321217
-0.024643
-0.0188608
-0.014402
-0.0109725
-0.00834127
-0.00632737
-0.00478962
-0.00361814
-0.0027277
-0.00205235
-0.00154125
-0.00115524
-0.000864314
-0.000645483
-0.000481203
-0.000358111
-0.000266052
-0.000197328
-0.000146117
-0.000108022
-7.97329e-05
-5.8761e-05
-4.32393e-05
-3.177e-05
-2.33086e-05
-1.70759e-05
-1.24921e-05
-9.12599e-06
-6.6577e-06
-4.85041e-06
-3.52901e-06
-2.56422e-06
-1.8608e-06
-1.34859e-06
-9.76175e-07
-7.05713e-07
-5.09548e-07
-3.67484e-07
-2.6471e-07
-1.90459e-07
-1.36868e-07
-9.82547e-08
-7.04659e-08
-5.04596e-08
-3.61045e-08
-2.58016e-08
-1.84186e-08
-1.31339e-08
-9.37028e-09
-6.66134e-09
-4.70735e-09
-3.33067e-09
-2.37588e-09
-1.69864e-09
-1.21014e-09
-8.43769e-10
-5.88418e-10
-4.32987e-10
-3.10862e-10
-2.22045e-10
-1.66533e-10
-1.33227e-10
-8.88178e-11
-5.55112e-11
-3.33067e-11
-3.33067e-11
1.11022e-11
-33.7829
-29.0024
-24.7892
-21.0952
-17.8733
-15.0777
-12.6646
-10.5924
-8.82178
-7.31661
-6.04333
-4.97145
-4.07345
-3.32468
-2.70318
-2.18961
-1.7671
-1.42099
-1.13867
-0.909318
-0.723746
-0.574172
-0.454064
-0.357966
-0.281351
-0.220479
-0.172278
-0.134235
-0.104305
-0.0808313
-0.0624766
-0.0481667
-0.0370421
-0.0284179
-0.02175
-0.0166082
-0.0126533
-0.00961905
-0.00729666
-0.00552335
-0.00417242
-0.00314557
-0.00236678
-0.00177737
-0.00133223
-0.000996737
-0.000744382
-0.000554934
-0.000412983
-0.00030682
-0.000227567
-0.000168509
-0.000124577
-9.1953e-05
-6.77673e-05
-4.9867e-05
-3.664e-05
-2.68817e-05
-1.96939e-05
-1.44074e-05
-1.05253e-05
-7.6786e-06
-5.59426e-06
-4.07026e-06
-2.95753e-06
-2.14621e-06
-1.5555e-06
-1.12593e-06
-8.14004e-07
-5.87752e-07
-4.23861e-07
-3.05345e-07
-2.19713e-07
-1.57874e-07
-1.13354e-07
-8.13016e-08
-5.81868e-08
-4.16445e-08
-2.97651e-08
-2.12497e-08
-1.51767e-08
-1.07803e-08
-7.64944e-09
-5.4512e-09
-3.86358e-09
-2.76446e-09
-1.95399e-09
-1.37668e-09
-9.65894e-10
-6.99441e-10
-5.10703e-10
-3.44169e-10
-2.66454e-10
-1.9984e-10
-1.44329e-10
-7.77156e-11
-5.55112e-11
-4.44089e-11
-3.33067e-11
1.11022e-11
-38.2621
-32.8478
-28.0759
-23.8921
-20.243
-17.0768
-14.3438
-11.9968
-9.99144
-8.2867
-6.8446
-5.6306
-4.61354
-3.76549
-3.06158
-2.47992
-2.00139
-1.60939
-1.28964
-1.02988
-0.819707
-0.650301
-0.514267
-0.405428
-0.318654
-0.249711
-0.195119
-0.152032
-0.118134
-0.0915482
-0.07076
-0.0545529
-0.0419534
-0.0321857
-0.0246338
-0.0188102
-0.0143311
-0.0108945
-0.00826417
-0.00625574
-0.00472568
-0.00356269
-0.00268062
-0.00201307
-0.00150891
-0.00112892
-0.000843104
-0.000628534
-0.000467759
-0.000347517
-0.000257753
-0.000190862
-0.000141103
-0.000104152
-7.67585e-05
-5.64836e-05
-4.15019e-05
-3.04491e-05
-2.23075e-05
-1.63197e-05
-1.19224e-05
-8.6979e-06
-6.33695e-06
-4.6107e-06
-3.35024e-06
-2.43123e-06
-1.76207e-06
-1.27551e-06
-9.22129e-07
-6.65823e-07
-4.80205e-07
-3.45923e-07
-2.48901e-07
-1.78868e-07
-1.28419e-07
-9.20819e-08
-6.59472e-08
-4.71845e-08
-3.37175e-08
-2.40918e-08
-1.7164e-08
-1.22236e-08
-8.70415e-09
-6.17284e-09
-4.37428e-09
-3.11973e-09
-2.22045e-09
-1.57652e-09
-1.11022e-09
-7.99361e-10
-5.44009e-10
-3.88578e-10
-2.9976e-10
-2.22045e-10
-1.66533e-10
-8.88178e-11
-5.55112e-11
-5.55112e-11
-3.33067e-11
0
-42.7319
-36.685
-31.3557
-26.6832
-22.6078
-19.0717
-16.0194
-13.3982
-11.1586
-9.25474
-7.64418
-6.28836
-5.15249
-4.20537
-3.41923
-2.76962
-2.23519
-1.7974
-1.4403
-1.1502
-0.915465
-0.726269
-0.574343
-0.452789
-0.355878
-0.278881
-0.217912
-0.169792
-0.131934
-0.102243
-0.079026
-0.0609256
-0.0468544
-0.0359456
-0.0275115
-0.0210077
-0.0160053
-0.0121672
-0.00922965
-0.00698659
-0.00527779
-0.00397893
-0.00299382
-0.00224828
-0.00168521
-0.00126084
-0.000941624
-0.000701984
-0.000522423
-0.000388131
-0.000287878
-0.000213171
-0.000157597
-0.000116328
-8.57321e-05
-6.30874e-05
-4.63545e-05
-3.40096e-05
-2.49163e-05
-1.82283e-05
-1.33169e-05
-9.71541e-06
-7.07829e-06
-5.15014e-06
-3.7423e-06
-2.71575e-06
-1.96831e-06
-1.4248e-06
-1.0301e-06
-7.43794e-07
-5.36426e-07
-3.86424e-07
-2.78066e-07
-1.99851e-07
-1.43452e-07
-1.02873e-07
-7.36633e-08
-5.27023e-08
-3.7681e-08
-2.69118e-08
-1.91847e-08
-1.36557e-08
-9.72555e-09
-6.88338e-09
-4.90719e-09
-3.4861e-09
-2.4758e-09
-1.75415e-09
-1.24345e-09
-9.10383e-10
-6.32827e-10
-4.32987e-10
-2.9976e-10
-2.22045e-10
-1.77636e-10
-1.22125e-10
-6.66134e-11
-5.55112e-11
-5.55112e-11
0
-47.1911
-40.5132
-34.6277
-29.4676
-24.967
-21.0619
-17.6911
-14.7964
-12.3231
-10.2205
-8.44187
-6.94457
-5.69017
-4.64421
-3.77603
-3.05864
-2.46844
-1.98497
-1.5906
-1.27022
-1.011
-0.802058
-0.634277
-0.500038
-0.393014
-0.307983
-0.240651
-0.18751
-0.145701
-0.112912
-0.0872724
-0.0672833
-0.0517437
-0.0396967
-0.0303824
-0.0232
-0.0176756
-0.013437
-0.0101929
-0.00771573
-0.00582862
-0.00439421
-0.00330629
-0.00248294
-0.00186111
-0.00139245
-0.00103992
-0.000775266
-0.000576963
-0.000428653
-0.000317936
-0.000235429
-0.000174054
-0.000128476
-9.46859e-05
-6.96768e-05
-5.11966e-05
-3.75625e-05
-2.75195e-05
-2.01329e-05
-1.47085e-05
-1.07307e-05
-7.81814e-06
-5.68851e-06
-4.13353e-06
-2.99971e-06
-2.17415e-06
-1.57382e-06
-1.13782e-06
-8.21609e-07
-5.9257e-07
-4.2687e-07
-3.07154e-07
-2.20779e-07
-1.58473e-07
-1.13654e-07
-8.13904e-08
-5.82312e-08
-4.16334e-08
-2.97096e-08
-2.11831e-08
-1.5099e-08
-1.07359e-08
-7.61613e-09
-5.42899e-09
-3.84137e-09
-2.72005e-09
-1.95399e-09
-1.36557e-09
-9.88098e-10
-7.10543e-10
-4.77396e-10
-3.55271e-10
-2.44249e-10
-1.77636e-10
-1.33227e-10
-7.77156e-11
-6.66134e-11
-5.55112e-11
-2.22045e-11
-51.6386
-44.3314
-37.8913
-32.2448
-27.32
-23.0469
-19.3584
-16.1909
-13.4845
-11.1837
-9.23748
-7.59907
-6.22645
-5.08191
-4.13191
-3.3469
-2.70108
-2.17204
-1.74051
-1.38994
-1.10628
-0.877649
-0.694055
-0.547164
-0.430054
-0.337008
-0.263331
-0.205181
-0.159433
-0.123553
-0.0954973
-0.0736244
-0.0566203
-0.0434379
-0.0332459
-0.0253865
-0.0193415
-0.0147034
-0.0111536
-0.00844299
-0.00637801
-0.00480841
-0.00361796
-0.002717
-0.00203656
-0.00152372
-0.00113796
-0.000848361
-0.000631364
-0.000469073
-0.000347917
-0.000257632
-0.00019047
-0.000140594
-0.000103618
-7.62499e-05
-5.60268e-05
-4.11068e-05
-3.01164e-05
-2.2033e-05
-1.60968e-05
-1.17437e-05
-8.55622e-06
-6.22561e-06
-4.52388e-06
-3.28306e-06
-2.37952e-06
-1.72251e-06
-1.24534e-06
-8.99247e-07
-6.4857e-07
-4.67226e-07
-3.36198e-07
-2.41651e-07
-1.73472e-07
-1.24389e-07
-8.90954e-08
-6.3749e-08
-4.55747e-08
-3.25406e-08
-2.31926e-08
-1.64979e-08
-1.17351e-08
-8.37108e-09
-5.93969e-09
-4.21885e-09
-2.9754e-09
-2.12053e-09
-1.5099e-09
-1.05471e-09
-7.54952e-10
-5.55112e-10
-3.88578e-10
-2.55351e-10
-1.88738e-10
-1.44329e-10
-9.99201e-11
-8.88178e-11
-5.55112e-11
-3.33067e-11
-56.0734
-48.1387
-41.1454
-35.0141
-29.6663
-25.0262
-21.021
-17.5814
-14.6425
-12.1442
-10.0308
-8.25169
-6.76119
-5.51835
-4.48676
-3.63434
-2.93305
-2.35858
-1.88998
-1.50931
-1.20129
-0.953023
-0.753662
-0.594155
-0.466987
-0.36595
-0.285945
-0.222802
-0.173125
-0.134163
-0.103699
-0.0799473
-0.061483
-0.0471685
-0.0361012
-0.0275669
-0.0210026
-0.0159663
-0.0121116
-0.00916817
-0.00692584
-0.00522143
-0.00392874
-0.0029504
-0.00221152
-0.00165462
-0.00123573
-0.000921251
-0.000685614
-0.00050938
-0.000377816
-0.000279773
-0.00020684
-0.000152679
-0.000112525
-8.28053e-05
-6.0844e-05
-4.46415e-05
-3.27063e-05
-2.39281e-05
-1.74814e-05
-1.2754e-05
-9.29241e-06
-6.76136e-06
-4.91323e-06
-3.56563e-06
-2.58438e-06
-1.87084e-06
-1.3526e-06
-9.76719e-07
-7.04437e-07
-5.07461e-07
-3.65175e-07
-2.62479e-07
-1.88427e-07
-1.35147e-07
-9.67781e-08
-6.92113e-08
-4.94715e-08
-3.53495e-08
-2.52021e-08
-1.79412e-08
-1.27787e-08
-9.08162e-09
-6.4615e-09
-4.58522e-09
-3.23075e-09
-2.29816e-09
-1.62093e-09
-1.16573e-09
-8.43769e-10
-5.77316e-10
-4.10783e-10
-2.88658e-10
-1.9984e-10
-1.55431e-10
-1.22125e-10
-8.88178e-11
-6.66134e-11
-4.44089e-11
-60.4944
-51.934
-44.3894
-37.7747
-32.0053
-26.9993
-22.6783
-18.9675
-15.797
-13.1017
-10.8217
-8.90227
-7.29426
-5.95343
-4.84051
-3.92088
-3.1643
-2.54454
-2.039
-1.62831
-1.29601
-1.02816
-0.813082
-0.640999
-0.503804
-0.394802
-0.30849
-0.240368
-0.186774
-0.144741
-0.111874
-0.0862505
-0.0663305
-0.0508874
-0.0389476
-0.0297404
-0.0226586
-0.0172252
-0.0130666
-0.0098911
-0.00747197
-0.00563318
-0.00423856
-0.00318307
-0.00238593
-0.00178512
-0.00133319
-0.000993918
-0.000739697
-0.000549565
-0.000407623
-0.000301848
-0.000223161
-0.000164727
-0.000121406
-8.9341e-05
-6.56468e-05
-4.81657e-05
-3.52886e-05
-2.58175e-05
-1.8862e-05
-1.37614e-05
-1.00265e-05
-7.29554e-06
-5.30147e-06
-3.84744e-06
-2.78866e-06
-2.01872e-06
-1.45955e-06
-1.05395e-06
-7.60181e-07
-5.47662e-07
-3.94063e-07
-2.83218e-07
-2.03326e-07
-1.45817e-07
-1.04439e-07
-7.47402e-08
-5.34017e-08
-3.81251e-08
-2.72116e-08
-1.93845e-08
-1.3789e-08
-9.80327e-09
-6.95e-09
-4.9627e-09
-3.4972e-09
-2.4869e-09
-1.75415e-09
-1.23235e-09
-8.77076e-10
-6.43929e-10
-4.32987e-10
-2.9976e-10
-2.33147e-10
-1.66533e-10
-1.22125e-10
-1.11022e-10
-8.88178e-11
-4.44089e-11
-64.9005
-55.7166
-47.6225
-40.5259
-34.3363
-28.9658
-24.3301
-20.349
-16.9475
-14.0559
-11.6098
-9.55066
-7.82553
-6.38704
-5.19306
-4.20645
-3.39477
-2.72987
-2.18751
-1.74691
-1.3904
-1.10305
-0.872302
-0.687685
-0.540498
-0.423556
-0.330957
-0.257874
-0.200377
-0.155283
-0.120022
-0.0925325
-0.0711616
-0.0545938
-0.0417843
-0.0319066
-0.0243091
-0.0184799
-0.0140183
-0.0106116
-0.00801627
-0.00604354
-0.00454734
-0.00341497
-0.00255976
-0.00191519
-0.00143034
-0.00106634
-0.000793602
-0.000589616
-0.000437332
-0.000323849
-0.000239429
-0.000176736
-0.000130257
-9.58555e-05
-7.04341e-05
-5.16786e-05
-3.78627e-05
-2.77009e-05
-2.02382e-05
-1.47656e-05
-1.07582e-05
-7.82806e-06
-5.68846e-06
-4.12839e-06
-2.99232e-06
-2.16616e-06
-1.56616e-06
-1.13098e-06
-8.15725e-07
-5.87652e-07
-4.22884e-07
-3.03957e-07
-2.18192e-07
-1.56475e-07
-1.12088e-07
-8.02247e-08
-5.73208e-08
-4.09117e-08
-2.91878e-08
-2.08167e-08
-1.48104e-08
-1.05249e-08
-7.4718e-09
-5.29576e-09
-3.75255e-09
-2.67564e-09
-1.89848e-09
-1.31006e-09
-9.21485e-10
-6.88338e-10
-4.77396e-10
-3.21965e-10
-2.44249e-10
-1.88738e-10
-1.55431e-10
-1.11022e-10
-7.77156e-11
-5.55112e-11
-69.2905
-59.4854
-50.8438
-43.2672
-36.6589
-30.9251
-25.9758
-21.7255
-18.0939
-15.0067
-12.3952
-10.1967
-8.35487
-6.81908
-5.54434
-4.49099
-3.6244
-2.91453
-2.33548
-1.86507
-1.48445
-1.17766
-0.931306
-0.734201
-0.577058
-0.452206
-0.353344
-0.275317
-0.213931
-0.165786
-0.128141
-0.0987916
-0.0759751
-0.0582867
-0.0446108
-0.0340649
-0.0259535
-0.01973
-0.0149667
-0.0113295
-0.0085586
-0.00645242
-0.004855
-0.00364603
-0.00273297
-0.00204478
-0.00152713
-0.00113851
-0.000847313
-0.000629524
-0.000466935
-0.000345773
-0.000255639
-0.000188703
-0.000139078
-0.000102347
-7.52046e-05
-5.51792e-05
-4.04278e-05
-2.95778e-05
-2.16096e-05
-1.57663e-05
-1.14875e-05
-8.35875e-06
-6.0742e-06
-4.40834e-06
-3.1953e-06
-2.31312e-06
-1.67244e-06
-1.20773e-06
-8.71114e-07
-6.27554e-07
-4.51572e-07
-3.24574e-07
-2.33036e-07
-1.67122e-07
-1.19715e-07
-8.56315e-08
-6.12177e-08
-4.37206e-08
-3.11862e-08
-2.22267e-08
-1.58096e-08
-1.12244e-08
-7.9714e-09
-5.69544e-09
-4.00791e-09
-2.85327e-09
-2.02061e-09
-1.40998e-09
-9.99201e-10
-7.10543e-10
-5.21805e-10
-3.55271e-10
-2.55351e-10
-1.88738e-10
-1.66533e-10
-1.22125e-10
-7.77156e-11
-7.77156e-11
-73.6634
-63.2396
-54.0526
-45.9978
-38.9725
-32.8768
-27.6151
-23.0966
-19.2358
-15.9538
-13.1774
-10.8402
-8.88215
-7.24943
-5.89424
-4.77442
-3.85314
-3.09847
-2.48287
-1.98278
-1.57813
-1.25198
-0.990081
-0.780536
-0.613475
-0.480744
-0.375643
-0.292692
-0.227432
-0.176249
-0.136228
-0.105026
-0.08077
-0.0619653
-0.0474263
-0.0362149
-0.0275915
-0.0209753
-0.0159113
-0.0120446
-0.00909883
-0.00685972
-0.00516147
-0.0038762
-0.0029055
-0.00217388
-0.00162355
-0.0012104
-0.000900817
-0.000669279
-0.000496425
-0.000367612
-0.000271787
-0.000200624
-0.000147864
-0.000108814
-7.99571e-05
-5.86666e-05
-4.29831e-05
-3.14477e-05
-2.29759e-05
-1.67633e-05
-1.2214e-05
-8.88748e-06
-6.45849e-06
-4.68729e-06
-3.3975e-06
-2.45954e-06
-1.77833e-06
-1.28421e-06
-9.26281e-07
-6.67322e-07
-4.80183e-07
-3.45157e-07
-2.47802e-07
-1.77725e-07
-1.27309e-07
-9.10605e-08
-6.51257e-08
-4.64961e-08
-3.31624e-08
-2.36144e-08
-1.67977e-08
-1.1946e-08
-8.4821e-09
-6.03961e-09
-4.27436e-09
-3.0087e-09
-2.15383e-09
-1.53211e-09
-1.04361e-09
-7.77156e-10
-5.44009e-10
-3.88578e-10
-2.88658e-10
-1.9984e-10
-1.66533e-10
-1.44329e-10
-7.77156e-11
-6.66134e-11
-78.0182
-66.9781
-57.248
-48.7171
-41.2764
-34.8204
-29.2477
-24.462
-20.373
-16.897
-13.9564
-11.4811
-9.40723
-7.678
-6.24269
-5.05666
-4.08092
-3.28164
-2.62965
-2.1
-1.67143
-1.326
-1.04861
-0.826678
-0.649741
-0.509164
-0.397849
-0.309994
-0.240876
-0.186668
-0.144281
-0.111235
-0.0855449
-0.0656285
-0.0502301
-0.0383559
-0.0292227
-0.0222154
-0.0168521
-0.0127567
-0.00963681
-0.00726533
-0.00546668
-0.00410541
-0.00307732
-0.00230244
-0.00171957
-0.00128199
-0.000954102
-0.000708871
-0.000525794
-0.000389362
-0.000287869
-0.000212496
-0.000156615
-0.000115255
-8.46902e-05
-6.21399e-05
-4.55283e-05
-3.331e-05
-2.43367e-05
-1.77563e-05
-1.29376e-05
-9.41415e-06
-6.84124e-06
-4.96514e-06
-3.59894e-06
-2.60539e-06
-1.88379e-06
-1.36038e-06
-9.81248e-07
-7.06923e-07
-5.08693e-07
-3.6563e-07
-2.62523e-07
-1.88272e-07
-1.34859e-07
-9.65117e-08
-6.89671e-08
-4.92606e-08
-3.51275e-08
-2.50244e-08
-1.77969e-08
-1.26676e-08
-8.9817e-09
-6.38378e-09
-4.52971e-09
-3.19744e-09
-2.25375e-09
-1.60982e-09
-1.15463e-09
-8.43769e-10
-5.77316e-10
-3.9968e-10
-2.9976e-10
-2.10942e-10
-1.77636e-10
-1.33227e-10
-8.88178e-11
-7.77156e-11
-82.3537
-70.7001
-60.4293
-51.4243
-43.5702
-36.7554
-30.873
-25.8213
-21.5051
-17.8359
-14.732
-12.1191
-9.93
-8.10467
-6.5896
-5.33767
-4.3077
-3.464
-2.77578
-2.21669
-1.76431
-1.39968
-1.10688
-0.872617
-0.685847
-0.537457
-0.419957
-0.32722
-0.254262
-0.197041
-0.152299
-0.117416
-0.0902987
-0.0692756
-0.0530215
-0.0404874
-0.0308468
-0.02345
-0.0177886
-0.0134657
-0.0101724
-0.00766915
-0.00577054
-0.00433362
-0.00324839
-0.00243044
-0.00181517
-0.00135327
-0.00100715
-0.000748289
-0.000555034
-0.000411017
-0.00030388
-0.000224317
-0.000165329
-0.000121667
-8.94029e-05
-6.55982e-05
-4.80624e-05
-3.51643e-05
-2.56917e-05
-1.8745e-05
-1.36582e-05
-9.93854e-06
-7.22242e-06
-5.24177e-06
-3.79948e-06
-2.75063e-06
-1.98883e-06
-1.43625e-06
-1.03595e-06
-7.46359e-07
-5.37115e-07
-3.86036e-07
-2.77156e-07
-1.98797e-07
-1.42397e-07
-1.01907e-07
-7.28306e-08
-5.20028e-08
-3.70926e-08
-2.64011e-08
-1.88294e-08
-1.33671e-08
-9.4591e-09
-6.75016e-09
-4.79616e-09
-3.39728e-09
-2.38698e-09
-1.69864e-09
-1.21014e-09
-8.54872e-10
-6.10623e-10
-4.55191e-10
-2.9976e-10
-2.22045e-10
-1.77636e-10
-1.55431e-10
-9.99201e-11
-7.77156e-11
-86.6689
-74.4047
-63.5957
-54.1189
-45.8532
-38.6813
-32.4907
-27.1743
-22.632
-18.7705
-15.5039
-12.7541
-10.4503
-8.52934
-6.93488
-5.61735
-4.53342
-3.64551
-2.92123
-2.33285
-1.85676
-1.47302
-1.16488
-0.91834
-0.721784
-0.565619
-0.441962
-0.344366
-0.267584
-0.207366
-0.160279
-0.123569
-0.0950302
-0.0729056
-0.0557998
-0.042609
-0.0324632
-0.0246789
-0.0187208
-0.0141714
-0.0107055
-0.00807108
-0.00607298
-0.00456076
-0.00341866
-0.00255784
-0.00191033
-0.00142421
-0.00105996
-0.000787525
-0.000584139
-0.000432572
-0.000319818
-0.000236082
-0.000174001
-0.000128051
-9.40939e-05
-6.90406e-05
-5.05849e-05
-3.70101e-05
-2.70405e-05
-1.97293e-05
-1.43754e-05
-1.04605e-05
-7.60183e-06
-5.51723e-06
-3.99917e-06
-2.8952e-06
-2.09336e-06
-1.51177e-06
-1.09046e-06
-7.85638e-07
-5.65359e-07
-4.06364e-07
-2.91767e-07
-2.09233e-07
-1.49891e-07
-1.07236e-07
-7.6672e-08
-5.47562e-08
-3.90465e-08
-2.78555e-08
-1.98064e-08
-1.40554e-08
-1.00031e-08
-7.09433e-09
-5.00711e-09
-3.57492e-09
-2.52021e-09
-1.78746e-09
-1.26565e-09
-9.10383e-10
-6.55032e-10
-4.66294e-10
-3.10862e-10
-2.55351e-10
-1.88738e-10
-1.44329e-10
-1.22125e-10
-6.66134e-11
-90.9627
-78.0909
-66.7464
-56.8001
-48.1249
-40.5977
-34.1003
-28.5206
-23.7532
-19.7004
-16.272
-13.386
-10.9681
-8.95191
-7.27845
-5.89565
-4.75802
-3.82612
-3.06596
-2.44842
-1.94875
-1.546
-1.22259
-0.963836
-0.757542
-0.59364
-0.463857
-0.361426
-0.280841
-0.217639
-0.16822
-0.129691
-0.0997383
-0.0765176
-0.0585644
-0.0447201
-0.0340716
-0.0259016
-0.0196484
-0.0148736
-0.011236
-0.00847103
-0.00637393
-0.00478678
-0.00358809
-0.00268461
-0.00200501
-0.00149481
-0.0011125
-0.000826567
-0.0006131
-0.00045402
-0.000335677
-0.000247791
-0.000182632
-0.000134402
-9.8762e-05
-7.24662e-05
-5.30951e-05
-3.88469e-05
-2.83827e-05
-2.07088e-05
-1.50892e-05
-1.098e-05
-7.97937e-06
-5.79131e-06
-4.19789e-06
-3.03907e-06
-2.19743e-06
-1.58696e-06
-1.1447e-06
-8.24696e-07
-5.93492e-07
-4.26581e-07
-3.06288e-07
-2.19669e-07
-1.57363e-07
-1.12599e-07
-8.0469e-08
-5.74873e-08
-4.10005e-08
-2.92211e-08
-2.07834e-08
-1.4766e-08
-1.04805e-08
-7.4718e-09
-5.29576e-09
-3.73035e-09
-2.65343e-09
-1.88738e-09
-1.29896e-09
-9.32587e-10
-6.88338e-10
-4.77396e-10
-3.44169e-10
-2.66454e-10
-2.10942e-10
-1.44329e-10
-1.11022e-10
-7.77156e-11
-95.2341
-81.7578
-69.8806
-59.4672
-50.3847
-42.5041
-35.7016
-29.8599
-24.8686
-20.6255
-17.0361
-14.0145
-11.4831
-9.37227
-7.62023
-6.17249
-4.98144
-4.00578
-3.20993
-2.56339
-2.04026
-1.6186
-1.28
-1.00909
-0.793114
-0.621516
-0.485638
-0.378398
-0.294028
-0.227858
-0.176119
-0.135781
-0.104422
-0.0801108
-0.0613145
-0.0468201
-0.0356717
-0.027118
-0.0205712
-0.0155721
-0.0117637
-0.00886889
-0.00667331
-0.00501162
-0.00375663
-0.00281073
-0.00209921
-0.00156504
-0.00116477
-0.000865406
-0.000641911
-0.000475358
-0.000351455
-0.000259438
-0.000191217
-0.000140721
-0.000103406
-7.58741e-05
-5.55923e-05
-4.06743e-05
-2.9718e-05
-2.16832e-05
-1.57994e-05
-1.14968e-05
-8.35506e-06
-6.064e-06
-4.39558e-06
-3.18223e-06
-2.30097e-06
-1.66175e-06
-1.19866e-06
-8.63587e-07
-6.21458e-07
-4.46709e-07
-3.20743e-07
-2.30038e-07
-1.64768e-07
-1.17917e-07
-8.42881e-08
-6.01852e-08
-4.29323e-08
-3.06088e-08
-2.17826e-08
-1.54543e-08
-1.09801e-08
-7.80487e-09
-5.51781e-09
-3.93019e-09
-2.78666e-09
-1.96509e-09
-1.39888e-09
-9.76996e-10
-6.99441e-10
-4.996e-10
-3.77476e-10
-2.55351e-10
-1.9984e-10
-1.66533e-10
-1.22125e-10
-8.88178e-11
-99.482
-85.4046
-72.9976
-62.1197
-52.6321
-44.3999
-37.2941
-31.1918
-25.9779
-21.5455
-17.796
-14.6396
-11.9953
-9.79031
-7.96013
-6.44781
-5.20364
-4.18446
-3.3531
-2.67773
-2.13126
-1.69079
-1.33709
-1.0541
-0.828489
-0.649237
-0.507299
-0.395275
-0.307143
-0.238022
-0.183974
-0.141837
-0.10908
-0.0836842
-0.0640495
-0.0489086
-0.0372629
-0.0283277
-0.0214888
-0.0162668
-0.0122885
-0.00926457
-0.00697104
-0.00523523
-0.00392425
-0.00293615
-0.00219288
-0.00163488
-0.00121676
-0.000904033
-0.000670565
-0.000496578
-0.000367146
-0.000271022
-0.000199756
-0.000147006
-0.000108025
-7.92634e-05
-5.8076e-05
-4.24918e-05
-3.10461e-05
-2.26524e-05
-1.65057e-05
-1.20109e-05
-8.72867e-06
-6.33524e-06
-4.59224e-06
-3.32463e-06
-2.40395e-06
-1.73612e-06
-1.25232e-06
-9.02267e-07
-6.49303e-07
-4.66727e-07
-3.35121e-07
-2.40319e-07
-1.72173e-07
-1.23213e-07
-8.80851e-08
-6.2883e-08
-4.48641e-08
-3.19522e-08
-2.27485e-08
-1.61648e-08
-1.14797e-08
-8.14904e-09
-5.77316e-09
-4.11893e-09
-2.88658e-09
-2.03171e-09
-1.45439e-09
-1.04361e-09
-7.32747e-10
-5.32907e-10
-3.77476e-10
-2.66454e-10
-2.10942e-10
-1.55431e-10
-1.44329e-10
-9.99201e-11
-103.705
-89.0303
-76.0966
-64.7569
-54.8665
-46.2849
-38.8773
-32.5159
-27.0807
-22.4602
-18.5515
-15.2611
-12.5045
-10.2059
-8.29806
-6.72154
-5.42455
-4.3621
-3.49546
-2.79141
-2.22174
-1.76257
-1.39386
-1.09885
-0.863661
-0.676799
-0.528835
-0.412056
-0.320182
-0.248127
-0.191785
-0.147859
-0.11371
-0.0872369
-0.0667687
-0.0509851
-0.0388449
-0.0295304
-0.0224012
-0.0169575
-0.0128103
-0.00965796
-0.00726706
-0.00545754
-0.0040909
-0.00306085
-0.00228602
-0.00170432
-0.00126844
-0.000942437
-0.000699054
-0.000517677
-0.000382746
-0.00028254
-0.000208246
-0.000153255
-0.000112617
-8.26334e-05
-6.05455e-05
-4.42989e-05
-3.23667e-05
-2.3616e-05
-1.72079e-05
-1.2522e-05
-9.10019e-06
-6.60493e-06
-4.78779e-06
-3.46622e-06
-2.50633e-06
-1.81012e-06
-1.30568e-06
-9.40714e-07
-6.76992e-07
-4.86622e-07
-3.49398e-07
-2.506e-07
-1.79512e-07
-1.28464e-07
-9.18265e-08
-6.55809e-08
-4.67737e-08
-3.33289e-08
-2.36922e-08
-1.68643e-08
-1.20015e-08
-8.50431e-09
-6.01741e-09
-4.25215e-09
-3.03091e-09
-2.14273e-09
-1.52101e-09
-1.04361e-09
-7.88258e-10
-5.66214e-10
-3.77476e-10
-2.77556e-10
-2.10942e-10
-1.77636e-10
-1.33227e-10
-1.11022e-10
-107.903
-92.634
-79.1768
-67.3781
-57.0874
-48.1584
-40.451
-33.8321
-28.1769
-23.3693
-19.3024
-15.8789
-13.0107
-10.6191
-8.63394
-6.99361
-5.64412
-4.53867
-3.63694
-2.9044
-2.31167
-1.83392
-1.45028
-1.14333
-0.898619
-0.704194
-0.550241
-0.428735
-0.333142
-0.25817
-0.199547
-0.153844
-0.118313
-0.0907681
-0.0694714
-0.0530489
-0.0404174
-0.0307259
-0.0233081
-0.017644
-0.0133289
-0.010049
-0.00756128
-0.00567852
-0.00425655
-0.00318479
-0.0023786
-0.00177334
-0.00131982
-0.000980609
-0.00072737
-0.000538649
-0.000398253
-0.000293988
-0.000216685
-0.000159466
-0.000117181
-8.59832e-05
-6.30002e-05
-4.60951e-05
-3.36793e-05
-2.45739e-05
-1.7906e-05
-1.303e-05
-9.46949e-06
-6.87301e-06
-4.98215e-06
-3.60695e-06
-2.60815e-06
-1.88363e-06
-1.35875e-06
-9.7895e-07
-7.04492e-07
-5.06428e-07
-3.63609e-07
-2.60769e-07
-1.86806e-07
-1.33682e-07
-9.55791e-08
-6.82454e-08
-4.87055e-08
-3.46945e-08
-2.46803e-08
-1.75415e-08
-1.24678e-08
-8.84848e-09
-6.26166e-09
-4.42979e-09
-3.14193e-09
-2.23155e-09
-1.56541e-09
-1.13243e-09
-7.99361e-10
-5.66214e-10
-3.9968e-10
-2.88658e-10
-2.22045e-10
-1.66533e-10
-1.55431e-10
-1.11022e-10
-112.074
-96.2149
-82.2375
-69.9827
-59.2941
-50.02
-42.0147
-35.1399
-29.2661
-24.2727
-20.0486
-16.4927
-13.5136
-11.0295
-8.9677
-7.26396
-5.8623
-4.71412
-3.77753
-3.01668
-2.40103
-1.90481
-1.50634
-1.18753
-0.933356
-0.731415
-0.571511
-0.445308
-0.34602
-0.26815