/*--------------------------------*- C++ -*----------------------------------*\
| =========                 |                                                 |
| \\      /  F ield         | OpenFOAM: The Open Source CFD Toolbox           |
|  \\    /   O peration     | Version:  2406                                  |
|   \\  /    A nd           | Website:  www.openfoam.com                      |
|    \\/     M anipulation  |                                                 |
\*---------------------------------------------------------------------------*/
FoamFile
{
    version     2.0;
    format      ascii;
    arch        "LSB;label=32;scalar=64";
    class       volScalarField;
    location    "85";
    object      gradTy;
}
// * * * * * * * * * * * * * * * * * * * * * * * * * * * * * * * * * * * * * //

dimensions      [0 -1 0 1 0 0 0];

internalField   nonuniform List<scalar> 
20000
(
366.978
359.637
352.119
344.449
336.657
328.765
320.799
312.782
304.731
296.667
288.61
280.574
272.574
264.624
256.739
248.929
241.207
233.58
226.059
218.651
211.362
204.201
197.173
190.282
183.533
176.928
170.473
164.168
158.015
152.016
146.173
140.485
134.953
129.577
124.356
119.289
114.375
109.614
105.002
100.539
96.2229
92.0507
88.0204
84.1294
80.3753
76.7552
73.2663
69.9057
66.6705
63.5576
60.5639
57.6863
54.9217
52.2668
49.7187
47.274
44.9296
42.6823
40.5291
38.4668
36.4923
34.6027
32.7948
31.0657
29.4125
27.8322
26.3221
24.8794
23.5013
22.1852
20.9283
19.7282
18.5822
17.488
16.4431
15.4451
14.4917
13.5807
12.7098
11.8769
11.0799
10.3167
9.58524
8.88358
8.20979
7.56196
6.93823
6.33678
5.75583
5.19361
4.64839
4.11848
3.60219
3.09787
2.60389
2.11862
1.64046
1.16782
0.699122
0.232779
366.887
359.548
352.032
344.364
336.574
328.685
320.72
312.704
304.656
296.595
288.539
280.504
272.506
264.559
256.675
248.868
241.147
233.523
226.003
218.596
211.31
204.151
197.124
190.235
183.487
176.885
170.431
164.127
157.976
151.979
146.137
140.451
134.92
129.545
124.325
119.26
114.347
109.587
104.976
100.515
96.1992
92.028
87.9987
84.1087
80.3555
76.7362
73.2482
69.8885
66.6541
63.5419
60.5489
57.6721
54.9081
52.2539
49.7064
47.2623
44.9185
42.6718
40.5191
38.4573
36.4833
34.5941
32.7867
31.058
29.4052
27.8254
26.3157
24.8733
23.4955
22.1797
20.9231
19.7233
18.5776
17.4837
16.439
15.4413
14.4881
13.5773
12.7067
11.874
11.0772
10.3141
9.58287
8.88139
8.20776
7.56009
6.93652
6.33522
5.75441
5.19233
4.64724
4.11746
3.6013
3.09711
2.60324
2.1181
1.64006
1.16754
0.69895
0.232721
366.707
359.371
351.858
344.194
336.407
328.522
320.562
312.55
304.505
296.448
288.396
280.365
272.371
264.428
256.549
248.745
241.028
233.407
225.891
218.489
211.206
204.05
197.027
190.141
183.397
176.798
170.347
164.046
157.898
151.904
146.065
140.381
134.853
129.481
124.264
119.201
114.291
109.533
104.925
100.465
96.1517
91.9826
87.9552
84.0672
80.3158
76.6984
73.2121
69.854
66.6212
63.5105
60.5191
57.6436
54.881
52.2282
49.6819
47.239
44.8963
42.6507
40.4991
38.4383
36.4653
34.5771
32.7705
31.0427
29.3907
27.8116
26.3027
24.861
23.4839
22.1687
20.9128
19.7136
18.5685
17.475
16.4309
15.4337
14.481
13.5706
12.7004
11.8681
11.0717
10.3091
9.57814
8.87701
8.20371
7.55636
6.9331
6.33209
5.75157
5.18976
4.64495
4.11543
3.59952
3.09558
2.60196
2.11705
1.63925
1.16696
0.698605
0.232607
366.435
359.106
351.597
343.94
336.158
328.279
320.325
312.319
304.28
296.229
288.183
280.158
272.17
264.232
256.359
248.561
240.85
233.235
225.724
218.327
211.05
203.899
196.881
190
183.261
176.667
170.22
163.925
157.781
151.791
145.957
140.277
134.753
129.385
124.172
119.112
114.206
109.451
104.847
100.391
96.0805
91.9145
87.8901
84.0049
80.2563
76.6416
73.1579
69.8023
66.5718
63.4635
60.4742
57.6009
54.8404
52.1895
49.6451
47.204
44.8631
42.6191
40.4691
38.4099
36.4383
34.5515
32.7462
31.0197
29.3689
27.791
26.2832
24.8426
23.4665
22.1523
20.8973
19.699
18.5547
17.4621
16.4187
15.4222
14.4703
13.5606
12.691
11.8594
11.0635
10.3014
9.57105
8.87044
8.19764
7.55077
6.92796
6.32741
5.74731
5.18592
4.64151
4.11238
3.59686
3.09329
2.60003
2.11548
1.63803
1.1661
0.698088
0.232434
366.072
358.751
351.25
343.6
335.826
327.955
320.008
312.01
303.979
295.936
287.898
279.881
271.901
263.972
256.106
248.316
240.612
233.004
225.501
218.111
210.841
203.698
196.687
189.813
183.08
176.492
170.052
163.763
157.625
151.642
145.812
140.139
134.62
129.257
124.049
118.995
114.093
109.343
104.743
100.291
95.9856
91.8237
87.8033
83.9219
80.177
76.5659
73.0856
69.7333
66.5061
63.4008
60.4145
57.544
54.7862
52.1379
49.596
47.1574
44.8187
42.577
40.4291
38.3719
36.4023
34.5173
32.7139
30.9891
29.3399
27.7636
26.2572
24.8181
23.4434
22.1304
20.8767
19.6795
18.5364
17.4449
16.4025
15.407
14.456
13.5472
12.6785
11.8476
11.0526
10.2912
9.5616
8.86168
8.18954
7.54331
6.92112
6.32116
5.74163
5.1808
4.63693
4.10832
3.5933
3.09023
2.59747
2.11339
1.63642
1.16495
0.697399
0.232205
365.62
358.307
350.816
343.175
335.411
327.549
319.613
311.625
303.604
295.57
287.542
279.535
271.565
263.645
255.789
248.009
240.315
232.716
225.222
217.841
210.581
203.446
196.444
189.578
182.854
176.274
169.842
163.56
157.431
151.454
145.632
139.966
134.454
129.098
123.896
118.848
113.952
109.208
104.614
100.168
95.867
91.7102
87.6948
83.8182
80.078
76.4713
72.9953
69.6472
66.4239
63.3225
60.3399
57.4729
54.7185
52.0735
49.5348
47.0991
44.7634
42.5244
40.3792
38.3245
36.3574
34.4747
32.6735
30.9508
29.3037
27.7293
26.2248
24.7874
23.4144
22.1031
20.8509
19.6552
18.5135
17.4233
16.3823
15.388
14.4381
13.5305
12.6628
11.833
11.0389
10.2785
9.54979
8.85073
8.17943
7.53399
6.91257
6.31335
5.73454
5.1744
4.6312
4.10324
3.58887
3.08641
2.59426
2.11078
1.6344
1.16351
0.696537
0.231918
365.077
357.776
350.296
342.666
334.914
327.063
319.139
311.162
303.153
295.132
287.115
279.121
271.162
263.254
255.41
247.641
239.958
232.371
224.888
217.518
210.268
203.144
196.152
189.297
182.583
176.013
169.59
163.318
157.197
151.229
145.416
139.758
134.255
128.906
123.712
118.671
113.783
109.046
104.459
100.019
95.7248
91.5741
87.5647
83.6939
79.9592
76.3578
72.887
69.5438
66.3253
63.2285
60.2503
57.3876
54.6373
51.9962
49.4613
47.0292
44.6969
42.4613
40.3193
38.2677
36.3034
34.4235
32.625
30.9049
29.2602
27.6881
26.1859
24.7506
23.3797
22.0703
20.82
19.626
18.486
17.3975
16.3579
15.3651
14.4167
13.5104
12.644
11.8155
11.0226
10.2633
9.53562
8.8376
8.16729
7.52281
6.90232
6.30398
5.72603
5.16672
4.62433
4.09716
3.58354
3.08183
2.59041
2.10765
1.63197
1.16178
0.695504
0.231574
364.445
357.156
349.689
342.072
334.333
326.497
318.586
310.623
302.628
294.62
286.618
278.637
270.692
262.798
254.967
247.212
239.542
231.968
224.499
217.141
209.904
202.792
195.812
188.969
182.266
175.708
169.296
163.035
156.925
150.967
145.164
139.516
134.022
128.683
123.498
118.466
113.586
108.857
104.278
99.8456
95.5589
91.4155
87.4129
83.5489
79.8206
76.2255
72.7607
69.4233
66.2104
63.119
60.1459
57.2882
54.5426
51.9061
49.3756
46.9477
44.6195
42.3878
40.2494
38.2013
36.2405
34.3639
32.5685
30.8513
29.2095
27.6402
26.1405
24.7077
23.3391
22.0321
20.7839
19.592
18.454
17.3673
16.3296
15.3385
14.3917
13.487
12.6221
11.795
11.0035
10.2455
9.5191
8.82229
8.15314
7.50978
6.89036
6.29306
5.71611
5.15777
4.61632
4.09006
3.57733
3.0765
2.58592
2.104
1.62914
1.15977
0.694299
0.231173
363.723
356.448
348.995
341.394
333.671
325.849
317.954
310.007
302.028
294.036
286.05
278.085
270.156
262.277
254.462
246.722
239.067
231.508
224.053
216.711
209.488
202.39
195.424
188.594
181.905
175.359
168.961
162.711
156.613
150.668
144.876
139.239
133.756
128.428
123.253
118.231
113.361
108.641
104.071
99.6476
95.3694
91.2342
87.2396
83.3832
79.6624
76.0744
72.6164
69.2857
66.0792
62.9938
60.0267
57.1746
54.4345
51.8032
49.2777
46.8546
44.531
42.3037
40.1696
38.1256
36.1687
34.2958
32.5039
30.7901
29.1516
27.5854
26.0887
24.6588
23.2929
21.9884
20.7427
19.5532
18.4174
17.3329
16.2972
15.3081
14.3632
13.4603
12.5971
11.7716
10.9816
10.2252
9.50023
8.8048
8.13698
7.49489
6.8767
6.28059
5.70478
5.14755
4.60717
4.08195
3.57024
3.0704
2.58079
2.09983
1.62591
1.15747
0.692923
0.230715
362.91
355.652
348.216
340.632
332.925
325.122
317.244
309.315
301.354
293.38
285.411
277.464
269.552
261.691
253.894
246.171
238.533
230.991
223.553
216.227
209.02
201.938
194.988
188.173
181.499
174.968
168.583
162.348
156.264
150.332
144.553
138.928
133.457
128.141
122.977
117.967
113.108
108.399
103.839
99.4251
95.1565
91.0305
87.0448
83.197
79.4845
75.9045
72.4543
69.131
65.9316
62.8532
59.8926
57.0469
54.313
51.6876
49.1676
46.75
44.4316
42.2093
40.0799
38.0405
36.0879
34.2192
32.4313
30.7214
29.0865
27.5238
26.0304
24.6037
23.2409
21.9393
20.6964
19.5095
18.3763
17.2942
16.2608
15.2739
14.3311
13.4302
12.569
11.7453
10.9571
10.2024
9.47901
8.78514
8.11881
7.47816
6.86134
6.26656
5.69205
5.13605
4.59688
4.07284
3.56227
3.06354
2.57503
2.09514
1.62228
1.15488
0.691376
0.230199
362.009
354.768
347.351
339.785
332.098
324.314
316.456
308.546
300.605
292.651
284.702
276.774
268.883
261.041
253.263
245.559
237.941
230.417
222.998
215.69
208.501
201.437
194.503
187.706
181.048
174.533
168.165
161.945
155.875
149.958
144.194
138.583
133.126
127.822
122.672
117.674
112.827
108.129
103.581
99.178
94.92
90.8043
86.8285
82.9903
79.287
75.7159
72.2742
68.9592
65.7678
62.697
59.7438
56.9052
54.178
51.5591
49.0454
46.6338
44.3212
42.1044
39.9803
37.946
35.9982
34.1341
32.3507
30.645
29.0142
27.4554
25.9657
24.5426
23.1831
21.8848
20.6449
19.461
18.3306
17.2512
16.2204
15.236
14.2955
13.3968
12.5377
11.7161
10.9299
10.177
9.45546
8.76331
8.09864
7.45958
6.8443
6.25099
5.6779
5.12329
4.58546
4.06272
3.55342
3.05593
2.56863
2.08994
1.61825
1.15201
0.689658
0.229628
361.018
353.797
346.4
338.855
331.189
323.426
315.59
307.702
299.782
291.85
283.922
276.016
268.146
260.326
252.569
244.887
237.289
229.786
222.387
215.099
207.93
200.885
193.971
187.192
180.552
174.055
167.704
161.501
155.449
149.548
143.799
138.204
132.761
127.472
122.336
117.352
112.518
107.833
103.297
98.9065
94.6601
90.5557
86.5908
82.7631
79.0699
75.5086
72.0764
68.7704
65.5877
62.5253
59.5802
56.7494
54.0297
51.418
48.9112
46.5062
44.1999
41.9891
39.8709
37.8421
35.8997
34.0407
32.2622
30.5612
28.9348
27.3802
25.8947
24.4754
23.1196
21.8249
20.5884
19.4078
18.2804
17.204
16.176
15.1943
14.2564
13.3601
12.5034
11.6841
10.9
10.1491
9.42958
8.73932
8.07647
7.43916
6.82556
6.23388
5.66236
5.10927
4.5729
4.0516
3.54369
3.04756
2.5616
2.08422
1.61382
1.14886
0.68777
0.228999
359.937
352.738
345.363
337.841
330.198
322.458
314.645
306.781
298.885
290.976
283.073
275.19
267.344
259.547
251.814
244.154
236.579
229.099
221.722
214.456
207.308
200.284
193.391
186.632
180.012
173.534
167.202
161.018
154.984
149.1
143.369
137.79
132.364
127.091
121.97
117
112.181
107.511
102.988
98.6106
94.3769
90.2847
86.3317
82.5154
78.8333
75.2826
71.8607
68.5646
65.3915
62.3382
59.402
56.5796
53.868
51.2641
48.7648
46.367
44.0676
41.8635
39.7516
37.7288
35.7923
33.9388
32.1656
30.4697
28.8482
27.2983
25.8172
24.4021
23.0505
21.7596
20.5268
19.3497
18.2257
17.1525
16.1276
15.1488
14.2137
13.3202
12.466
11.6491
10.8674
10.1188
9.40137
8.71317
8.0523
7.4169
6.80514
6.21523
5.64542
5.09398
4.55922
4.03948
3.53309
3.03845
2.55394
2.07798
1.609
1.14542
0.685712
0.228314
358.768
351.593
344.242
336.744
329.126
321.411
313.623
305.785
297.914
290.031
282.154
274.297
266.476
258.705
250.996
243.361
235.811
228.355
221.002
213.759
206.634
199.634
192.762
186.026
179.427
172.971
166.659
160.495
154.48
148.616
142.903
137.342
131.934
126.678
121.574
116.62
111.817
107.162
102.653
98.2903
94.0704
89.9915
86.0513
82.2474
78.5773
75.0381
71.6273
68.3419
65.1791
62.1358
59.2091
56.3958
53.6931
51.0976
48.6065
46.2164
43.9245
41.7275
39.6225
37.6063
35.676
33.8286
32.0612
30.3708
28.7545
27.2096
25.7333
24.3229
22.9756
21.6889
20.4602
19.2869
18.1666
17.0968
16.0753
15.0996
14.1676
13.2769
12.4255
11.6113
10.8321
10.0859
9.37083
8.68488
8.02615
7.39281
6.78304
6.19505
5.62709
5.07744
4.54442
4.02636
3.52162
3.02858
2.54565
2.07123
1.60377
1.1417
0.683486
0.227572
357.511
350.36
343.035
335.564
327.972
320.284
312.524
304.713
296.87
289.015
281.165
273.335
265.542
257.798
250.116
242.508
234.984
227.555
220.227
213.01
205.91
198.934
192.087
185.374
178.798
172.365
166.075
159.933
153.939
148.095
142.402
136.861
131.472
126.234
121.148
116.212
111.425
106.786
102.294
97.9458
93.7407
89.6761
85.7497
81.9592
78.3018
74.7751
71.3763
68.1024
64.9506
61.918
59.0015
56.1982
53.5049
50.9185
48.4361
46.0544
43.7705
41.5813
39.4836
37.4745
35.551
33.7101
31.9488
30.2643
28.6537
27.1143
25.6431
24.2376
22.8951
21.6129
20.3884
19.2193
18.1029
17.0369
16.0189
15.0467
14.1179
13.2304
12.382
11.5706
10.7941
10.0506
9.33799
8.65444
7.99802
7.3669
6.75927
6.17333
5.60736
5.05964
4.52849
4.01225
3.50927
3.01797
2.53672
2.06397
1.59815
1.1377
0.68109
0.226775
356.165
349.041
341.744
334.301
326.737
319.079
311.348
303.566
295.753
287.927
280.106
272.306
264.542
256.827
249.175
241.595
234.1
226.698
219.398
212.208
205.135
198.185
191.364
184.676
178.125
171.716
165.45
159.331
153.359
147.537
141.866
136.346
130.977
125.759
120.692
115.774
111.005
106.384
101.909
97.5771
93.3878
89.3385
85.4269
81.6506
78.0071
74.4937
71.1076
67.846
64.7061
61.6849
58.7794
55.9866
53.3035
50.7269
48.2538
45.8811
43.6058
41.4247
39.335
37.3334
35.4172
33.5832
31.8285
30.1504
28.5459
27.0122
25.5466
24.1464
22.8089
21.5315
20.3117
19.1469
18.0347
16.9728
15.9586
14.99
14.0648
13.1806
12.3354
11.527
10.7535
10.0127
9.30284
8.62186
7.96792
7.33918
6.73382
6.1501
5.58626
5.0406
4.51145
3.99714
3.49607
3.00661
2.52718
2.0562
1.59213
1.13342
0.678527
0.225921
354.732
347.637
340.368
332.955
325.422
317.795
310.095
302.344
294.562
286.768
278.979
271.21
263.477
255.794
248.172
240.623
233.158
225.786
218.515
211.354
204.309
197.387
190.594
183.932
177.408
171.025
164.784
158.689
152.742
146.944
141.295
135.797
130.45
125.253
120.206
115.308
110.559
105.956
101.498
97.1843
93.0119
88.9789
85.0831
81.322
77.6931
74.1938
70.8214
67.5729
64.4457
61.4366
58.5428
55.7613
53.0889
50.5227
48.0595
45.6964
43.4303
41.258
39.1766
37.1832
35.2746
33.448
31.7004
30.029
28.431
26.9035
25.4438
24.0492
22.7171
21.4449
20.2299
19.0699
17.9621
16.9044
15.8944
14.9297
14.0081
13.1275
12.2857
11.4806
10.7102
9.97244
9.2654
8.58716
7.93585
7.30964
6.70672
6.12535
5.56378
5.02031
4.49329
3.98106
3.482
2.99451
2.517
2.04793
1.58573
1.12886
0.675796
0.225012
353.21
346.146
338.909
331.527
324.027
316.432
308.765
301.047
293.299
285.538
277.782
270.047
262.348
254.697
247.107
239.591
232.158
224.817
217.578
210.448
203.433
196.541
189.776
183.144
176.648
170.291
164.078
158.009
152.087
146.314
140.689
135.215
129.89
124.716
119.69
114.814
110.085
105.501
101.063
96.7676
92.6131
88.5974
84.7182
80.9733
77.36
73.8757
70.5177
67.2832
64.1693
61.1732
58.2918
55.5222
52.8613
50.306
47.8535
45.5005
43.244
41.0811
39.0087
37.0237
35.1233
33.3046
31.5645
29.9003
28.3091
26.7881
25.3347
23.9461
22.6197
21.3529
20.1432
18.9881
17.8851
16.832
15.8262
14.8657
13.9481
13.0712
12.233
11.4314
10.6643
9.92968
9.22567
8.55034
7.90182
7.27829
6.67797
6.09908
5.53992
4.99879
4.47402
3.96399
3.46707
2.98167
2.50621
2.03915
1.57893
1.12402
0.672898
0.224047
351.602
344.57
337.366
330.018
322.551
314.991
307.359
299.677
291.963
284.238
276.518
268.818
261.153
253.537
245.982
238.5
231.101
223.794
216.587
209.489
202.507
195.646
188.912
182.31
175.843
169.516
163.33
157.289
151.395
145.647
140.049
134.599
129.299
124.148
119.145
114.291
109.583
105.021
100.603
96.327
92.1914
88.1939
84.3325
80.6046
77.0077
73.5393
70.1966
66.9768
63.8771
60.8947
58.0264
55.2694
52.6206
50.077
47.6356
45.2933
43.0471
40.894
38.831
36.8552
34.9634
33.1529
31.4208
29.7641
28.1802
26.6661
25.2193
23.8371
22.5167
21.2557
20.0515
18.9016
17.8037
16.7553
15.7542
14.798
13.8846
13.0117
12.1773
11.3794
10.6157
9.88447
9.18367
8.51141
7.86585
7.24516
6.64756
6.07131
5.5147
4.97603
4.45365
3.94594
3.45128
2.96809
2.4948
2.02986
1.57174
1.1189
0.669835
0.223027
349.907
342.909
335.739
328.427
320.996
313.472
305.877
298.232
290.556
282.868
275.185
267.522
259.894
252.315
244.796
237.35
229.987
222.715
215.543
208.48
201.531
194.703
188.001
181.431
174.996
168.699
162.543
156.531
150.665
144.945
139.374
133.95
128.676
123.549
118.571
113.74
109.055
104.515
100.118
95.8626
91.7469
87.7688
83.9259
80.216
76.6365
73.1848
69.8582
66.6539
63.5692
60.6011
57.7466
55.0029
52.3669
49.8356
47.4059
45.0749
42.8396
40.6969
38.6438
36.6775
34.7949
32.9931
31.2693
29.6206
28.0443
26.5376
25.0978
23.7221
22.4082
21.1532
19.9548
18.8105
17.7179
16.6745
15.6782
14.7267
13.8176
12.949
12.1186
11.3245
10.5645
9.83682
9.1394
8.47038
7.82793
7.21023
6.61552
6.04204
5.48811
4.95204
4.43218
3.92692
3.43464
2.95378
2.48278
2.02008
1.56416
1.11351
0.666606
0.221952
348.126
341.163
334.03
326.755
319.362
311.877
304.32
296.714
289.077
281.428
273.784
266.16
258.571
251.03
243.55
236.142
228.816
221.581
214.446
207.418
200.505
193.712
187.044
180.507
174.105
167.84
161.716
155.734
149.898
144.207
138.664
133.268
128.021
122.92
117.967
113.161
108.5
103.983
99.6082
95.3746
91.2798
87.3219
83.4987
79.8076
76.2463
72.8122
69.5025
66.3146
63.2456
60.2926
57.4527
54.7229
52.1003
49.5819
47.1646
44.8455
42.6215
40.4897
38.4471
36.4908
34.6177
32.8251
31.1101
29.4698
27.9016
26.4025
24.97
23.6014
22.2941
21.0455
19.8532
18.7147
17.6277
16.5897
15.5984
14.6517
13.7473
12.8831
12.057
11.2668
10.5108
9.78675
9.09287
8.42726
7.78808
7.17353
6.58184
6.01129
5.46017
4.92683
4.40962
3.90693
3.41716
2.93875
2.47014
2.0098
1.5562
1.10784
0.663212
0.220822
346.259
339.333
332.238
325.002
317.649
310.204
302.688
295.122
287.526
279.918
272.315
264.732
257.184
249.684
242.244
234.875
227.589
220.393
213.296
206.306
199.429
192.673
186.041
179.539
173.171
166.94
160.848
154.899
149.094
143.434
137.92
132.553
127.334
122.261
117.335
112.554
107.918
103.425
99.074
94.863
90.7902
86.8536
83.0508
79.3795
75.8374
72.4216
69.1297
65.9589
62.9063
59.9692
57.1445
54.4294
51.8208
49.3159
46.9116
44.6049
42.3929
40.2725
38.2409
36.295
34.4321
32.6491
30.9433
29.3118
27.7519
26.2609
24.8361
23.4748
22.1745
20.9327
19.7468
18.6144
17.5331
16.5007
15.5148
14.5731
13.6736
12.814
11.9923
11.2064
10.4544
9.73426
9.0441
8.38206
7.74631
7.13505
6.54654
5.97905
5.43089
4.90041
4.38597
3.88597
3.39883
2.92298
2.45689
1.99902
1.54785
1.1019
0.659655
0.219638
344.306
337.419
330.365
323.169
315.858
308.454
300.981
293.458
285.905
278.34
270.78
263.239
255.734
248.276
240.878
233.551
226.305
219.15
212.093
205.142
198.305
191.586
184.992
178.527
172.194
165.998
159.941
154.025
148.253
142.625
137.142
131.806
126.616
121.572
116.673
111.919
107.309
102.842
98.5152
94.328
90.2782
86.3638
82.5824
78.9319
75.4097
72.0132
68.7399
65.5869
62.5516
59.631
56.8222
54.1224
51.5286
49.0378
46.6471
44.3534
42.1538
40.0454
38.0252
36.0904
34.2379
32.465
30.7688
29.1465
27.5954
26.1128
24.696
23.3424
22.0495
20.8146
19.6354
18.5094
17.4343
16.4076
15.4273
14.4909
13.5965
12.7417
11.9247
11.1432
10.3954
9.67937
8.9931
8.33479
7.70263
7.09482
6.50962
5.94533
5.40026
4.87277
4.36124
3.86406
3.37967
2.9065
2.44303
1.98774
1.53913
1.09568
0.655935
0.218399
342.268
335.422
328.41
321.257
313.989
306.629
299.2
291.721
284.213
276.693
269.177
261.682
254.22
246.806
239.452
232.169
224.966
217.853
210.838
203.928
197.131
190.452
183.897
177.47
171.175
165.016
158.994
153.114
147.375
141.781
136.331
131.026
125.866
120.852
115.982
111.257
106.674
102.233
97.9322
93.7698
89.744
85.8527
82.0937
78.4648
74.9634
71.587
68.3331
65.1988
62.1814
59.2781
56.486
53.8021
51.2237
48.7476
46.371
44.0909
41.9044
39.8084
37.8002
35.8768
34.0353
32.2728
30.5867
28.974
27.4321
25.9583
24.5499
23.2043
21.919
20.6914
19.5192
18.3999
17.3311
16.3105
15.336
14.4052
13.516
12.6663
11.8541
11.0773
10.3339
9.62208
8.93988
8.28547
7.65704
7.05283
6.4711
5.91015
5.36831
4.84394
4.33543
3.84119
3.35967
2.8893
2.42858
1.97598
1.53002
1.0892
0.652054
0.217107
340.146
333.343
326.374
319.265
312.042
304.728
297.344
289.912
282.451
274.977
267.508
260.059
252.644
245.276
237.968
230.729
223.571
216.502
209.53
202.664
195.909
189.271
182.757
176.37
170.114
163.993
158.009
152.164
146.462
140.902
135.486
130.214
125.086
120.103
115.263
110.567
106.013
101.599
97.325
93.1884
89.1875
85.3204
81.5847
77.9783
74.4986
71.1432
67.9094
64.7946
61.7959
58.9106
56.1357
53.4686
50.9061
48.4454
46.0835
43.8175
41.6446
39.5616
37.5658
35.6543
33.8242
32.0727
30.397
28.7944
27.262
25.7973
24.3976
23.0604
21.7831
20.5631
19.3982
18.2858
17.2236
16.2094
15.2409
14.3159
13.4322
12.5878
11.7806
11.0086
10.2699
9.56243
8.88446
8.2341
7.60957
7.00911
6.43098
5.87351
5.33503
4.81391
4.30855
3.81738
3.33884
2.87139
2.41352
1.96373
1.52053
1.08245
0.648011
0.215761
337.94
331.181
324.257
317.194
310.018
302.752
295.416
288.032
280.619
273.194
265.773
258.372
251.006
243.686
236.424
229.233
222.121
215.098
208.172
201.349
194.638
188.044
181.572
175.226
169.011
162.929
156.984
151.178
145.512
139.988
134.607
129.369
124.275
119.324
114.516
109.85
105.325
100.94
96.6938
92.584
88.6091
84.767
81.0556
77.4725
74.0155
70.6818
67.469
64.3743
61.3951
58.5285
55.7717
53.1218
50.5759
48.1312
45.7846
43.5334
41.3745
39.3051
37.3222
35.4231
33.6049
31.8647
30.1999
28.6076
27.0852
25.63
24.2394
22.9109
21.6418
20.4298
19.2724
18.1672
17.1119
16.1043
15.142
14.223
13.3451
12.5062
11.7042
10.9372
10.2033
9.50042
8.82684
8.18071
7.56022
6.96365
6.38927
5.83542
5.30043
4.78269
4.28061
3.79262
3.31718
2.85277
2.39787
1.951
1.51067
1.07543
0.643809
0.214362
335.651
328.937
322.06
315.046
307.918
300.701
293.415
286.081
278.718
271.343
263.973
256.622
249.305
242.035
234.823
227.68
220.616
213.641
206.761
199.985
193.32
186.77
180.342
174.039
167.866
161.825
155.92
150.153
144.526
139.04
133.695
128.493
123.433
118.515
113.74
109.106
104.612
100.256
96.0388
91.9568
88.0088
84.1928
80.5065
76.9477
73.514
70.203
67.0119
63.9382
60.9792
58.132
55.3939
52.7619
50.2333
47.8051
45.4745
43.2384
41.0942
39.0388
37.0694
35.1831
33.3772
31.6489
29.9953
28.4138
26.9017
25.4564
24.0752
22.7557
21.4952
20.2914
19.1418
18.0441
16.996
15.9952
15.0395
14.1267
13.2547
12.4214
11.6249
10.8631
10.1341
9.43606
8.76705
8.12529
7.50901
6.91648
6.34599
5.79589
5.26452
4.75029
4.25161
3.76693
3.29471
2.83344
2.38163
1.93778
1.50044
1.06814
0.639448
0.21291
333.279
326.613
319.784
312.819
305.742
298.575
291.341
284.059
276.748
269.425
262.107
254.808
247.543
240.324
233.163
226.071
219.057
212.131
205.3
198.572
191.953
185.45
179.067
172.809
166.679
160.682
154.818
149.092
143.505
138.057
132.75
127.584
122.561
117.678
112.936
108.335
103.872
99.5479
95.36
91.3069
87.3868
83.5977
79.9375
76.4039
72.9945
69.7068
66.5383
63.4863
60.5482
57.7211
55.0024
52.389
49.8783
47.4672
45.1531
42.9329
40.8038
38.7629
36.8074
34.9345
33.1413
31.4252
29.7833
28.213
26.7116
25.2765
23.9051
22.5948
21.3433
20.148
19.0065
17.9166
16.8759
15.8822
14.9332
14.0268
13.161
12.3337
11.5428
10.7864
10.0625
9.36937
8.70509
8.06787
7.45594
6.8676
6.30115
5.75493
5.22732
4.71672
4.22157
3.74031
3.27143
2.81342
2.36479
1.92409
1.48983
1.06059
0.634929
0.211405
330.824
324.207
317.429
310.515
303.49
296.376
289.195
281.967
274.71
267.441
260.177
252.932
245.72
238.554
231.446
224.406
217.444
210.568
203.788
197.11
190.54
184.084
177.748
171.536
165.452
159.498
153.678
147.994
142.448
137.04
131.772
126.645
121.658
116.811
112.104
107.537
103.107
98.8148
94.6577
90.6345
86.7433
82.9821
79.3488
75.8412
72.4569
69.1934
66.0483
63.0188
60.1023
57.2961
54.5973
52.0032
49.5109
47.1177
44.8205
42.6167
40.5033
38.4774
36.5363
34.6772
32.8973
31.1938
29.564
28.0052
26.5149
25.0903
23.729
22.4284
21.1861
19.9996
18.8666
17.7847
16.7516
15.7652
14.8232
13.9235
13.0641
12.2428
11.4578
10.7069
9.98841
9.30038
8.64098
8.00845
7.40104
6.81703
6.25474
5.71255
5.18882
4.68199
4.19048
3.71277
3.24734
2.7927
2.34738
1.90992
1.47886
1.05278
0.630253
0.209848
328.288
321.722
314.996
308.135
301.164
294.104
286.978
279.806
272.604
265.391
258.182
250.993
243.836
236.725
229.672
222.686
215.777
208.954
202.226
195.599
189.079
182.673
176.386
170.221
164.183
158.275
152.5
146.86
141.356
135.99
130.762
125.674
120.725
115.916
111.245
106.712
102.317
98.0573
93.9321
89.9397
86.0783
82.3459
78.7405
75.2598
71.9015
68.663
65.542
62.5357
59.6416
56.8568
54.1788
51.6046
49.1314
46.7565
44.477
42.29
40.1928
38.1824
36.2562
34.4114
32.6451
30.9546
29.3374
27.7906
26.3116
24.898
23.5471
22.2565
21.0237
19.8463
18.7219
17.6483
16.6232
15.6443
14.7096
13.8168
12.964
12.149
11.3699
10.6248
9.91185
9.22908
8.57475
7.94706
7.3443
6.76477
6.2068
5.66876
5.14905
4.6461
4.15836
3.68431
3.22245
2.77129
2.32939
1.89528
1.46753
1.04471
0.625422
0.20824
325.671
319.157
312.484
305.678
298.763
291.76
284.691
277.575
270.431
263.275
256.124
248.992
241.893
234.838
227.841
220.91
214.057
207.289
200.614
194.039
187.572
181.217
174.98
168.864
162.875
157.014
151.284
145.689
140.229
134.906
129.72
124.672
119.763
114.992
110.358
105.862
101.501
97.2756
93.1833
89.2227
85.3921
81.6895
78.1128
74.6598
71.3283
68.1156
65.0195
62.0372
59.1661
56.4036
53.7469
51.1932
48.7397
46.3837
44.1224
41.9529
39.8724
37.8781
35.9672
34.1371
32.3848
30.7079
29.1035
27.569
26.1019
24.6995
23.3594
22.0791
20.8561
19.6881
18.5727
17.5076
16.4907
15.5196
14.5923
13.7067
12.8606
12.0521
11.2793
10.5401
9.83283
9.15551
8.50639
7.88371
7.28576
6.71084
6.15732
5.62357
5.108
4.60906
4.12521
3.65494
3.19676
2.7492
2.31082
1.88017
1.45583
1.03639
0.620436
0.20658
322.974
316.514
309.896
303.147
296.288
289.343
282.333
275.276
268.191
261.094
254.003
246.93
239.889
232.893
225.954
219.081
212.284
205.572
198.952
192.432
186.018
179.716
173.53
167.466
161.525
155.713
150.031
144.482
139.067
133.788
128.645
123.64
118.771
114.039
109.444
104.985
100.661
96.4699
92.4115
88.4837
84.6848
81.0129
77.4658
74.0415
70.7375
67.5515
64.4809
61.5234
58.6761
55.9364
53.3017
50.7692
48.336
45.9996
43.7569
41.6054
39.5421
37.5643
35.6693
33.8543
32.1166
30.4535
28.8624
27.3407
25.8857
24.4949
23.1659
21.8962
20.6834
19.525
18.4189
17.3626
16.3541
15.3911
14.4715
13.5931
12.7541
11.9523
11.1859
10.4529
9.7514
9.07969
8.43594
7.81842
7.22542
6.65526
6.10632
5.57699
5.0657
4.57089
4.09104
3.62467
3.17028
2.72643
2.29168
1.8646
1.44377
1.0278
0.615298
0.204869
320.196
313.792
307.232
300.54
293.741
286.855
279.905
272.909
265.885
258.849
251.819
244.806
237.826
230.891
224.011
217.197
210.458
203.804
197.241
190.777
184.419
178.171
172.038
166.026
160.137
154.374
148.741
143.24
137.872
132.638
127.539
122.576
117.75
113.059
108.503
104.082
99.795
95.6404
91.6169
87.7229
83.9566
80.3163
76.7997
73.4048
70.1292
66.9706
63.9265
60.9943
58.1715
55.4554
52.8434
50.3326
47.9204
45.604
43.3807
41.2476
39.2021
37.2413
35.3626
33.5632
31.8405
30.1917
28.6143
27.1056
25.6631
24.2843
22.9667
21.7079
20.5055
19.3571
18.2605
17.2134
16.2135
15.2588
14.347
13.4763
12.6444
11.8495
11.0897
10.363
9.66755
9.00162
8.36341
7.75119
7.16329
6.59804
6.05382
5.52904
5.02214
4.53159
4.05587
3.5935
3.14302
2.70299
2.27198
1.84856
1.43136
1.01897
0.610008
0.203107
317.34
310.993
304.491
297.859
291.12
284.297
277.408
270.475
263.513
256.541
249.572
242.623
235.705
228.831
222.013
215.259
208.581
201.986
195.482
189.076
182.774
176.581
170.504
164.545
158.708
152.997
147.415
141.962
136.642
131.455
126.402
121.483
116.699
112.05
107.535
103.154
98.9049
94.7873
90.7996
86.9404
83.2078
79.5999
76.1147
72.7501
69.5037
66.3733
63.3563
60.4503
57.6527
54.9608
52.372
49.8837
47.493
45.1973
42.9938
40.8797
38.8524
36.9092
35.0472
33.2638
31.5565
29.9224
28.359
26.8638
25.4342
24.0677
22.7619
21.5143
20.3226
19.1845
18.0976
17.0598
16.0689
15.1227
14.2191
13.3561
12.5316
11.7439
10.9908
10.2705
9.58132
8.92133
8.28881
7.68206
7.0994
6.53919
5.99982
5.47973
4.97735
4.49117
4.01969
3.56145
3.11499
2.67888
2.25171
1.83208
1.41859
1.00988
0.604567
0.201296
314.406
308.117
301.676
295.105
288.428
281.668
274.843
267.974
261.076
254.168
247.265
240.379
233.525
226.715
219.96
213.269
206.652
200.118
193.674
187.327
181.084
174.948
168.927
163.023
157.241
151.583
146.052
140.65
135.378
130.239
125.233
120.36
115.62
111.014
106.541
102.2
97.9903
93.9108
89.96
86.1365
82.4383
78.8638
75.4109
72.0773
68.861
65.7595
62.7704
59.8913
57.1195
54.4526
51.8877
49.4224
47.0538
44.7793
42.5962
40.5017
38.4932
36.5679
34.7231
32.9563
31.2647
29.6457
28.0968
26.6154
25.199
23.8452
22.5514
21.3154
20.1347
19.0071
17.9303
16.9021
15.9203
14.9828
14.0876
13.2326
12.4158
11.6353
10.8891
10.1756
9.49273
8.83883
8.21217
7.61103
7.03375
6.47872
5.94435
5.42906
4.93132
4.44964
3.98252
3.52852
3.08619
2.65411
2.23089
1.81514
1.40547
1.00054
0.598976
0.199434
311.394
305.166
298.785
292.278
285.665
278.969
272.21
265.406
258.575
251.733
244.896
238.076
231.288
224.543
217.852
211.226
204.673
198.201
191.819
185.533
179.349
173.272
167.309
161.461
155.734
150.13
144.652
139.302
134.081
128.991
124.033
119.207
114.513
109.951
105.52
101.221
97.0516
93.0111
89.0982
85.3113
81.6486
78.1083
74.6884
71.3868
68.2013
65.1295
62.1691
59.3175
56.5723
53.9309
51.3907
48.9489
46.6031
44.3503
42.1881
40.1137
38.1244
36.2176
34.3905
32.6405
30.9652
29.3617
27.8276
26.3604
24.9576
23.6167
22.3354
21.1112
19.9418
18.825
17.7585
16.7402
15.7678
14.8393
13.9526
13.1058
12.2968
11.5238
10.7848
10.0781
9.40179
8.75416
8.1335
7.53811
6.96637
6.41666
5.8874
5.37705
4.88408
4.40701
3.94437
3.49472
3.05662
2.62869
2.20952
1.79775
1.39201
0.990955
0.593239
0.197524
308.305
302.139
295.822
289.379
282.832
276.202
269.51
262.774
256.01
249.236
242.467
235.715
228.994
222.316
215.691
209.131
202.642
196.235
189.916
183.692
177.57
171.554
165.649
159.86
154.189
148.641
143.217
137.92
132.751
127.712
122.803
118.024
113.377
108.86
104.474
100.217
96.0889
92.0885
88.2144
84.465
80.8387
77.3335
73.9476
70.6787
67.5248
64.4835
61.5524
58.7292
56.0112
53.396
50.8809
48.4634
46.1408
43.9104
41.7697
39.7158
37.7462
35.8583
34.0493
32.3168
30.658
29.0705
27.5516
26.099
24.7101
23.3825
22.1138
20.9018
19.744
18.6383
17.5824
16.5741
15.6114
14.6921
13.8142
12.9758