/*--------------------------------*- C++ -*----------------------------------*\
| =========                 |                                                 |
| \\      /  F ield         | OpenFOAM: The Open Source CFD Toolbox           |
|  \\    /   O peration     | Version:  2406                                  |
|   \\  /    A nd           | Website:  www.openfoam.com                      |
|    \\/     M anipulation  |                                                 |
\*---------------------------------------------------------------------------*/
FoamFile
{
    version     2.0;
    format      ascii;
    arch        "LSB;label=32;scalar=64";
    class       volScalarField;
    location    "190";
    object      T;
}
// * * * * * * * * * * * * * * * * * * * * * * * * * * * * * * * * * * * * * //

dimensions      [0 0 0 1 0 0 0];

internalField   nonuniform List<scalar> 
20000
(
299.417
299.43
299.443
299.457
299.472
299.487
299.502
299.517
299.533
299.549
299.565
299.581
299.597
299.613
299.629
299.645
299.661
299.677
299.692
299.708
299.723
299.737
299.752
299.766
299.78
299.793
299.806
299.819
299.832
299.844
299.856
299.867
299.878
299.889
299.899
299.909
299.918
299.927
299.936
299.944
299.952
299.96
299.967
299.974
299.98
299.987
299.992
299.998
300.003
300.008
300.012
300.017
300.02
300.024
300.027
300.03
300.033
300.036
300.038
300.04
300.042
300.043
300.045
300.046
300.047
300.048
300.048
300.048
300.049
300.049
300.048
300.048
300.048
300.047
300.046
300.046
300.045
300.043
300.042
300.041
300.04
300.038
300.036
300.035
300.033
300.031
300.029
300.027
300.025
300.023
300.021
300.019
300.017
300.015
300.013
300.01
300.008
300.006
300.003
300.001
298.251
298.289
298.33
298.372
298.415
298.46
298.506
298.552
298.6
298.647
298.695
298.744
298.792
298.84
298.889
298.936
298.984
299.031
299.077
299.123
299.168
299.212
299.255
299.298
299.339
299.38
299.419
299.458
299.495
299.532
299.567
299.601
299.634
299.666
299.697
299.726
299.755
299.782
299.808
299.833
299.857
299.879
299.901
299.922
299.941
299.96
299.977
299.994
300.009
300.024
300.037
300.05
300.061
300.072
300.082
300.091
300.1
300.107
300.114
300.12
300.126
300.13
300.134
300.138
300.14
300.143
300.144
300.145
300.146
300.146
300.145
300.144
300.143
300.141
300.139
300.137
300.134
300.13
300.127
300.123
300.119
300.114
300.109
300.104
300.099
300.094
300.088
300.082
300.076
300.07
300.064
300.057
300.051
300.044
300.038
300.031
300.024
300.017
300.01
300.003
297.085
297.149
297.216
297.286
297.359
297.434
297.51
297.588
297.666
297.746
297.826
297.907
297.987
298.068
298.148
298.228
298.307
298.385
298.462
298.538
298.613
298.687
298.759
298.83
298.899
298.967
299.033
299.097
299.159
299.22
299.278
299.335
299.39
299.443
299.494
299.544
299.591
299.636
299.68
299.722
299.761
299.799
299.835
299.87
299.902
299.933
299.962
299.989
300.015
300.039
300.062
300.083
300.102
300.12
300.137
300.152
300.166
300.179
300.19
300.2
300.209
300.217
300.224
300.229
300.234
300.238
300.24
300.242
300.243
300.243
300.242
300.241
300.238
300.235
300.232
300.228
300.223
300.217
300.211
300.205
300.198
300.19
300.182
300.174
300.165
300.156
300.147
300.137
300.127
300.117
300.106
300.096
300.085
300.074
300.063
300.052
300.04
300.029
300.017
300.006
295.92
296.009
296.104
296.202
296.304
296.408
296.515
296.623
296.734
296.845
296.957
297.07
297.183
297.295
297.408
297.519
297.63
297.739
297.847
297.954
298.059
298.162
298.263
298.362
298.459
298.554
298.646
298.736
298.823
298.908
298.99
299.07
299.147
299.221
299.292
299.361
299.428
299.491
299.552
299.61
299.666
299.719
299.769
299.817
299.863
299.906
299.947
299.985
300.021
300.055
300.086
300.116
300.143
300.169
300.192
300.213
300.233
300.25
300.266
300.28
300.293
300.304
300.313
300.321
300.328
300.333
300.336
300.339
300.34
300.34
300.339
300.337
300.334
300.33
300.324
300.318
300.312
300.304
300.296
300.286
300.277
300.266
300.255
300.243
300.231
300.219
300.205
300.192
300.178
300.164
300.149
300.134
300.119
300.104
300.088
300.072
300.056
300.04
300.024
300.008
294.756
294.871
294.992
295.118
295.249
295.383
295.52
295.66
295.802
295.945
296.089
296.234
296.379
296.524
296.668
296.811
296.954
297.094
297.233
297.37
297.505
297.638
297.768
297.895
298.02
298.141
298.26
298.375
298.487
298.596
298.702
298.804
298.903
298.999
299.091
299.179
299.264
299.346
299.424
299.499
299.571
299.639
299.704
299.765
299.824
299.879
299.932
299.981
300.027
300.071
300.111
300.149
300.184
300.217
300.247
300.274
300.299
300.322
300.342
300.36
300.377
300.391
300.403
300.413
300.421
300.428
300.432
300.436
300.437
300.437
300.436
300.433
300.429
300.424
300.417
300.409
300.401
300.391
300.38
300.368
300.356
300.342
300.328
300.313
300.297
300.281
300.264
300.247
300.229
300.21
300.192
300.172
300.153
300.133
300.113
300.093
300.072
300.052
300.031
300.01
293.593
293.734
293.882
294.036
294.196
294.36
294.527
294.698
294.871
295.046
295.222
295.399
295.576
295.753
295.929
296.104
296.278
296.45
296.62
296.787
296.952
297.114
297.273
297.428
297.58
297.729
297.874
298.015
298.152
298.285
298.414
298.539
298.66
298.776
298.889
298.997
299.101
299.201
299.296
299.388
299.475
299.559
299.638
299.713
299.785
299.852
299.916
299.977
300.033
300.086
300.136
300.182
300.225
300.265
300.301
300.335
300.365
300.393
300.418
300.44
300.46
300.477
300.492
300.504
300.514
300.522
300.528
300.532
300.534
300.534
300.532
300.529
300.524
300.518
300.51
300.5
300.489
300.477
300.464
300.45
300.434
300.418
300.4
300.382
300.363
300.343
300.323
300.301
300.279
300.257
300.234
300.211
300.187
300.163
300.138
300.113
300.088
300.063
300.038
300.013
292.431
292.598
292.773
292.955
293.144
293.337
293.535
293.737
293.942
294.148
294.356
294.565
294.775
294.983
295.192
295.398
295.604
295.807
296.007
296.205
296.4
296.591
296.778
296.962
297.142
297.317
297.489
297.655
297.817
297.974
298.127
298.274
298.417
298.555
298.688
298.815
298.938
299.056
299.169
299.277
299.38
299.479
299.572
299.661
299.746
299.826
299.901
299.972
300.039
300.102
300.16
300.215
300.266
300.313
300.356
300.395
300.432
300.464
300.494
300.52
300.543
300.564
300.581
300.596
300.608
300.617
300.624
300.629
300.631
300.631
300.629
300.625
300.619
300.611
300.602
300.591
300.578
300.564
300.548
300.531
300.513
300.494
300.473
300.451
300.429
300.405
300.381
300.356
300.33
300.304
300.276
300.249
300.221
300.192
300.163
300.134
300.104
300.075
300.045
300.015
291.272
291.464
291.666
291.876
292.093
292.317
292.545
292.778
293.014
293.252
293.492
293.733
293.974
294.215
294.455
294.693
294.93
295.164
295.395
295.624
295.848
296.069
296.285
296.497
296.704
296.907
297.104
297.296
297.483
297.664
297.84
298.01
298.175
298.333
298.486
298.634
298.775
298.911
299.042
299.166
299.285
299.399
299.507
299.61
299.707
299.799
299.886
299.968
300.045
300.117
300.185
300.248
300.306
300.36
300.41
300.456
300.498
300.535
300.569
300.6
300.627
300.65
300.67
300.687
300.701
300.712
300.72
300.725
300.727
300.728
300.725
300.721
300.714
300.705
300.694
300.681
300.667
300.65
300.632
300.613
300.592
300.569
300.546
300.521
300.495
300.467
300.439
300.41
300.381
300.35
300.319
300.287
300.254
300.221
300.188
300.154
300.12
300.086
300.052
300.017
290.115
290.333
290.561
290.799
291.045
291.298
291.557
291.82
292.087
292.357
292.629
292.902
293.175
293.448
293.72
293.99
294.258
294.523
294.785
295.043
295.297
295.547
295.792
296.032
296.267
296.496
296.72
296.937
297.149
297.354
297.553
297.746
297.933
298.112
298.286
298.453
298.613
298.767
298.915
299.056
299.191
299.319
299.441
299.558
299.668
299.772
299.871
299.964
300.051
300.133
300.209
300.281
300.347
300.408
300.465
300.516
300.564
300.606
300.645
300.679
300.71
300.736
300.759
300.778
300.794
300.806
300.815
300.821
300.824
300.824
300.821
300.816
300.809
300.798
300.786
300.772
300.755
300.736
300.716
300.694
300.67
300.645
300.618
300.59
300.56
300.529
300.498
300.465
300.431
300.396
300.361
300.325
300.288
300.251
300.213
300.175
300.136
300.098
300.059
300.02
288.96
289.203
289.459
289.724
289.999
290.281
290.57
290.865
291.163
291.464
291.768
292.073
292.378
292.683
292.986
293.288
293.587
293.883
294.176
294.464
294.748
295.027
295.301
295.569
295.831
296.087
296.337
296.58
296.816
297.045
297.268
297.483
297.691
297.892
298.086
298.272
298.451
298.623
298.788
298.945
299.096
299.24
299.376
299.506
299.629
299.746
299.856
299.96
300.057
300.149
300.234
300.314
300.388
300.456
300.519
300.577
300.629
300.677
300.72
300.759
300.793
300.822
300.848
300.869
300.886
300.9
300.91
300.917
300.92
300.92
300.917
300.912
300.903
300.892
300.878
300.862
300.843
300.822
300.8
300.775
300.748
300.72
300.69
300.659
300.626
300.591
300.556
300.519
300.481
300.443
300.403
300.363
300.322
300.28
300.238
300.195
300.152
300.109
300.065
300.022
287.808
288.077
288.359
288.652
288.955
289.267
289.586
289.911
290.241
290.574
290.909
291.245
291.582
291.919
292.254
292.587
292.918
293.245
293.568
293.887
294.2
294.508
294.811
295.107
295.396
295.679
295.954
296.223
296.484
296.737
296.983
297.22
297.45
297.672
297.886
298.092
298.289
298.479
298.661
298.835
299.002
299.16
299.311
299.455
299.591
299.719
299.841
299.955
300.063
300.164
300.258
300.346
300.428
300.503
300.573
300.637
300.695
300.748
300.795
300.838
300.875
300.908
300.936
300.96
300.979
300.994
301.005
301.013
301.016
301.016
301.013
301.007
300.997
300.985
300.97
300.952
300.931
300.908
300.883
300.856
300.826
300.795
300.762
300.727
300.691
300.653
300.614
300.573
300.532
300.489
300.445
300.401
300.355
300.309
300.263
300.216
300.168
300.12
300.072
300.024
286.659
286.953
287.261
287.582
287.914
288.256
288.605
288.96
289.321
289.685
290.052
290.42
290.789
291.157
291.524
291.889
292.25
292.608
292.962
293.31
293.653
293.991
294.321
294.645
294.962
295.272
295.573
295.867
296.152
296.429
296.698
296.958
297.21
297.452
297.686
297.912
298.128
298.336
298.535
298.726
298.908
299.081
299.246
299.403
299.552
299.693
299.826
299.951
300.069
300.179
300.283
300.379
300.468
300.551
300.627
300.697
300.761
300.818
300.87
300.917
300.958
300.993
301.024
301.05
301.071
301.088
301.1
301.108
301.112
301.112
301.109
301.102
301.091
301.078
301.061
301.041
301.019
300.994
300.966
300.936
300.904
300.87
300.834
300.796
300.756
300.715
300.672
300.627
300.582
300.535
300.487
300.438
300.389
300.338
300.287
300.236
300.184
300.132
300.079
300.026
285.513
285.832
286.167
286.516
286.877
287.247
287.626
288.012
288.404
288.799
289.198
289.598
289.998
290.398
290.796
291.192
291.585
291.973
292.357
292.736
293.108
293.475
293.834
294.186
294.53
294.865
295.193
295.512
295.822
296.123
296.415
296.697
296.97
297.234
297.488
297.732
297.967
298.193
298.409
298.616
298.814
299.002
299.182
299.352
299.514
299.666
299.811
299.947
300.075
300.195
300.307
300.411
300.508
300.598
300.681
300.757
300.826
300.889
300.945
300.996
301.04
301.079
301.112
301.14
301.163
301.181
301.194
301.203
301.208
301.208
301.204
301.196
301.185
301.17
301.152
301.131
301.106
301.079
301.049
301.017
300.982
300.945
300.905
300.864
300.821
300.776
300.729
300.681
300.632
300.581
300.529
300.476
300.422
300.368
300.312
300.256
300.2
300.143
300.086
300.029
284.371
284.715
285.077
285.453
285.842
286.242
286.651
287.067
287.489
287.916
288.346
288.777
289.209
289.641
290.071
290.498
290.921
291.341
291.755
292.163
292.565
292.96
293.348
293.727
294.098
294.461
294.814
295.158
295.492
295.817
296.132
296.437
296.731
297.016
297.29
297.554
297.807
298.051
298.284
298.507
298.72
298.923
299.117
299.301
299.475
299.64
299.796
299.943
300.081
300.21
300.331
300.444
300.549
300.645
300.735
300.816
300.891
300.959
301.02
301.074
301.122
301.164
301.2
301.23
301.255
301.274
301.289
301.298
301.303
301.303
301.299
301.291
301.278
301.262
301.243
301.22
301.194
301.164
301.132
301.097
301.059
301.019
300.977
300.932
300.886
300.837
300.787
300.735
300.681
300.627
300.571
300.514
300.455
300.397
300.337
300.276
300.216
300.154
300.093
300.031
283.233
283.602
283.99
284.393
284.811
285.24
285.678
286.125
286.578
287.036
287.497
287.96
288.424
288.886
289.347
289.806
290.26
290.71
291.154
291.592
292.024
292.447
292.863
293.27
293.668
294.057
294.436
294.805
295.164
295.512
295.85
296.177
296.493
296.798
297.092
297.375
297.648
297.909
298.159
298.398
298.627
298.845
299.053
299.25
299.437
299.614
299.781
299.939
300.087
300.226
300.355
300.476
300.589
300.692
300.788
300.876
300.956
301.029
301.094
301.152
301.204
301.249
301.287
301.32
301.346
301.367
301.382
301.393
301.398
301.398
301.393
301.385
301.372
301.354
301.333
301.309
301.281
301.249
301.215
301.177
301.137
301.094
301.048
301
300.95
300.898
300.844
300.788
300.731
300.672
300.612
300.551
300.489
300.425
300.361
300.297
300.231
300.165
300.099
300.033
282.099
282.493
282.907
283.338
283.783
284.241
284.71
285.187
285.67
286.159
286.651
287.146
287.641
288.135
288.627
289.116
289.601
290.082
290.556
291.024
291.484
291.936
292.38
292.815
293.24
293.655
294.06
294.454
294.837
295.209
295.569
295.919
296.256
296.582
296.896
297.198
297.488
297.767
298.034
298.29
298.534
298.767
298.989
299.199
299.399
299.588
299.766
299.935
300.093
300.241
300.379
300.508
300.628
300.739
300.841
300.935
301.021
301.098
301.168
301.23
301.285
301.333
301.374
301.409
301.437
301.459
301.476
301.487
301.492
301.492
301.488
301.478
301.464
301.446
301.424
301.397
301.367
301.334
301.297
301.257
301.213
301.168
301.119
301.068
301.014
300.959
300.901
300.842
300.781
300.718
300.654
300.588
300.522
300.454
300.386
300.317
300.247
300.177
300.106
300.035
280.969
281.388
281.828
282.286
282.76
283.247
283.745
284.252
284.766
285.286
285.809
286.334
286.861
287.386
287.909
288.429
288.945
289.456
289.96
290.457
290.947
291.428
291.899
292.362
292.813
293.255
293.685
294.104
294.511
294.907
295.29
295.661
296.02
296.366
296.7
297.021
297.33
297.626
297.91
298.182
298.442
298.689
298.925
299.149
299.361
299.562
299.752
299.93
300.098
300.256
300.403
300.541
300.668
300.786
300.895
300.994
301.085
301.168
301.242
301.308
301.366
301.417
301.461
301.498
301.528
301.552
301.569
301.581
301.586
301.587
301.582
301.572
301.557
301.537
301.513
301.485
301.454
301.418
301.379
301.336
301.29
301.241
301.19
301.135
301.078
301.019
300.958
300.895
300.83
300.763
300.695
300.625
300.555
300.483
300.41
300.337
300.262
300.188
300.113
300.038
279.844
280.288
280.754
281.239
281.741
282.256
282.784
283.321
283.865
284.416
284.97
285.527
286.084
286.64
287.194
287.745
288.291
288.832
289.366
289.893
290.411
290.921
291.421
291.91
292.389
292.856
293.312
293.755
294.187
294.605
295.011
295.404
295.784
296.151
296.505
296.845
297.172
297.486
297.787
298.075
298.35
298.612
298.861
299.098
299.323
299.536
299.737
299.926
300.104
300.271
300.427
300.572
300.707
300.832
300.947
301.053
301.149
301.237
301.315
301.385
301.447
301.501
301.547
301.586
301.618
301.643
301.662
301.674
301.68
301.68
301.675
301.664
301.649
301.628
301.603
301.573
301.539
301.502
301.46
301.415
301.366
301.315
301.26
301.202
301.142
301.08
301.015
300.948
300.879
300.808
300.736
300.662
300.587
300.511
300.434
300.356
300.278
300.199
300.119
300.04
278.724
279.193
279.684
280.196
280.726
281.27
281.827
282.394
282.969
283.55
284.135
284.722
285.31
285.898
286.483
287.064
287.641
288.212
288.775
289.331
289.879
290.416
290.944
291.46
291.966
292.459
292.94
293.408
293.864
294.306
294.734
295.149
295.55
295.937
296.31
296.67
297.015
297.346
297.664
297.968
298.258
298.534
298.798
299.048
299.286
299.51
299.722
299.922
300.11
300.286
300.451
300.604
300.747
300.879
301
301.112
301.213
301.305
301.388
301.462
301.527
301.584
301.633
301.675
301.708
301.735
301.754
301.767
301.773
301.774
301.768
301.757
301.74
301.719
301.692
301.661
301.625
301.585
301.541
301.493
301.442
301.388
301.33
301.269
301.206
301.14
301.071
301
300.928
300.853
300.777
300.699
300.62
300.54
300.458
300.376
300.293
300.21
300.126
300.042
277.609
278.102
278.62
279.159
279.716
280.289
280.875
281.471
282.076
282.688
283.304
283.922
284.541
285.159
285.774
286.386
286.993
287.594
288.187
288.772
289.348
289.914
290.469
291.013
291.545
292.064
292.57
293.063
293.542
294.007
294.458
294.895
295.317
295.724
296.117
296.495
296.858
297.207
297.541
297.861
298.166
298.458
298.735
298.998
299.248
299.484
299.708
299.918
300.116
300.301
300.474
300.636
300.786
300.925
301.053
301.17
301.277
301.374
301.461
301.539
301.607
301.667
301.719
301.762
301.798
301.826
301.846
301.86
301.866
301.867
301.861
301.849
301.832
301.809
301.781
301.748
301.71
301.668
301.622
301.572
301.518
301.46
301.4
301.336
301.269
301.199
301.127
301.053
300.976
300.898
300.818
300.736
300.653
300.568
300.482
300.396
300.309
300.221
300.133
300.044
276.5
277.017
277.561
278.126
278.711
279.312
279.927
280.553
281.188
281.83
282.476
283.125
283.775
284.423
285.07
285.712
286.349
286.979
287.602
288.216
288.82
289.414
289.997
290.568
291.126
291.671
292.202
292.719
293.222
293.71
294.184
294.642
295.085
295.513
295.925
296.321
296.703
297.069
297.42
297.755
298.076
298.381
298.672
298.949
299.211
299.459
299.693
299.914
300.122
300.316
300.498
300.667
300.825
300.971
301.105
301.228
301.34
301.442
301.533
301.615
301.687
301.75
301.804
301.85
301.887
301.916
301.938
301.952
301.959
301.959
301.953
301.941
301.922
301.898
301.869
301.834
301.795
301.751
301.702
301.65
301.593
301.533
301.469
301.402
301.332
301.259
301.183
301.105
301.025
300.942
300.858
300.772
300.685
300.596
300.506
300.416
300.324
300.232
300.139
300.046
275.396
275.938
276.507
277.099
277.711
278.341
278.985
279.64
280.305
280.977
281.654
282.333
283.013
283.692
284.369
285.041
285.708
286.368
287.02
287.663
288.296
288.917
289.527
290.125
290.709
291.28
291.836
292.377
292.904
293.415
293.911
294.39
294.854
295.302
295.733
296.149
296.548
296.931
297.298
297.65
297.985
298.305
298.61
298.899
299.174
299.434
299.679
299.91
300.127
300.331
300.521
300.699
300.864
301.016
301.157
301.285
301.403
301.509
301.605
301.691
301.766
301.832
301.889
301.936
301.975
302.006
302.029
302.043
302.051
302.051
302.045
302.032
302.013
301.987
301.957
301.92
301.879
301.833
301.782
301.727
301.668
301.605
301.538
301.468
301.394
301.318
301.239
301.157
301.073
300.987
300.898
300.809
300.717
300.624
300.53
300.435
300.339
300.243
300.146
300.049
274.299
274.865
275.459
276.078
276.717
277.375
278.047
278.732
279.427
280.128
280.835
281.545
282.255
282.965
283.671
284.374
285.07
285.76
286.441
287.112
287.773
288.423
289.06
289.684
290.295
290.891
291.472
292.037
292.587
293.121
293.639
294.14
294.625
295.092
295.543
295.977
296.394
296.794
297.178
297.545
297.895
298.23
298.548
298.85
299.137
299.408
299.665
299.906
300.133
300.346
300.545
300.73
300.902
301.061
301.208
301.343
301.465
301.577
301.677
301.766
301.845
301.914
301.973
302.023
302.063
302.095
302.119
302.135
302.142
302.143
302.136
302.122
302.102
302.076
302.044
302.006
301.963
301.915
301.862
301.804
301.742
301.676
301.606
301.533
301.456
301.377
301.294
301.209
301.121
301.031
300.939
300.845
300.749
300.652
300.554
300.455
300.354
300.254
300.152
300.051
273.207
273.798
274.417
275.062
275.729
276.414
277.115
277.829
278.553
279.285
280.022
280.761
281.502
282.241
282.978
283.71
284.437
285.155
285.865
286.565
287.254
287.932
288.596
289.246
289.883
290.504
291.11
291.699
292.273
292.829
293.369
293.891
294.396
294.884
295.354
295.806
296.241
296.658
297.058
297.441
297.806
298.155
298.486
298.801
299.1
299.383
299.65
299.902
300.139
300.36
300.568
300.761
300.94
301.106
301.259
301.4
301.528
301.644
301.748
301.841
301.923
301.995
302.057
302.109
302.151
302.184
302.209
302.225
302.233
302.234
302.227
302.212
302.192
302.164
302.131
302.091
302.046
301.996
301.941
301.881
301.816
301.747
301.675
301.598
301.518
301.435
301.349
301.26
301.168
301.074
300.978
300.88
300.781
300.68
300.577
300.474
300.369
300.264
300.159
300.053
272.123
272.737
273.382
274.053
274.746
275.459
276.189
276.932
277.685
278.446
279.213
279.983
280.753
281.523
282.289
283.051
283.807
284.554
285.293
286.022
286.738
287.443
288.134
288.811
289.473
290.119
290.75
291.363
291.96
292.539
293.101
293.644
294.17
294.677
295.166
295.636
296.089
296.523
296.939
297.337
297.717
298.08
298.425
298.753
299.064
299.358
299.636
299.898
300.144
300.375
300.591
300.792
300.978
301.151
301.31
301.456
301.59
301.71
301.819
301.916
302.001
302.076
302.14
302.194
302.238
302.273
302.298
302.315
302.324
302.324
302.317
302.302
302.28
302.252
302.217
302.176
302.129
302.077
302.019
301.957
301.89
301.818
301.742
301.663
301.58
301.493
301.403
301.311
301.216
301.118
301.018
300.916
300.812
300.707
300.601
300.493
300.384
300.275
300.165
300.055
271.045
271.683
272.353
273.05
273.77
274.511
275.269
276.04
276.823
277.613
278.409
279.209
280.009
280.808
281.604
282.396
283.181
283.957
284.725
285.481
286.226
286.958
287.675
288.379
289.066
289.738
290.392
291.029
291.649
292.251
292.834
293.398
293.944
294.471
294.979
295.468
295.938
296.389
296.821
297.234
297.629
298.006
298.364
298.705
299.028
299.333
299.622
299.894
300.15
300.39
300.614
300.822
301.016
301.196
301.361
301.513
301.651
301.776
301.889
301.99
302.079
302.156
302.223
302.279
302.325
302.361
302.387
302.405
302.413
302.414
302.406
302.391
302.368
302.339
302.303
302.26
302.211
302.157
302.097
302.032
301.963
301.888
301.81
301.727
301.641
301.551
301.458
301.362
301.263
301.161
301.057
300.952
300.844
300.735
300.624
300.512
300.399
300.286
300.172
300.057
269.975
270.636
271.331
272.053
272.8
273.568
274.354
275.154
275.966
276.786
277.611
278.44
279.27
280.099
280.924
281.745
282.559
283.364
284.16
284.944
285.717
286.475
287.22
287.949
288.662
289.358
290.037
290.698
291.34
291.964
292.569
293.154
293.72
294.267
294.793
295.3
295.787
296.255
296.703
297.132
297.541
297.932
298.304
298.657
298.992
299.309
299.608
299.89
300.155
300.404
300.636
300.853
301.054
301.24
301.411
301.569
301.712
301.842
301.959
302.063
302.156
302.236
302.305
302.363
302.411
302.448
302.475
302.494
302.503
302.503
302.495
302.479
302.456
302.425
302.388
302.344
302.293
302.237
302.175
302.108
302.035
301.958
301.877
301.791
301.701
301.608
301.512
301.412
301.309
301.204
301.096
300.987
300.875
300.762
300.647
300.531
300.414
300.296
300.178
300.059
268.912
269.597
270.315
271.064
271.837
272.633
273.446
274.275
275.115
275.964
276.818
277.677
278.536
279.394
280.249
281.099
281.941
282.775
283.599
284.411
285.211
285.997
286.767
287.522
288.26
288.981
289.684
290.368
291.034
291.68
292.306
292.912
293.498
294.064
294.609
295.134
295.638
296.122
296.586
297.03
297.454
297.859
298.244
298.609
298.956
299.284
299.594
299.886
300.161
300.418
300.659
300.883
301.091
301.284
301.461
301.624
301.773
301.907
302.028
302.136
302.232
302.315
302.387
302.447
302.496
302.535
302.563
302.582
302.591
302.592
302.584
302.567
302.543
302.511
302.472
302.427
302.374
302.316
302.252
302.182
302.107
302.028
301.943
301.854
301.762
301.665
301.565
301.462
301.356
301.247
301.135
301.022
300.906
300.789
300.67
300.55
300.429
300.307
300.184
300.061
267.856
268.565
269.308
270.081
270.881
271.704
272.545
273.401
274.27
275.148
276.031
276.919
277.807
278.695
279.579
280.457
281.328
282.19
283.042
283.882
284.709
285.521
286.318
287.099
287.862
288.607
289.334
290.042
290.729
291.397
292.045
292.671
293.277
293.862
294.426
294.969
295.49
295.991
296.471
296.93
297.368
297.786
298.184
298.562
298.921
299.26
299.58
299.882
300.166
300.432
300.681
300.913
301.128
301.327
301.511
301.679
301.833
301.972
302.097
302.209
302.308
302.394
302.468
302.53
302.581
302.621
302.65
302.67
302.679
302.68
302.671
302.654
302.629
302.596
302.556
302.509
302.455
302.395
302.328
302.256
302.179
302.096
302.009
301.917
301.821
301.722
301.618
301.511
301.402
301.289
301.174
301.056
300.937
300.815
300.693
300.568
300.443
300.317
300.191
300.064
266.809
267.54
268.308
269.106
269.932
270.781
271.65
272.534
273.431
274.338
275.25
276.167
277.084
278
278.913
279.82
280.72
281.61
282.49
283.357
284.211
285.049
285.872
286.678
287.466
288.236
288.986
289.717
290.427
291.117
291.785
292.432
293.058
293.662
294.244
294.805
295.343
295.86
296.356
296.829
297.282
297.714
298.125
298.515
298.885
299.236
299.567
299.879
300.172
300.446
300.703
300.943
301.165
301.371
301.56
301.734
301.892
302.036
302.165
302.281
302.383
302.472
302.548
302.612
302.665
302.706
302.736
302.757
302.767
302.767
302.758
302.741
302.715
302.681
302.64
302.591
302.535
302.473
302.404
302.33
302.25
302.165
302.075
301.98
301.881
301.778
301.671
301.561
301.447
301.331
301.212
301.091
300.967
300.842
300.715
300.587
300.458
300.328
300.197
300.066
265.77
266.524
267.315
268.139
268.991
269.867
270.762
271.675
272.6
273.534
274.475
275.421
276.367
277.312
278.253
279.188
280.116
281.034
281.941
282.836
283.716
284.581
285.43
286.261
287.074
287.868
288.642
289.395
290.128
290.839
291.528
292.196
292.841
293.464
294.064
294.642
295.197
295.731
296.241
296.73
297.197
297.642
298.066
298.469
298.851
299.212
299.553
299.875
300.177
300.46
300.725
300.972
301.202
301.414
301.609
301.788
301.952
302.1
302.233
302.352
302.457
302.549
302.628
302.694
302.748
302.791
302.822
302.843
302.853
302.854
302.845
302.827
302.8
302.765
302.722
302.672
302.614
302.55
302.48
302.403
302.32
302.232
302.14
302.042
301.94
301.833
301.723
301.61
301.493
301.373
301.25
301.125
300.998
300.868
300.738
300.605
300.472
300.338
300.203
300.068
264.739
265.516
266.331
267.18
268.057
268.959
269.882
270.821
271.774
272.737
273.707
274.68
275.655
276.628
277.598
278.561
279.517
280.463
281.397
282.319
283.226
284.117
284.991
285.847
286.685
287.502
288.3
289.076
289.83
290.563
291.273
291.961
292.625
293.267
293.885
294.481
295.053
295.602
296.128
296.632
297.113
297.571
298.008
298.423
298.816
299.188
299.54
299.871
300.182
300.474
300.747
301.002
301.238
301.456
301.658
301.842
302.011
302.163
302.301
302.423
302.531
302.626
302.707
302.775
302.831
302.875
302.907
302.928
302.939
302.94
302.93
302.912
302.884
302.848
302.804
302.752
302.693
302.627
302.554
302.475
302.39
302.3
302.204
302.103
301.998
301.889
301.775
301.658
301.538
301.414
301.288
301.159
301.028
300.895
300.76
300.624
300.486
300.348
300.209
300.07
263.717
264.516
265.355
266.228
267.131
268.059
269.009
269.976
270.956
271.947
272.945
273.946
274.949
275.951
276.948
277.94
278.923
279.897
280.858
281.806
282.739
283.656
284.556
285.437
286.299
287.14
287.96
288.759
289.535
290.289
291.02
291.727
292.411
293.072
293.708
294.321
294.909
295.475
296.016
296.534
297.029
297.501
297.95
298.377
298.782
299.165
299.526
299.867
300.188
300.488
300.769
301.031
301.274
301.498
301.706
301.896
302.069
302.226
302.367
302.493
302.605
302.702
302.785
302.856
302.913
302.958
302.991
303.013
303.024
303.025
303.015
302.996
302.968
302.931
302.885
302.832
302.771
302.703
302.628
302.547
302.459
302.366
302.268
302.164
302.056
301.943
301.827
301.706
301.582
301.455
301.325
301.192
301.057
300.921
300.782
300.642
300.5
300.358
300.215
300.072
262.704
263.525
264.388
265.285
266.213
267.167
268.143
269.137
270.145
271.164
272.189
273.219
274.25
275.279
276.305
277.324
278.335
279.335
280.324
281.298
282.258
283.2
284.125
285.03
285.916
286.781
287.624
288.445
289.243
290.018
290.769
291.496
292.199
292.878
293.532
294.162
294.767
295.348
295.905
296.437
296.946
297.431
297.893
298.331
298.748
299.141
299.513
299.864
300.193
300.502
300.79
301.059
301.309
301.54
301.753
301.948
302.127
302.288
302.433
302.563
302.678
302.777
302.863
302.935
302.994
303.041
303.075
303.097
303.109
303.109
303.1
303.08
303.051
303.013
302.966
302.911
302.849
302.779
302.702
302.618
302.528
302.432
302.331
302.225
302.113
301.998
301.878
301.754
301.626
301.496
301.362
301.226
301.087
300.946
300.804
300.66
300.514
300.368
300.221
300.074
261.7
262.543
263.429
264.351
265.304
266.284
267.286
268.306
269.341
270.387
271.441
272.498
273.557
274.614
275.667
276.714
277.752
278.779
279.794
280.795
281.78
282.748
283.697
284.627
285.537
286.425
287.291
288.134
288.954
289.749
290.521
291.268
291.989
292.686
293.358
294.005
294.626
295.223
295.795
296.341
296.864
297.362
297.836
298.287
298.714
299.118
299.5
299.86
300.198
300.515
300.812
301.088
301.344
301.582
301.8
302.001
302.184
302.35
302.499
302.632
302.75
302.852
302.94
303.014
303.075
303.123
303.158
303.181
303.192
303.193
303.183
303.163
303.133
303.094
303.046
302.99
302.925
302.853
302.774
302.688
302.596
302.498
302.394
302.285
302.17
302.051
301.928
301.801
301.67
301.536
301.399
301.259
301.116
300.972
300.825
300.677
300.528
300.378
300.227
300.076
260.705
261.571
262.479
263.425
264.403
265.408
266.436
267.484
268.545
269.618
270.699
271.784
272.87
273.955
275.035
276.109
277.174
278.228
279.269
280.296
281.307
282.3
283.274
284.228
285.161
286.073
286.961
287.826
288.667
289.483
290.275
291.041
291.781
292.496
293.186
293.849
294.487
295.099
295.685
296.246
296.782
297.293
297.78
298.242
298.68
299.095
299.487
299.856
300.203
300.529
300.833
301.116
301.379
301.623
301.847
302.053
302.241
302.411
302.564
302.7
302.821
302.926
303.017
303.093
303.155
303.204
303.24
303.263
303.275
303.276
303.266
303.245
303.214
303.174
303.125
303.067
303.001
302.927
302.846
302.758
302.664
302.563
302.456
302.344
302.227
302.105
301.978
301.848
301.713
301.576
301.435
301.291
301.145
300.997
300.847
300.695
300.542
300.388
300.233
300.078
259.72
260.608
261.539
262.508
263.511
264.541
265.595
266.669
267.757
268.857
269.965
271.077
272.19
273.302
274.409
275.51
276.602
277.682
278.75
279.802
280.838
281.856
282.855
283.833
284.79
285.724
286.634
287.521
288.383
289.22
290.031
290.816
291.576
292.308
293.015
293.695
294.349
294.976
295.577
296.152
296.702
297.226
297.724
298.198
298.647
299.073
299.474
299.853
300.208
300.542
300.854
301.144
301.414
301.663
301.893
302.104
302.297
302.471
302.628
302.768
302.892
303
303.092
303.17
303.234
303.284
303.321
303.345
303.357
303.358
303.347
303.326
303.295
303.254
303.203
303.144
303.076
303.001
302.918
302.827
302.73
302.627
302.518
302.403
302.283
302.157
302.028
301.894
301.756