/*--------------------------------*- C++ -*----------------------------------*\
| =========                 |                                                 |
| \\      /  F ield         | OpenFOAM: The Open Source CFD Toolbox           |
|  \\    /   O peration     | Version:  2406                                  |
|   \\  /    A nd           | Website:  www.openfoam.com                      |
|    \\/     M anipulation  |                                                 |
\*---------------------------------------------------------------------------*/
FoamFile
{
    version     2.0;
    format      ascii;
    arch        "LSB;label=32;scalar=64";
    class       volScalarField;
    location    "65";
    object      T;
}
// * * * * * * * * * * * * * * * * * * * * * * * * * * * * * * * * * * * * * //

dimensions      [0 0 0 1 0 0 0];

internalField   nonuniform List<scalar> 
20000
(
300.655
300.621
300.588
300.555
300.524
300.494
300.465
300.437
300.411
300.385
300.361
300.337
300.315
300.294
300.274
300.255
300.238
300.221
300.205
300.19
300.176
300.163
300.15
300.139
300.128
300.118
300.108
300.1
300.091
300.084
300.077
300.07
300.064
300.059
300.054
300.049
300.044
300.04
300.037
300.033
300.03
300.027
300.025
300.022
300.02
300.018
300.017
300.015
300.013
300.012
300.011
300.01
300.009
300.008
300.007
300.006
300.006
300.005
300.004
300.004
300.004
300.003
300.003
300.002
300.002
300.002
300.002
300.002
300.001
300.001
300.001
300.001
300.001
300.001
300.001
300.001
300
300
300
300
300
300
300
300
300
300
300
300
300
300
300
300
300
300
300
300
300
300
300
300
301.964
301.862
301.762
301.666
301.572
301.482
301.395
301.312
301.232
301.155
301.082
301.012
300.946
300.883
300.823
300.766
300.713
300.662
300.614
300.57
300.527
300.488
300.451
300.416
300.383
300.353
300.325
300.299
300.274
300.251
300.23
300.211
300.193
300.176
300.161
300.146
300.133
300.121
300.11
300.1
300.091
300.082
300.075
300.067
300.061
300.055
300.05
300.045
300.04
300.036
300.032
300.029
300.026
300.023
300.021
300.019
300.017
300.015
300.013
300.012
300.011
300.009
300.008
300.007
300.007
300.006
300.005
300.005
300.004
300.004
300.003
300.003
300.002
300.002
300.002
300.002
300.001
300.001
300.001
300.001
300.001
300.001
300.001
300.001
300
300
300
300
300
300
300
300
300
300
300
300
300
300
300
300
303.274
303.103
302.937
302.776
302.62
302.47
302.325
302.186
302.053
301.925
301.803
301.687
301.576
301.471
301.371
301.277
301.188
301.103
301.024
300.949
300.879
300.813
300.751
300.693
300.639
300.588
300.541
300.498
300.457
300.419
300.384
300.351
300.321
300.293
300.268
300.244
300.222
300.202
300.184
300.167
300.151
300.137
300.124
300.112
300.101
300.092
300.083
300.074
300.067
300.06
300.054
300.049
300.044
300.039
300.035
300.031
300.028
300.025
300.022
300.02
300.018
300.016
300.014
300.012
300.011
300.01
300.009
300.008
300.007
300.006
300.005
300.005
300.004
300.004
300.003
300.003
300.002
300.002
300.002
300.002
300.001
300.001
300.001
300.001
300.001
300.001
300.001
300.001
300
300
300
300
300
300
300
300
300
300
300
300
304.582
304.343
304.111
303.885
303.668
303.457
303.254
303.06
302.873
302.694
302.524
302.361
302.206
302.059
301.919
301.787
301.662
301.544
301.433
301.328
301.23
301.138
301.051
300.97
300.894
300.824
300.758
300.696
300.639
300.586
300.537
300.492
300.45
300.411
300.375
300.342
300.311
300.283
300.257
300.234
300.212
300.192
300.174
300.157
300.142
300.128
300.116
300.104
300.094
300.084
300.076
300.068
300.061
300.055
300.049
300.044
300.039
300.035
300.031
300.028
300.025
300.022
300.019
300.017
300.015
300.014
300.012
300.011
300.009
300.008
300.007
300.006
300.006
300.005
300.004
300.004
300.003
300.003
300.003
300.002
300.002
300.002
300.001
300.001
300.001
300.001
300.001
300.001
300.001
300.001
300
300
300
300
300
300
300
300
300
300
305.889
305.582
305.284
304.994
304.714
304.443
304.183
303.933
303.693
303.463
303.244
303.035
302.835
302.646
302.467
302.297
302.136
301.985
301.842
301.707
301.581
301.462
301.351
301.247
301.149
301.059
300.974
300.895
300.822
300.754
300.691
300.632
300.578
300.528
300.482
300.439
300.4
300.364
300.331
300.3
300.272
300.247
300.223
300.202
300.183
300.165
300.149
300.134
300.12
300.108
300.097
300.087
300.078
300.07
300.063
300.056
300.05
300.045
300.04
300.036
300.032
300.028
300.025
300.022
300.02
300.017
300.015
300.014
300.012
300.011
300.009
300.008
300.007
300.006
300.006
300.005
300.004
300.004
300.003
300.003
300.003
300.002
300.002
300.002
300.001
300.001
300.001
300.001
300.001
300.001
300.001
300.001
300
300
300
300
300
300
300
300
307.195
306.82
306.455
306.101
305.759
305.429
305.11
304.805
304.512
304.231
303.963
303.707
303.464
303.233
303.014
302.806
302.61
302.425
302.25
302.086
301.931
301.786
301.65
301.523
301.404
301.293
301.19
301.094
301.004
300.921
300.844
300.772
300.706
300.645
300.588
300.536
300.488
300.444
300.404
300.367
300.333
300.301
300.273
300.247
300.223
300.201
300.181
300.164
300.147
300.132
300.119
300.107
300.096
300.086
300.077
300.069
300.061
300.055
300.049
300.043
300.039
300.034
300.03
300.027
300.024
300.021
300.019
300.017
300.015
300.013
300.011
300.01
300.009
300.008
300.007
300.006
300.005
300.005
300.004
300.004
300.003
300.003
300.002
300.002
300.002
300.002
300.001
300.001
300.001
300.001
300.001
300.001
300.001
300
300
300
300
300
300
300
308.499
308.056
307.625
307.207
306.803
306.412
306.037
305.675
305.329
304.998
304.681
304.379
304.092
303.819
303.56
303.315
303.083
302.864
302.658
302.464
302.281
302.11
301.95
301.799
301.659
301.528
301.406
301.292
301.186
301.088
300.997
300.912
300.834
300.762
300.695
300.634
300.577
300.525
300.477
300.433
300.393
300.356
300.322
300.292
300.263
300.238
300.214
300.193
300.174
300.156
300.14
300.126
300.113
300.101
300.091
300.081
300.072
300.065
300.058
300.051
300.046
300.041
300.036
300.032
300.028
300.025
300.022
300.02
300.017
300.015
300.013
300.012
300.01
300.009
300.008
300.007
300.006
300.005
300.005
300.004
300.004
300.003
300.003
300.002
300.002
300.002
300.002
300.001
300.001
300.001
300.001
300.001
300.001
300.001
300
300
300
300
300
300
309.8
309.29
308.793
308.311
307.845
307.395
306.961
306.545
306.145
305.763
305.398
305.05
304.719
304.404
304.105
303.823
303.555
303.303
303.065
302.841
302.631
302.433
302.248
302.075
301.913
301.762
301.621
301.49
301.368
301.254
301.149
301.052
300.962
300.878
300.802
300.731
300.665
300.605
300.55
300.5
300.453
300.411
300.372
300.336
300.304
300.274
300.247
300.223
300.2
300.18
300.162
300.145
300.13
300.117
300.104
300.093
300.083
300.074
300.066
300.059
300.053
300.047
300.042
300.037
300.033
300.029
300.026
300.023
300.02
300.018
300.016
300.014
300.012
300.011
300.009
300.008
300.007
300.006
300.005
300.005
300.004
300.004
300.003
300.003
300.002
300.002
300.002
300.002
300.001
300.001
300.001
300.001
300.001
300.001
300
300
300
300
300
300
311.1
310.521
309.959
309.413
308.885
308.375
307.884
307.413
306.96
306.527
306.114
305.72
305.344
304.988
304.65
304.33
304.027
303.741
303.472
303.218
302.98
302.756
302.546
302.35
302.167
301.995
301.836
301.687
301.549
301.421
301.302
301.191
301.089
300.995
300.908
300.828
300.754
300.686
300.623
300.566
300.513
300.465
300.421
300.381
300.344
300.311
300.28
300.252
300.227
300.204
300.183
300.165
300.148
300.132
300.118
300.106
300.094
300.084
300.075
300.067
300.06
300.053
300.047
300.042
300.037
300.033
300.029
300.026
300.023
300.02
300.018
300.016
300.014
300.012
300.011
300.009
300.008
300.007
300.006
300.005
300.005
300.004
300.004
300.003
300.003
300.002
300.002
300.002
300.002
300.001
300.001
300.001
300.001
300.001
300.001
300
300
300
300
300
312.396
311.75
311.122
310.512
309.923
309.354
308.805
308.279
307.773
307.29
306.828
306.388
305.969
305.571
305.193
304.835
304.497
304.178
303.877
303.594
303.328
303.078
302.844
302.625
302.42
302.228
302.05
301.884
301.73
301.587
301.454
301.33
301.216
301.111
301.014
300.924
300.842
300.766
300.696
300.632
300.573
300.519
300.47
300.425
300.384
300.347
300.313
300.282
300.254
300.228
300.205
300.184
300.165
300.148
300.132
300.118
300.105
300.094
300.084
300.075
300.067
300.059
300.053
300.047
300.041
300.037
300.032
300.029
300.025
300.022
300.02
300.017
300.015
300.013
300.012
300.01
300.009
300.008
300.007
300.006
300.005
300.005
300.004
300.004
300.003
300.003
300.002
300.002
300.002
300.001
300.001
300.001
300.001
300.001
300.001
300
300
300
300
300
313.69
312.977
312.283
311.609
310.958
310.33
309.724
309.142
308.585
308.051
307.541
307.054
306.592
306.152
305.735
305.34
304.966
304.614
304.282
303.969
303.675
303.399
303.14
302.898
302.672
302.461
302.264
302.081
301.91
301.752
301.605
301.469
301.343
301.227
301.12
301.021
300.93
300.846
300.769
300.698
300.633
300.574
300.519
300.47
300.424
300.383
300.345
300.311
300.28
300.252
300.226
300.203
300.182
300.163
300.146
300.13
300.116
300.104
300.093
300.083
300.073
300.065
300.058
300.051
300.046
300.04
300.036
300.032
300.028
300.025
300.022
300.019
300.017
300.015
300.013
300.011
300.01
300.009
300.008
300.007
300.006
300.005
300.004
300.004
300.003
300.003
300.003
300.002
300.002
300.002
300.001
300.001
300.001
300.001
300.001
300.001
300
300
300
300
314.98
314.2
313.44
312.704
311.991
311.303
310.641
310.004
309.394
308.809
308.251
307.719
307.213
306.732
306.275
305.843
305.435
305.049
304.685
304.343
304.021
303.719
303.436
303.172
302.924
302.693
302.478
302.277
302.091
301.917
301.757
301.608
301.47
301.343
301.225
301.117
301.017
300.925
300.841
300.764
300.693
300.628
300.568
300.514
300.464
300.419
300.378
300.34
300.306
300.276
300.247
300.222
300.199
300.178
300.16
300.143
300.127
300.114
300.101
300.09
300.08
300.071
300.063
300.056
300.05
300.044
300.039
300.035
300.031
300.027
300.024
300.021
300.018
300.016
300.014
300.012
300.011
300.01
300.008
300.007
300.006
300.006
300.005
300.004
300.004
300.003
300.003
300.002
300.002
300.002
300.002
300.001
300.001
300.001
300.001
300.001
300
300
300
300
316.267
315.419
314.594
313.795
313.021
312.274
311.554
310.863
310.2
309.566
308.96
308.382
307.832
307.31
306.814
306.345
305.901
305.482
305.088
304.716
304.367
304.039
303.732
303.444
303.175
302.924
302.69
302.473
302.27
302.082
301.907
301.746
301.596
301.458
301.33
301.213
301.104
301.005
300.913
300.829
300.752
300.682
300.617
300.558
300.504
300.455
300.41
300.37
300.333
300.299
300.269
300.241
300.216
300.194
300.173
300.155
300.138
300.124
300.11
300.098
300.087
300.078
300.069
300.061
300.054
300.048
300.043
300.038
300.033
300.029
300.026
300.023
300.02
300.018
300.015
300.014
300.012
300.01
300.009
300.008
300.007
300.006
300.005
300.005
300.004
300.003
300.003
300.003
300.002
300.002
300.002
300.001
300.001
300.001
300.001
300.001
300
300
300
300
317.549
316.635
315.745
314.882
314.047
313.242
312.465
311.72
311.005
310.32
309.666
309.043
308.45
307.886
307.352
306.845
306.367
305.915
305.489
305.088
304.711
304.357
304.026
303.716
303.426
303.155
302.902
302.668
302.449
302.246
302.058
301.884
301.722
301.573
301.435
301.308
301.192
301.084
300.985
300.895
300.811
300.735
300.666
300.602
300.544
300.491
300.443
300.399
300.359
300.323
300.29
300.26
300.233
300.209
300.187
300.167
300.149
300.133
300.119
300.106
300.094
300.084
300.074
300.066
300.059
300.052
300.046
300.041
300.036
300.032
300.028
300.025
300.022
300.019
300.017
300.015
300.013
300.011
300.01
300.009
300.008
300.007
300.006
300.005
300.004
300.004
300.003
300.003
300.002
300.002
300.002
300.001
300.001
300.001
300.001
300.001
300.001
300
300
300
318.828
317.846
316.892
315.966
315.071
314.206
313.373
312.573
311.806
311.072
310.37
309.702
309.065
308.461
307.887
307.344
306.83
306.345
305.888
305.458
305.054
304.675
304.319
303.986
303.675
303.385
303.114
302.862
302.627
302.41
302.208
302.021
301.848
301.688
301.54
301.404
301.278
301.163
301.057
300.96
300.87
300.789
300.714
300.646
300.583
300.527
300.475
300.428
300.385
300.346
300.311
300.279
300.25
300.224
300.201
300.179
300.16
300.143
300.127
300.114
300.101
300.09
300.08
300.071
300.063
300.056
300.049
300.043
300.038
300.034
300.03
300.026
300.023
300.02
300.018
300.016
300.014
300.012
300.011
300.009
300.008
300.007
300.006
300.005
300.005
300.004
300.003
300.003
300.003
300.002
300.002
300.002
300.001
300.001
300.001
300.001
300.001
300
300
300
320.101
319.053
318.035
317.046
316.09
315.167
314.278
313.424
312.605
311.821
311.072
310.358
309.678
309.033
308.42
307.841
307.292
306.775
306.287
305.827
305.396
304.991
304.611
304.256
303.924
303.614
303.324
303.055
302.805
302.573
302.357
302.157
301.973
301.802
301.644
301.499
301.365
301.242
301.128
301.025
300.929
300.842
300.762
300.689
300.623
300.562
300.507
300.457
300.411
300.37
300.332
300.298
300.267
300.239
300.214
300.192
300.171
300.153
300.136
300.121
300.108
300.096
300.085
300.076
300.067
300.059
300.053
300.046
300.041
300.036
300.032
300.028
300.025
300.022
300.019
300.017
300.015
300.013
300.011
300.01
300.009
300.008
300.007
300.006
300.005
300.004
300.004
300.003
300.003
300.002
300.002
300.002
300.001
300.001
300.001
300.001
300.001
300
300
300
321.37
320.256
319.173
318.122
317.105
316.124
315.179
314.271
313.4
312.567
311.771
311.012
310.289
309.603
308.952
308.335
307.752
307.202
306.683
306.195
305.736
305.306
304.902
304.524
304.171
303.842
303.534
303.248
302.982
302.735
302.506
302.294
302.097
301.915
301.748
301.593
301.451
301.32
301.2
301.089
300.988
300.895
300.81
300.733
300.662
300.598
300.539
300.486
300.437
300.393
300.353
300.317
300.284
300.254
300.228
300.204
300.182
300.162
300.145
300.129
300.115
300.102
300.091
300.08
300.071
300.063
300.056
300.049
300.044
300.038
300.034
300.03
300.026
300.023
300.02
300.018
300.016
300.014
300.012
300.01
300.009
300.008
300.007
300.006
300.005
300.005
300.004
300.003
300.003
300.003
300.002
300.002
300.002
300.001
300.001
300.001
300.001
300
300
300
322.633
321.453
320.306
319.193
318.117
317.077
316.076
315.115
314.192
313.31
312.467
311.663
310.898
310.171
309.481
308.828
308.211
307.628
307.079
306.562
306.076
305.619
305.192
304.792
304.418
304.069
303.743
303.44
303.158
302.897
302.654
302.429
302.221
302.029
301.851
301.687
301.537
301.398
301.271
301.154
301.046
300.948
300.858
300.776
300.701
300.633
300.571
300.514
300.463
300.416
300.374
300.336
300.301
300.27
300.241
300.216
300.193
300.172
300.153
300.136
300.121
300.108
300.096
300.085
300.075
300.067
300.059
300.052
300.046
300.041
300.036
300.032
300.028
300.024
300.022
300.019
300.017
300.015
300.013
300.011
300.01
300.008
300.007
300.006
300.006
300.005
300.004
300.004
300.003
300.003
300.002
300.002
300.002
300.001
300.001
300.001
300.001
300
300
300
323.891
322.646
321.435
320.26
319.123
318.026
316.97
315.955
314.981
314.049
313.159
312.311
311.503
310.736
310.008
309.319
308.667
308.052
307.472
306.926
306.413
305.932
305.48
305.058
304.663
304.295
303.951
303.631
303.334
303.058
302.801
302.564
302.344
302.141
301.954
301.781
301.622
301.476
301.341
301.218
301.105
301.001
300.906
300.819
300.74
300.668
300.603
300.543
300.489
300.439
300.395
300.354
300.318
300.284
300.255
300.228
300.203
300.181
300.162
300.144
300.128
300.114
300.101
300.09
300.08
300.071
300.062
300.055
300.049
300.043
300.038
300.033
300.029
300.026
300.023
300.02
300.017
300.015
300.013
300.012
300.01
300.009
300.008
300.007
300.006
300.005
300.004
300.004
300.003
300.003
300.002
300.002
300.002
300.001
300.001
300.001
300.001
300
300
300
325.143
323.832
322.558
321.321
320.125
318.971
317.859
316.791
315.766
314.785
313.849
312.956
312.106
311.298
310.532
309.807
309.121
308.474
307.863
307.289
306.749
306.242
305.768
305.323
304.908
304.52
304.158
303.822
303.509
303.218
302.948
302.698
302.467
302.254
302.056
301.875
301.707
301.553
301.411
301.282
301.162
301.053
300.954
300.862
300.779
300.703
300.634
300.571
300.514
300.462
300.415
300.373
300.334
300.299
300.268
300.24
300.214
300.191
300.17
300.152
300.135
300.12
300.107
300.095
300.084
300.074
300.066
300.058
300.051
300.045
300.04
300.035
300.031
300.027
300.024
300.021
300.018
300.016
300.014
300.012
300.011
300.009
300.008
300.007
300.006
300.005
300.005
300.004
300.003
300.003
300.003
300.002
300.002
300.001
300.001
300.001
300.001
300.001
300
300
326.388
325.013
323.675
322.378
321.122
319.911
318.744
317.622
316.547
315.518
314.535
313.598
312.706
311.858
311.054
310.293
309.573
308.894
308.253
307.65
307.084
306.552
306.053
305.587
305.151
304.744
304.364
304.011
303.682
303.377
303.094
302.832
302.59
302.365
302.158
301.967
301.792
301.63
301.481
301.345
301.22
301.106
301.001
300.905
300.818
300.738
300.666
300.6
300.54
300.485
300.436
300.391
300.351
300.314
300.281
300.251
300.225
300.2
300.179
300.159
300.142
300.126
300.112
300.099
300.088
300.078
300.069
300.061
300.054
300.048
300.042
300.037
300.032
300.029
300.025
300.022
300.019
300.017
300.015
300.013
300.011
300.01
300.009
300.007
300.006
300.006
300.005
300.004
300.004
300.003
300.003
300.002
300.002
300.002
300.001
300.001
300.001
300.001
300
300
327.627
326.187
324.787
323.429
322.114
320.846
319.624
318.45
317.324
316.247
315.217
314.236
313.302
312.415
311.573
310.776
310.023
309.311
308.641
308.009
307.416
306.859
306.338
305.849
305.393
304.967
304.569
304.199
303.855
303.536
303.24
302.965
302.711
302.476
302.26
302.06
301.876
301.707
301.551
301.408
301.277
301.157
301.048
300.948
300.856
300.773
300.697
300.628
300.565
300.508
300.456
300.41
300.367
300.329
300.294
300.263
300.235
300.21
300.187
300.167
300.148
300.132
300.117
300.104
300.092
300.082
300.072
300.064
300.056
300.05
300.044
300.039
300.034
300.03
300.026
300.023
300.02
300.018
300.015
300.014
300.012
300.01
300.009
300.008
300.007
300.006
300.005
300.004
300.004
300.003
300.003
300.002
300.002
300.002
300.001
300.001
300.001
300.001
300
300
328.86
327.356
325.893
324.474
323.101
321.775
320.499
319.273
318.097
316.971
315.896
314.871
313.896
312.969
312.089
311.257
310.47
309.726
309.026
308.367
307.747
307.165
306.62
306.11
305.633
305.188
304.773
304.387
304.027
303.694
303.384
303.097
302.832
302.587
302.36
302.152
301.959
301.783
301.62
301.471
301.334
301.209
301.095
300.99
300.894
300.807
300.728
300.656
300.59
300.531
300.477
300.428
300.384
300.344
300.308
300.275
300.246
300.219
300.195
300.174
300.155
300.138
300.122
300.109
300.096
300.085
300.075
300.067
300.059
300.052
300.046
300.04
300.036
300.031
300.027
300.024
300.021
300.018
300.016
300.014
300.012
300.011
300.009
300.008
300.007
300.006
300.005
300.005
300.004
300.003
300.003
300.002
300.002
300.002
300.001
300.001
300.001
300.001
300
300
330.085
328.517
326.992
325.513
324.081
322.7
321.369
320.091
318.865
317.692
316.571
315.502
314.485
313.519
312.603
311.735
310.914
310.139
309.409
308.722
308.076
307.47
306.901
306.369
305.872
305.408
304.976
304.573
304.198
303.85
303.528
303.229
302.952
302.697
302.461
302.243
302.043
301.858
301.689
301.533
301.391
301.26
301.141
301.032
300.932
300.842
300.759
300.684
300.615
300.553
300.497
300.446
300.4
300.358
300.321
300.287
300.256
300.228
300.204
300.181
300.161
300.144
300.127
300.113
300.1
300.089
300.079
300.069
300.061
300.054
300.048
300.042
300.037
300.033
300.029
300.025
300.022
300.019
300.017
300.015
300.013
300.011
300.01
300.009
300.007
300.006
300.006
300.005
300.004
300.004
300.003
300.003
300.002
300.002
300.001
300.001
300.001
300.001
300
300
331.303
329.671
328.084
326.545
325.056
323.619
322.234
320.904
319.629
318.408
317.242
316.13
315.072
314.066
313.113
312.21
311.356
310.55
309.79
309.075
308.403
307.772
307.181
306.627
306.11
305.627
305.177
304.758
304.368
304.006
303.671
303.36
303.072
302.806
302.56
302.334
302.125
301.934
301.757
301.596
301.447
301.311
301.187
301.074
300.97
300.876
300.79
300.711
300.64
300.576
300.517
300.464
300.416
300.373
300.334
300.298
300.266
300.238
300.212
300.189
300.168
300.149
300.133
300.118
300.104
300.092
300.082
300.072
300.064
300.056
300.05
300.044
300.039
300.034
300.03
300.026
300.023
300.02
300.018
300.015
300.013
300.012
300.01
300.009
300.008
300.007
300.006
300.005
300.004
300.004
300.003
300.003
300.002
300.002
300.002
300.001
300.001
300.001
300
300
332.513
330.818
329.17
327.571
326.025
324.532
323.094
321.712
320.387
319.12
317.908
316.754
315.654
314.61
313.62
312.682
311.795
310.958
310.168
309.426
308.728
308.072
307.458
306.883
306.346
305.845
305.377
304.942
304.537
304.161
303.813
303.489
303.191
302.914
302.659
302.424
302.208
302.008
301.825
301.657
301.503
301.362
301.233
301.115
301.008
300.91
300.82
300.739
300.665
300.598
300.537
300.482
300.432
300.387
300.346
300.31
300.277
300.247
300.22
300.196
300.174
300.155
300.138
300.122
300.108
300.096
300.085
300.075
300.066
300.059
300.052
300.045
300.04
300.035
300.031
300.027
300.024
300.021
300.018
300.016
300.014
300.012
300.011
300.009
300.008
300.007
300.006
300.005
300.004
300.004
300.003
300.003
300.002
300.002
300.002
300.001
300.001
300.001
300
300
333.715
331.957
330.249
328.591
326.987
325.439
323.948
322.515
321.141
319.826
318.57
317.373
316.233
315.15
314.123
313.151
312.231
311.363
310.544
309.774
309.05
308.371
307.734
307.138
306.581
306.061
305.576
305.125
304.705
304.315
303.953
303.618
303.308
303.022
302.758
302.514
302.289
302.083
301.893
301.718
301.559
301.412
301.279
301.156
301.045
300.943
300.85
300.766
300.69
300.62
300.557
300.5
300.448
300.401
300.359
300.321
300.287
300.256
300.228
300.203
300.181
300.161
300.143
300.127
300.112
300.1
300.088
300.078
300.069
300.061
300.054
300.047
300.041
300.036
300.032
300.028
300.025
300.022
300.019
300.017
300.014
300.013
300.011
300.01
300.008
300.007
300.006
300.005
300.005
300.004
300.003
300.003
300.002
300.002
300.002
300.001
300.001
300.001
300
300
334.908
333.089
331.319
329.603
327.942
326.339
324.796
323.312
321.89
320.528
319.228
317.988
316.808
315.687
314.623
313.616
312.664
311.765
310.918
310.12
309.371
308.667
308.008
307.391
306.814
306.275
305.773
305.306
304.871
304.468
304.093
303.747
303.426
303.129
302.855
302.603
302.37
302.156
301.96
301.779
301.614
301.463
301.324
301.197
301.082
300.977
300.881
300.793
300.714
300.642
300.577
300.518
300.464
300.416
300.372
300.333
300.297
300.265
300.236
300.21
300.187
300.167
300.148
300.131
300.116
300.103
300.091
300.081
300.071
300.063
300.055
300.049
300.043
300.038
300.033
300.029
300.026
300.022
300.02
300.017
300.015
300.013
300.011
300.01
300.009
300.007
300.006
300.006
300.005
300.004
300.003
300.003
300.002
300.002
300.002
300.001
300.001
300.001
300
300
336.093
334.212
332.383
330.608
328.891
327.234
325.637
324.104
322.633
321.225
319.881
318.599
317.379
316.219
315.12
314.078
313.094
312.164
311.288
310.464
309.689
308.961
308.28
307.642
307.045
306.488
305.969
305.486
305.037
304.62
304.232
303.874
303.542
303.235
302.952
302.691
302.451
302.229
302.026
301.84
301.669
301.512
301.369
301.238
301.119
301.01
300.91
300.82
300.738
300.664
300.596
300.535
300.48
300.43
300.385
300.344
300.307
300.274
300.244
300.218
300.194
300.172
300.153
300.136
300.12
300.107
300.094
300.083
300.074
300.065
300.057
300.05
300.044
300.039
300.034
300.03
300.026
300.023
300.02
300.018
300.015
300.013
300.012
300.01
300.009
300.008
300.007
300.006
300.005
300.004
300.004
300.003
300.003
300.002
300.002
300.001
300.001
300.001
300
300
337.27
335.327
333.438
331.605
329.832
328.121
326.473
324.889
323.37
321.917
320.529
319.205
317.945
316.748
315.612
314.537
313.521
312.561
311.656
310.805
310.004
309.253
308.549
307.891
307.275
306.7
306.164
305.665
305.201
304.77
304.37
304
303.657
303.341
303.048
302.779
302.53
302.302
302.092
301.9
301.723
301.561
301.414
301.278
301.155
301.043
300.94
300.847
300.762
300.685
300.616
300.553
300.495
300.444
300.397
300.355
300.317
300.283
300.252
300.225
300.2
300.178
300.158
300.14
300.124
300.11
300.097
300.086
300.076
300.067
300.059
300.052
300.046
300.04
300.035
300.031
300.027
300.024
300.021
300.018
300.016
300.014
300.012
300.011
300.009
300.008
300.007
300.006
300.005
300.004
300.004
300.003
300.003
300.002
300.002
300.001
300.001
300.001
300
300
338.436
336.433
334.485
332.595
330.767
329.002
327.302
325.668
324.102
322.603
321.171
319.806
318.507
317.272
316.101
314.992
313.944
312.954
312.021
311.143
310.318
309.543
308.817
308.138
307.503
306.91
306.357
305.842
305.364
304.919
304.507
304.125
303.772
303.445
303.144
302.866
302.61
302.374
302.158
301.959
301.777
301.61
301.458
301.318
301.191
301.075
300.97
300.874
300.786
300.707
300.635
300.57
300.511
300.458
300.41
300.366
300.327
300.292
300.26
300.232
300.206
300.183
300.163
300.145
300.128
300.113
300.1
300.089
300.078
300.069
300.061
300.054
300.047
300.042
300.037
300.032
300.028
300.025
300.022
300.019
300.016
300.014
300.012
300.011
300.009
300.008
300.007
300.006
300.005
300.005
300.004
300.003
300.003
300.002
300.002
300.001
300.001
300.001
300
300
339.594
337.53
335.523
333.577
331.693
329.875
328.124
326.441
324.828
323.284
321.809
320.403
319.064
317.792
316.586
315.444
314.364
313.344
312.383
311.479
310.628
309.831
309.083
308.383
307.728
307.118
306.548
306.018
305.525
305.068
304.643
304.249
303.885
303.549
303.238
302.952
302.688
302.446
302.223
302.018
301.831
301.659
301.502
301.358
301.227
301.108
300.999
300.9
300.81
300.728
300.654
300.587
300.526
300.471
300.422
300.377
300.337
300.301
300.268
300.239
300.212
300.189
300.168
300.149
300.132
300.117
300.103
300.091
300.081
300.071
300.063
300.055
300.049
300.043
300.038
300.033
300.029
300.025
300.022
300.019
300.017
300.015
300.013
300.011
300.01
300.008
300.007
300.006
300.005
300.005
300.004
300.003
300.003
300.002
300.002
300.002
300.001
300.001
300
300
340.742
338.618
336.553
334.55
332.612
330.741
328.939
327.208
325.548
323.959
322.441
320.994
319.617
318.308
317.067
315.892
314.78
313.731
312.742
311.811
310.937
310.116
309.346
308.626
307.953
307.324
306.738
306.193
305.686
305.214
304.777
304.373
303.998
303.652
303.332
303.038
302.766
302.517
302.287
302.077
301.884
301.707
301.545
301.397
301.263
301.14
301.028
300.926
300.833
300.749
300.673
300.604
300.542
300.485
300.434
300.388
300.347
300.309
300.276
300.246
300.219
300.194
300.173
300.153
300.136
300.12
300.106
300.094
300.083
300.073
300.065
300.057
300.05
300.044
300.039
300.034
300.03
300.026
300.023
300.02
300.017
300.015
300.013
300.012
300.01
300.009
300.008
300.006
300.006
300.005
300.004
300.003
300.003
300.002
300.002
300.002
300.001
300.001
300
300
341.879
339.697
337.574
335.515
333.522
331.599
329.747
327.968
326.261
324.628
323.068
321.58
320.164
318.819
317.543
316.335
315.193
314.115
313.098
312.141
311.242
310.398
309.607
308.867
308.175
307.529
306.926
306.366
305.844
305.36
304.911
304.495
304.11
303.754
303.425
303.122
302.843
302.587
302.351
302.135
301.936
301.755
301.588
301.437
301.298
301.172
301.056
300.952
300.857
300.77
300.692
300.621
300.557
300.499
300.446
300.399
300.356
300.318
300.284
300.253
300.225
300.2
300.177
300.157
300.14
300.124
300.109
300.097
300.085
300.075
300.066
300.059
300.052
300.045
300.04
300.035
300.031
300.027
300.023
300.021
300.018
300.016
300.014
300.012
300.01
300.009
300.008
300.007
300.006
300.005
300.004
300.004
300.003
300.002
300.002
300.002
300.001
300.001
300.001
300
343.007
340.765
338.585
336.471
334.425
332.45
330.548
328.721
326.968
325.291
323.689
322.161
320.707
319.326
318.016
316.775
315.602
314.494
313.451
312.468
311.545
310.678
309.866
309.105
308.395
307.731
307.113
306.537
306.002
305.504
305.043
304.616
304.22
303.855
303.518
303.207
302.92
302.657
302.414
302.192
301.988
301.802
301.631
301.475
301.333
301.203
301.085
300.977
300.88
300.791
300.711
300.638
300.572
300.512
300.458
300.41
300.366
300.327
300.291
300.259
300.231
300.205
300.182
300.162
300.143
300.127
300.112
300.099
300.088
300.077
300.068
300.06
300.053
300.047
300.041
300.036
300.031
300.028
300.024
300.021
300.018
300.016
300.014
300.012
300.011
300.009
300.008
300.007
300.006
300.005
300.004
300.004
300.003
300.003
300.002
300.002
300.001
300.001
300.001
300
344.123
341.824
339.587
337.418
335.319
333.293
331.341
329.466
327.668
325.947
324.304
322.737
321.245
319.828
318.484
317.211
316.007
314.871
313.8
312.792
311.844
310.955
310.122
309.342
308.613
307.932
307.298
306.707
306.157
305.647
305.174
304.736
304.33
303.955
303.609
303.29
302.996
302.725
302.477
302.249
302.04
301.849
301.673
301.513
301.367
301.234
301.113
301.003
300.903
300.811
300.729
300.654
300.587
300.525
300.47
300.42
300.375
300.335
300.299
300.266
300.237
300.21
300.187
300.166
300.147
300.13
300.115
300.102
300.09
300.079
300.07
300.062
300.054
300.048
300.042
300.037
300.032
300.028
300.025
300.022
300.019
300.016
300.014
300.012
300.011
300.009
300.008
300.007
300.006
300.005
300.004
300.004
300.003
300.003
300.002
300.002
300.001
300.001
300.001
300
345.229
342.872
340.579
338.356
336.204
334.127
332.127
330.205
328.362
326.598
324.913
323.306
321.777
320.325
318.947
317.642
316.408
315.244
314.146
313.112
312.141
311.23
310.375
309.576
308.828
308.131
307.48
306.875
306.312
305.789
305.304
304.854
304.438
304.054
303.699
303.372
303.071
302.794
302.539
302.305
302.091
301.895
301.715
301.551
301.402
301.265
301.141
301.028
300.925
300.832
300.747
300.671
300.601
300.539
300.482
300.431
300.385
300.343
300.306
300.273
300.243
300.216
300.192
300.17
300.151
300.134
300.118
300.104
300.092
300.081
300.072
300.063
300.056
300.049
300.043
300.038
300.033
300.029
300.025
300.022
300.019
300.017
300.015
300.013
300.011
300.01
300.008
300.007
300.006
300.005
300.005
300.004
300.003
300.003
300.002
300.002
300.001
300.001
300.001
300
346.324
343.91
341.562
339.284
337.08
334.953
332.904
330.936
329.048
327.242
325.516
323.87
322.304
320.817
319.405
318.069
316.805
315.612
314.488
313.43
312.435
311.501
310.627
309.808
309.042
308.328
307.661
307.041
306.465
305.929
305.432
304.972
304.546
304.152
303.789
303.454
303.145
302.861
302.601
302.361
302.142
301.941
301.757
301.589
301.436
301.296
301.169
301.053
300.948
300.852
300.765
300.687
300.616
300.552
300.494
300.441
300.394
300.352
300.314
300.279