/*--------------------------------*- C++ -*----------------------------------*\
| =========                 |                                                 |
| \\      /  F ield         | OpenFOAM: The Open Source CFD Toolbox           |
|  \\    /   O peration     | Version:  2406                                  |
|   \\  /    A nd           | Website:  www.openfoam.com                      |
|    \\/     M anipulation  |                                                 |
\*---------------------------------------------------------------------------*/
FoamFile
{
    version     2.0;
    format      ascii;
    arch        "LSB;label=32;scalar=64";
    class       volScalarField;
    location    "85";
    object      gradTy;
}
// * * * * * * * * * * * * * * * * * * * * * * * * * * * * * * * * * * * * * //

dimensions      [0 -1 0 1 0 0 0];

internalField   nonuniform List<scalar> 
20000
(
318.804
311.415
303.812
296.031
288.112
280.088
271.988
263.847
255.688
247.534
239.41
231.337
223.334
215.417
207.601
199.899
192.325
184.888
177.599
170.466
163.496
156.694
150.065
143.613
137.342
131.253
125.348
119.628
114.093
108.742
103.576
98.5913
93.7875
89.162
84.7123
80.4353
76.3281
72.3872
68.609
64.9897
61.5255
58.2122
55.0457
52.0219
49.1363
46.3847
43.7628
41.2662
38.8905
36.6315
34.4849
32.4464
30.5118
28.6771
26.9382
25.2911
23.7319
22.2569
20.8623
19.5445
18.3
17.1253
16.0173
14.9726
13.9881
13.0609
12.1881
11.3667
10.5942
9.86797
9.18545
8.54425
7.94206
7.37666
6.84592
6.34779
5.88032
5.44161
5.02987
4.64337
4.28046
3.93954
3.61909
3.31767
3.03385
2.7663
2.51373
2.27489
2.04859
1.83365
1.62898
1.43348
1.2461
1.06583
0.891654
0.722608
0.557732
0.396085
0.236734
0.0787587
318.726
311.338
303.736
295.958
288.041
280.019
271.922
263.782
255.624
247.472
239.351
231.281
223.279
215.364
207.549
199.85
192.277
184.843
177.556
170.424
163.455
156.655
150.028
143.578
137.308
131.22
125.317
119.598
114.065
108.715
103.55
98.567
93.7644
89.14
84.6913
80.4155
76.3093
72.3693
68.5921
64.9737
61.5103
58.1978
55.0321
52.009
49.1242
46.3733
43.752
41.256
38.8809
36.6225
34.4764
32.4384
30.5043
28.67
26.9315
25.2848
23.7261
22.2514
20.8571
19.5396
18.2954
17.1211
16.0133
14.9689
13.9847
13.0577
12.1851
11.3639
10.5916
9.86554
9.18318
8.54214
7.9401
7.37484
6.84423
6.34623
5.87887
5.44027
5.02863
4.64223
4.2794
3.93857
3.6182
3.31685
3.0331
2.76562
2.51311
2.27433
2.04808
1.8332
1.62858
1.43313
1.2458
1.06556
0.891434
0.72243
0.557595
0.395987
0.236676
0.0787393
318.569
311.185
303.586
295.812
287.898
279.88
271.788
263.652
255.497
247.35
239.233
231.167
223.169
215.258
207.447
199.751
192.182
184.752
177.468
170.34
163.375
156.578
149.954
143.507
137.24
131.156
125.255
119.539
114.008
108.662
103.499
98.5184
93.7181
89.096
84.6495
80.3758
76.2716
72.3336
68.5582
64.9416
61.4799
58.1691
55.005
51.9834
49.0999
46.3504
43.7304
41.2356
38.8617
36.6044
34.4594
32.4224
30.4892
28.6559
26.9183
25.2724
23.7144
22.2404
20.8468
19.53
18.2864
17.1127
16.0054
14.9615
13.9778
13.0513
12.179
11.3583
10.5864
9.86067
9.17865
8.53792
7.93618
7.3712
6.84085
6.34309
5.87596
5.43758
5.02615
4.63994
4.27729
3.93662
3.61642
3.31521
3.03161
2.76426
2.51187
2.27321
2.04707
1.8323
1.62777
1.43242
1.24518
1.06504
0.890994
0.722074
0.55732
0.395792
0.236559
0.0787006
318.332
310.955
303.362
295.593
287.686
279.673
271.587
263.456
255.308
247.167
239.056
230.996
223.004
215.098
207.293
199.603
192.04
184.615
177.337
170.214
163.254
156.462
149.843
143.401
137.138
131.058
125.162
119.451
113.924
108.581
103.422
98.4454
93.6487
89.03
84.5869
80.3163
76.2151
72.28
68.5074
64.8935
61.4344
58.126
54.9643
51.9449
49.0636
46.3161
43.698
41.2051
38.833
36.5773
34.4338
32.3984
30.4667
28.6347
26.8983
25.2537
23.6968
22.2239
20.8314
19.5155
18.2729
17.1
15.9936
14.9504
13.9674
13.0416
12.17
11.3499
10.5786
9.85337
9.17185
8.5316
7.9303
7.36574
6.83579
6.3384
5.87161
5.43356
5.02243
4.6365
4.27412
3.93371
3.61374
3.31276
3.02936
2.76221
2.51001
2.27153
2.04556
1.83094
1.62657
1.43136
1.24426
1.06425
0.890335
0.72154
0.556908
0.395499
0.236384
0.0786424
318.017
310.648
303.062
295.301
287.401
279.397
271.318
263.196
255.056
246.923
238.82
230.767
222.784
214.885
207.088
199.406
191.85
184.432
177.162
170.046
163.093
156.307
149.695
143.259
137.003
130.929
125.039
119.333
113.811
108.474
103.32
98.3481
93.5562
88.9421
84.5033
80.2369
76.1398
72.2086
68.4398
64.8294
61.3737
58.0686
54.91
51.8935
49.0151
46.2703
43.6549
41.1644
38.7946
36.5412
34.3998
32.3664
30.4366
28.6064
26.8718
25.2287
23.6734
22.202
20.8108
19.4963
18.2548
17.0831
15.9778
14.9357
13.9536
13.0287
12.158
11.3387
10.5681
9.84364
9.16279
8.52317
7.92247
7.35847
6.82904
6.33214
5.86582
5.42819
5.01747
4.63192
4.2699
3.92983
3.61017
3.30949
3.02637
2.75948
2.50754
2.26928
2.04354
1.82913
1.62496
1.42995
1.24303
1.0632
0.889456
0.720827
0.556358
0.395109
0.236151
0.0785647
317.624
310.264
302.688
294.936
287.046
279.051
270.983
262.871
254.741
246.618
238.525
230.482
222.508
214.62
206.832
199.159
191.613
184.205
176.943
169.836
162.891
156.114
149.51
143.082
136.834
130.767
124.884
119.185
113.671
108.34
103.192
98.2266
93.4406
88.8322
84.3989
80.1378
76.0457
72.1194
68.3552
64.7493
61.2979
57.9969
54.8421
51.8294
48.9545
46.2131
43.6009
41.1135
38.7467
36.496
34.3573
32.3264
30.399
28.571
26.8386
25.1975
23.6441
22.1746
20.7851
19.4722
18.2323
17.062
15.958
14.9172
13.9364
13.0126
12.143
11.3247
10.555
9.83148
9.15147
8.51265
7.91268
7.34938
6.8206
6.32432
5.85857
5.42149
5.01127
4.6262
4.26463
3.92497
3.60571
3.3054
3.02263
2.75608
2.50444
2.26648
2.04101
1.82688
1.62296
1.42818
1.2415
1.06189
0.888358
0.719937
0.555671
0.394621
0.235859
0.0784678
317.153
309.803
302.238
294.499
286.62
278.637
270.581
262.481
254.363
246.252
238.171
230.14
222.178
214.301
206.526
198.864
191.329
183.931
176.68
169.584
162.65
155.883
149.288
142.87
136.631
130.573
124.699
119.008
113.502
108.179
103.039
98.0809
93.3019
88.7004
84.2737
80.0189
75.9329
72.0124
68.2538
64.6532
61.2069
57.9108
54.7607
51.7525
48.8819
46.1446
43.5362
41.0525
38.6892
36.4419
34.3063
32.2784
30.3539
28.5287
26.7987
25.1602
23.6091
22.1417
20.7543
19.4433
18.2052
17.0367
15.9344
14.8951
13.9157
12.9933
12.125
11.3079
10.5394
9.81689
9.1379
8.50002
7.90095
7.33848
6.81048
6.31494
5.84988
5.41345
5.00384
4.61934
4.2583
3.91915
3.60036
3.3005
3.01815
2.75199
2.50072
2.26312
2.03798
1.82417
1.62055
1.42606
1.23966
1.06031
0.887041
0.71887
0.554847
0.394036
0.23551
0.0783514
316.604
309.266
301.715
293.988
286.124
278.155
270.112
262.026
253.922
245.826
237.758
229.741
221.793
213.93
206.168
198.519
190.998
183.613
176.374
169.29
162.368
155.612
149.029
142.622
136.394
130.347
124.483
118.802
113.305
107.992
102.861
97.9109
93.1403
88.5467
84.1276
79.8802
75.8013
71.8876
68.1355
64.5412
61.1009
57.8105
54.6658
51.6628
48.7972
46.0646
43.4608
40.9814
38.6221
36.3787
34.2469
32.2225
30.3013
28.4792
26.7523
25.1166
23.5681
22.1033
20.7183
19.4096
18.1737
17.0072
15.9068
14.8693
13.8916
12.9708
12.104
11.2883
10.5211
9.79988
9.12207
8.48529
7.88726
7.32576
6.79869
6.304
5.83975
5.40407
4.99517
4.61134
4.25093
3.91236
3.59413
3.29478
3.01292
2.74722
2.49639
2.2592
2.03446
1.82101
1.61774
1.42359
1.23751
1.05848
0.885505
0.717625
0.553886
0.393353
0.235102
0.0782157
315.976
308.653
301.117
293.406
285.556
277.603
269.577
261.507
253.419
245.338
237.287
229.286
221.353
213.506
205.759
198.126
190.619
183.249
176.025
168.955
162.046
155.304
148.734
142.339
136.123
130.089
124.236
118.567
113.081
107.778
102.657
97.7168
92.9556
88.3711
83.9608
79.7218
75.6511
71.7451
68.0004
64.4133
60.9797
57.6958
54.5575
51.5604
48.7005
45.9733
43.3746
40.9002
38.5456
36.3066
34.179
32.1586
30.2412
28.4228
26.6993
25.0668
23.5214
22.0595
20.6772
19.3711
18.1377
16.9734
15.8752
14.8398
13.8641
12.9451
12.08
11.2659
10.5003
9.78046
9.10399
8.46847
7.87163
7.31124
6.78521
6.2915
5.82817
5.39336
4.98527
4.6022
4.2425
3.90461
3.587
3.28825
3.00695
2.74178
2.49145
2.25472
2.03042
1.8174
1.61454
1.42077
1.23506
1.05638
0.88375
0.716203
0.552789
0.392574
0.234636
0.0780607
315.271
307.964
300.444
292.75
284.919
276.983
268.975
260.923
252.853
244.79
236.757
228.774
220.859
213.029
205.3
197.683
190.193
182.839
175.632
168.577
161.684
154.957
148.402
142.021
135.819
129.798
123.959
118.302
112.828
107.537
102.428
97.4986
92.748
88.1738
83.7733
79.5438
75.4821
71.5849
67.8486
64.2694
60.8436
57.567
54.4356
51.4453
48.5917
45.8706
43.2778
40.8088
38.4595
36.2255
34.1027
32.0868
30.1737
28.3593
26.6396
25.0108
23.4689
22.0102
20.6311
19.3279
18.0971
16.9355
15.8398
14.8067
13.8331
12.9162
12.053
11.2408
10.4768
9.75862
9.08366
8.44956
7.85405
7.29492
6.77006
6.27745
5.81516
5.38132
4.97414
4.59192
4.23303
3.89589
3.579
3.28091
3.00024
2.73566
2.48588
2.24969
2.02589
1.81334
1.61093
1.4176
1.2323
1.05402
0.881777
0.714604
0.551555
0.391698
0.234112
0.0778865
314.487
307.199
299.698
292.023
284.211
276.295
268.306
260.274
252.225
244.182
236.169
228.205
220.31
212.5
204.789
197.192
189.721
182.385
175.195
168.159
161.282
154.572
148.033
141.669
135.482
129.475
123.65
118.008
112.548
107.27
102.173
97.2563
92.5176
87.9547
83.5652
79.3462
75.2945
71.407
67.68
64.1097
60.6924
57.424
54.3004
51.3174
48.471
45.7566
43.1702
40.7074
38.3639
36.1355
34.0179
32.007
30.0987
28.2888
26.5734
24.9486
23.4106
21.9555
20.5798
19.2798
18.0522
16.8935
15.8004
14.7699
13.7987
12.8841
12.023
11.2128
10.4508
9.73438
9.06109
8.42857
7.83454
7.27679
6.75324
6.26186
5.80071
5.36795
4.96178
4.58052
4.22252
3.88621
3.57011
3.27276
2.99278
2.72886
2.47971
2.2441
2.02086
1.80884
1.60693
1.41408
1.22924
1.0514
0.879587
0.712829
0.550185
0.390725
0.233531
0.077693
313.626
306.358
298.877
291.223
283.433
275.539
267.572
259.562
251.534
243.514
235.522
227.581
219.707
211.918
204.229
196.652
189.201
181.886
174.715
167.698
160.841
154.149
147.628
141.281
135.111
129.121
123.312
117.685
112.24
106.976
101.893
96.99
92.2643
87.7139
83.3364
79.1289
75.0884
71.2115
67.4947
63.9342
60.5262
57.2667
54.1517
51.1769
48.3383
45.6314
43.052
40.596
38.2589
36.0366
33.9248
31.9194
30.0163
28.2114
26.5007
24.8803
23.3465
21.8954
20.5235
19.2271
18.0028
16.8472
15.7572
14.7294
13.761
12.8488
11.9901
11.1821
10.4222
9.70773
9.03629
8.4055
7.81309
7.25687
6.73475
6.24472
5.78483
5.35325
4.9482
4.56798
4.21096
3.87557
3.56033
3.2638
2.98459
2.72139
2.47292
2.23796
2.01533
1.80389
1.60253
1.41021
1.22587
1.04853
0.87718
0.710878
0.548679
0.389656
0.232892
0.0774804
312.688
305.441
297.983
290.352
282.585
274.714
266.771
258.785
250.782
242.785
234.818
226.9
219.05
211.284
203.618
196.064
188.635
181.342
174.193
167.196
160.359
153.688
147.186
140.858
134.707
128.735
122.943
117.333
111.904
106.656
101.589
96.6998
91.9882
87.4514
83.087
78.8922
74.8637
70.9984
67.2927
63.7429
60.3451
57.0954
53.9897
51.0238
48.1936
45.4948
42.9232
40.4745
38.1444
35.9288
33.8233
31.8239
29.9265
28.127
26.4214
24.8059
23.2766
21.8299
20.462
19.1695
17.9489
16.7968
15.71
14.6854
13.7198
12.8104
11.9543
11.1487
10.391
9.67869
9.00925
8.38035
7.78972
7.23517
6.71461
6.22604
5.76753
5.33724
4.9334
4.55431
4.19836
3.86398
3.54968
3.25404
2.97567
2.71325
2.46552
2.23127
2.0093
1.79849
1.59774
1.40599
1.22221
1.04539
0.874556
0.708752
0.547038
0.38849
0.232195
0.0772487
311.672
304.449
297.015
289.409
281.667
273.822
265.905
257.945
249.967
241.996
234.055
226.163
218.338
210.598
202.956
195.427
188.023
180.753
173.627
166.653
159.839
153.189
146.708
140.4
134.269
128.317
122.544
116.952
111.54
106.31
101.259
96.3858
91.6894
87.1674
82.8172
78.6359
74.6206
70.7678
67.0742
63.5359
60.1491
56.9099
53.8143
50.8581
48.0371
45.3471
42.7838
40.3431
38.0205
35.8121
33.7135
31.7206
29.8293
28.0356
26.3356
24.7253
23.2011
21.759
20.3956
19.1073
17.8906
16.7423
15.659
14.6377
13.6752
12.7688
11.9154
11.1125
10.3573
9.64726
8.98
8.35314
7.76442
7.21167
6.6928
6.20582
5.7488
5.31991
4.91738
4.53953
4.18473
3.85144
3.53816
3.24347
2.966
2.70444
2.45752
2.22402
2.00278
1.79265
1.59255
1.40143
1.21824
1.042
0.871717
0.706451
0.545262
0.387229
0.231441
0.0769979
310.58
303.382
295.974
288.395
280.68
272.862
264.973
257.04
249.091
241.148
233.235
225.37
217.573
209.86
202.245
194.742
187.364
180.119
173.018
166.069
159.278
152.652
146.194
139.908
133.799
127.867
122.114
116.542
111.149
105.937
100.904
96.0479
91.368
86.8619
82.5269
78.3603
74.359
70.5198
66.839
63.3132
59.9383
56.7105
53.6257
50.6798
47.8687
45.1881
42.6339
40.2016
37.8873
35.6866
33.5953
31.6094
29.7247
27.9374
26.2433
24.6387
23.1197
21.6827
20.3241
19.0403
17.8279
16.6836
15.6041
14.5864
13.6273
12.724
11.8737
11.0735
10.321
9.61344
8.94853
8.32386
7.73721
7.1864
6.66935
6.18407
5.72865
5.30126
4.90015
4.52362
4.17006
3.83794
3.52576
3.2321
2.95561
2.69496
2.44891
2.21623
1.99576
1.78637
1.58697
1.39652
1.21397
1.03834
0.868662
0.703976
0.543352
0.385872
0.23063
0.0767281
309.411
302.24
294.86
287.309
279.623
271.835
263.975
256.073
248.153
240.241
232.357
224.522
216.754
209.07
201.484
194.009
186.658
179.441
172.367
165.444
158.679
152.077
145.643
139.382
133.295
127.385
121.655
116.103
110.731
105.538
100.524
95.6864
91.0241
86.5349
82.2162
78.0653
74.0791
70.2543
66.5875
63.0748
59.7127
56.497
53.4238
50.4891
47.6885
45.018
42.4734
40.0503
37.7447
35.5522
33.4688
31.4904
29.6129
27.8322
26.1445
24.5459
23.0327
21.6011
20.2476
18.9686
17.7608
16.6208
15.5454
14.5315
13.576
12.6761
11.829
11.0319
10.2821
9.57726
8.91485
8.29254
7.70809
7.15935
6.64425
6.1608
5.70709
5.28131
4.88171
4.50659
4.15437
3.82349
3.51249
3.21994
2.94449
2.68482
2.43969
2.20789
1.98825
1.77965
1.581
1.39126
1.2094
1.03444
0.865394
0.701327
0.541307
0.38442
0.229762
0.0764394
308.165
301.023
293.673
286.153
278.498
270.741
262.913
255.042
247.155
239.274
231.421
223.618
215.882
208.228
200.673
193.228
185.907
178.719
171.673
164.778
158.04
151.465
145.057
138.821
132.759
126.873
121.165
115.636
110.285
105.113
100.119
95.3012
90.6577
86.1866
81.8853
77.7511
73.781
69.9716
66.3194
62.821
59.4723
56.2696
53.2088
50.2859
47.4966
44.8368
42.3024
39.8891
37.5927
35.4091
33.3341
31.3637
29.4937
27.7202
26.0393
24.4471
22.94
21.5142
20.1661
18.8923
17.6893
16.5539
15.4828
14.473
13.5214
12.6251
11.7814
10.9875
10.2407
9.53872
8.87897
8.25916
7.67707
7.13054
6.61751
6.136
5.68413
5.26006
4.86206
4.48846
4.13765
3.80811
3.49836
3.20698
2.93264
2.67402
2.42987
2.199
1.98025
1.77249
1.57464
1.38566
1.20454
1.03027
0.861911
0.698505
0.539129
0.382873
0.228838
0.0761318
306.844
299.733
292.414
284.926
277.303
269.58
261.786
253.949
246.095
238.248
230.429
222.659
214.956
207.335
199.812
192.4
185.11
177.953
170.937
164.072
157.362
150.815
144.435
138.225
132.189
126.329
120.645
115.14
109.812
104.663
99.6899
94.8926
90.269
85.817
81.5342
77.4177
73.4646
69.6715
66.035
62.5516
59.2173
56.0283
52.9806
50.0702
47.2929
44.6446
42.121
39.7181
37.4315
35.2573
33.1912
31.2292
29.3672
27.6013
25.9276
24.3423
22.8416
21.4219
20.0796
18.8113
17.6135
16.4829
15.4164
14.4109
13.4634
12.571
11.7309
10.9403
10.1968
9.49782
8.8409
8.22375
7.64415
7.09997
6.58914
6.1097
5.65976
5.23751
4.84121
4.46921
4.11991
3.79178
3.48336
3.19323
2.92007
2.66255
2.41946
2.18958
1.97176
1.76489
1.56789
1.37972
1.19937
1.02586
0.858216
0.69551
0.536818
0.381232
0.227857
0.0758054
305.447
298.368
291.082
283.628
276.041
268.353
260.594
252.792
244.974
237.163
229.38
221.645
213.977
206.391
198.903
191.524
184.267
177.142
170.159
163.325
156.646
150.129
143.777
137.596
131.587
125.753
120.096
114.616
109.312
104.186
99.236
94.4605
89.858
85.4263
81.1629
77.0652
73.1301
69.3543
65.7344
62.2668
58.9477
55.7732
52.7394
49.8422
47.0776
44.4413
41.9292
39.5372
37.2611
35.0968
33.0401
31.087
29.2335
27.4756
25.8096
24.2315
22.7376
21.3244
19.9882
18.7256
17.5333
16.4079
15.3462
14.3453
13.4021
12.5138
11.6775
10.8905
10.1504
9.45458
8.80065
8.18631
7.60935
7.06764
6.55914
6.08188
5.63399
5.21366
4.81917
4.44887
4.10116
3.77452
3.4675
3.1787
2.90677
2.65043
2.40844
2.17961
1.96278
1.75685
1.56075
1.37344
1.19391
1.02119
0.854309
0.692344
0.534374
0.379496
0.22682
0.0754603
303.974
296.929
289.679
282.261
274.71
267.059
259.337
251.574
243.793
236.019
228.274
220.577
212.946
205.396
197.944
190.601
183.379
176.288
169.339
162.537
155.891
149.405
143.084
136.933
130.953
125.147
119.517
114.063
108.785
103.684
98.7576
94.0051
89.4248
85.0144
80.7716
76.6937
72.7775
69.0199
65.4175
61.9666
58.6635
55.5043
52.4852
49.602
46.8506
44.2271
41.7271
39.3466
37.0815
34.9276
32.8808
30.9371
29.0926
27.3432
25.6852
24.1147
22.628
21.2216
19.8919
18.6354
17.4488
16.3288
15.2723
14.2762
13.3375
12.4534
11.6212
10.838
10.1015
9.409
8.75823
8.14685
7.57267
7.03357
6.52752
6.05257
5.60683
5.18853
4.79595
4.42742
4.08139
3.75633
3.45079
3.16338
2.89276
2.63766
2.39683
2.1691
1.95332
1.74839
1.55323
1.36682
1.18816
1.01627
0.850192
0.689007
0.531798
0.377667
0.225726
0.0750967
302.427
295.418
288.204
280.824
273.311
265.699
258.017
250.293
242.552
234.818
227.112
219.454
211.862
204.351
196.936
189.63
182.445
175.391
168.477
161.71
155.097
148.644
142.356
136.236
130.286
124.51
118.909
113.482
108.232
103.156
98.2548
93.5265
88.9695
84.5816
80.3604
76.3032
72.407
68.6685
65.0844
61.6511
58.3648
55.2218
52.218
49.3494
46.6121
44.0019
41.5147
39.1463
36.8927
34.7498
32.7134
30.7796
28.9445
27.204
25.5544
23.9919
22.5128
21.1136
19.7906
18.5405
17.3599
16.2457
15.1945
14.2035
13.2696
12.39
11.562
10.7829
10.0501
9.36111
8.71364
8.10538
7.53413
6.99777
6.4943
6.02176
5.57829
5.16212
4.77153
4.40489
4.06061
3.73721
3.43322
3.14728
2.87804
2.62423
2.38464
2.15806
1.94338
1.73949
1.54532
1.35986
1.18211
1.01109
0.845865
0.6855
0.529092
0.375745
0.224578
0.0747144
300.805
293.833
286.659
279.318
271.846
264.274
256.633
248.95
241.251
233.558
225.894
218.277
210.725
203.255
195.88
188.613
181.466
174.45
167.573
160.842
154.265
147.847
141.592
135.505
129.587
123.842
118.271
112.874
107.651
102.603
97.7278
93.0249
88.4923
84.1279
79.9294
75.894
72.0186
68.3002
64.7353
61.3204
58.0518
54.9256
51.9379
49.0847
46.3621
43.7659
41.292
38.9364
36.6948
34.5634
32.5379
30.6145
28.7892
27.0581
25.4173
23.8632
22.3921
21.0003
19.6845
18.4411
17.2668
16.1585
15.113
14.1273
13.1984
12.3236
11.5
10.725
9.99616
9.3109
8.66691
8.06191
7.49372
6.96024
6.45947
5.98946
5.54838
5.13444
4.74595
4.38127
4.03884
3.71717
3.41481
3.1304
2.8626
2.61016
2.37185
2.14649
1.93296
1.73016
1.53704
1.35257
1.17577
1.00567
0.841329
0.681825
0.526255
0.37373
0.223373
0.0743138
299.108
292.176
285.042
277.743
270.312
262.784
255.186
247.546
239.891
232.241
224.62
217.046
209.537
202.108
194.775
187.549
180.443
173.466
166.628
159.935
153.395
147.013
140.794
134.741
128.857
123.144
117.604
112.237
107.044
102.024
97.1766
92.5003
87.9932
83.6535
79.4787
75.466
71.6125
67.915
64.3703
60.9746
57.7244
54.6158
51.645
48.8079
46.1007
43.5191
41.0592
38.7168
36.4879
34.3685
32.3544
30.4419
28.6269
26.9055
25.274
23.7287
22.2658
20.8819
19.5735
18.3371
17.1695
16.0674
15.0278
14.0476
13.124
12.2541
11.4352
10.6646
9.93979
9.2584
8.61804
8.01645
7.45146
6.921
6.42304
5.95569
5.51709
5.10549
4.71919
4.35656
4.01607
3.69621
3.39556
3.11275
2.84646
2.59544
2.35847
2.13439
1.92206
1.7204
1.52837
1.34495
1.16914
1
0.836586
0.67798
0.523288
0.371623
0.222114
0.0738948
297.338
290.447
283.355
276.099
268.713
261.229
253.676
246.081
238.471
230.867
223.291
215.761
208.297
200.912
193.622
186.439
179.375
172.44
165.642
158.989
152.487
146.143
139.961
133.943
128.094
122.415
116.908
111.573
106.41
101.42
96.6015
91.9528
87.4725
83.1584
79.0083
75.0193
71.1887
67.5131
63.9893
60.6138
57.3828
54.2926
51.3394
48.5191
45.8278
43.2615
40.8162
38.4877
36.272
34.1651
32.163
30.2617
28.4574
26.7463
25.1244
23.5882
22.1341
20.7583
19.4576
18.2286
17.0679
15.9723
14.9389
13.9645
13.0464
12.1816
11.3675
10.6015
9.88097
9.20361
8.56704
7.96901
7.40737
6.88004
6.38504
5.92045
5.48445
5.07528
4.69126
4.33078
3.9923
3.67434
3.37547
3.09433
2.82962
2.58009
2.34452
2.12176
1.91069
1.71022
1.51933
1.33699
1.16223
0.994084
0.831636
0.673969
0.520191
0.369424
0.2208
0.0734576
295.495
288.646
281.598
274.387
267.047
259.609
252.103
244.556
236.992
229.435
221.906
214.424
207.005
199.667
192.422
185.283
178.263
171.371
164.615
158.003
151.542
145.237
139.093
133.113
127.3
121.656
116.183
110.881
105.751
100.791
96.0026
91.3827
86.9302
82.6429
78.5184
74.5542
70.7473
67.0945
63.5926
60.238
57.027
53.956
51.021
48.2183
45.5437
42.9933
40.5631
38.249
36.0471
33.9532
31.9636
30.0741
28.281
26.5805
24.9687
23.442
21.9968
20.6296
19.337
18.1155
16.962
15.8733
14.8463
13.8779
12.9655
12.1061
11.297
10.5357
9.81972
9.14656
8.51393
7.91961
7.36145
6.83739
6.34545
5.88375
5.45045
5.04382
4.66218
4.30394
3.96755
3.65156
3.35454
3.07515
2.81208
2.56409
2.32999
2.10861
1.89884
1.69962
1.50991
1.3287
1.15502
0.987922
0.826481
0.669791
0.516967
0.367134
0.219431
0.0730023
293.578
286.774
279.772
272.607
265.315
257.925
250.468
242.97
235.455
227.947
220.467
213.033
205.663
198.372
191.174
184.082
177.107
170.259
163.547
156.978
150.559
144.295
138.191
132.25
126.474
120.867
115.429
110.162
105.065
100.138
95.38
90.7901
86.3664
82.1069
78.0092
74.0707
70.2885
66.6594
63.1802
59.8473
56.6572
53.6061
50.6902
47.9056
45.2483
42.7145
40.3
38.001
35.8133
33.7331
31.7563
29.8791
28.0976
26.4081
24.8067
23.29
21.8542
20.4959
19.2116
17.9981
16.852
15.7704
14.75
13.7879
12.8814
12.0276
11.2237
10.4674
9.75604
9.08724
8.45872
7.86825
7.31371
6.79305
6.3043
5.84559
5.4151
5.01111
4.63195
4.27603
3.94183
3.62788
3.33279
3.05521
2.79385
2.54747
2.31488
2.09493
1.88653
1.6886
1.50012
1.32009
1.14753
0.981516
0.821121
0.665448
0.513615
0.364754
0.218008
0.0725289
291.589
284.831
277.877
270.761
263.517
256.178
248.771
241.324
233.86
226.403
218.973
211.59
204.269
197.028
189.879
182.835
175.907
169.106
162.439
155.915
149.539
143.318
137.255
131.354
125.617
120.048
114.647
109.416
104.353
99.4594
94.7338
90.175
85.7813
81.5506
77.4807
73.5689
69.8123
66.2078
62.7521
59.4419
56.2733
53.2429
50.3468
47.581
44.9418
42.4251
40.027
37.7435
35.5707
33.5045
31.5411
29.6767
27.9073
26.2292
24.6387
23.1322
21.7061
20.357
19.0814
17.8761
16.7379
15.6635
14.6501
13.6945
12.7941
11.9461
11.1477
10.3965
9.68995
9.02568
8.40142
7.81495
7.26417
6.74703
6.2616
5.80599
5.37842
4.97716
4.60057
4.24706
3.91512
3.60331
3.31021
3.03451
2.77492
2.53021
2.2992
2.08074
1.87375
1.67716
1.48996
1.31114
1.13976
0.974868
0.81556
0.660941
0.510136
0.362283
0.216532
0.0720376
289.528
282.818
275.913
268.847
261.655
254.367
247.013
239.618
232.207
224.803
217.426
210.094
202.826
195.635
188.537
181.543
174.664
167.911
161.291
154.813
148.482
142.305
136.285
130.425
124.73
119.2
113.837
108.642
103.616
98.7565
94.0643
89.5377
85.175
80.9743
76.9331
73.049
69.3189
65.7399
62.3086
59.0217
55.8756
52.8666
49.9909
47.2448
44.6242
42.1253
39.7441
37.4768
35.3193
33.2677
31.3182
29.4669
27.71
26.0438
24.4646
22.9687
21.5527
20.2131
18.9466
17.7498
16.6196
15.5528
14.5465
13.5978
12.7037
11.8617
11.0689
10.323
9.62147
8.9619
8.34205
7.75973
7.21283
6.69935
6.21735
5.76496
5.34041
4.94199
4.56806
4.21705
3.88746
3.57784
3.28682
3.01307
2.75531
2.51233
2.28295
2.06604
1.86051
1.66531
1.47943
1.30188
1.1317
0.96798
0.809797
0.65627
0.506531
0.359723
0.215002
0.0715286
287.396
280.736
273.881
266.867
259.728
252.494
245.194
237.853
230.497
223.147
215.825
208.547
201.332
194.195
187.148
180.206
173.378
166.674
160.103
153.673
147.389
141.257
135.281
129.465
123.811
118.322
112.999
107.842
102.852
98.0292
93.3715
88.8783
84.5477
80.3779
76.3666
72.511
68.8084
65.2557
61.8498
58.5871
55.4641
52.4773
49.6228
46.8968
44.2955
41.8151
39.4515
37.2008
35.0592
33.0227
31.0876
29.2499
27.506
25.852
24.2844
22.7996
21.394
20.0643
18.8071
17.6191
16.4972
15.4383
14.4394
13.4976
12.6102
11.7743
10.9874
10.247
9.55062
8.8959
8.28062
7.70258
7.15972
6.65002
6.17157
5.72251
5.30109
4.9056
4.53442
4.186
3.85883
3.5515
3.26262
2.99088
2.73502
2.49383
2.26614
2.05083
1.84681
1.65305
1.46854
1.29229
1.12337
0.960852
0.803834
0.651438
0.502801
0.357074
0.213418
0.0710019
285.193
278.583
271.781
264.821
257.737
250.558
243.314
236.03
228.73
221.437
214.17
206.948
199.789
192.706
185.714
178.824
172.048
165.396
158.876
152.495
146.259
140.174
134.244
128.472
122.862
117.415
112.133
107.015
102.064
97.2777
92.6558
88.1969
83.8996
79.7618
75.7811
71.9551
68.2809
64.7555
61.3756
58.138
55.039
52.075
49.2424
46.5373
43.956
41.4945
39.149
36.9156
34.7904
32.7696
30.8493
29.0257
27.2951
25.6538
24.0982
22.6248
21.23
19.9105
18.6629
17.484
16.3707
15.32
14.3287
13.3942
12.5135
11.684
10.9032
10.1685
9.47741
8.82771
8.21714
7.64354
7.10484
6.59905
6.12426
5.67865
5.26045
4.868
4.49966
4.15391
3.82925
3.52427
3.23761
2.96796
2.71406
2.47472
2.24877
2.03511
1.83266
1.64038
1.45728
1.28239
1.11476
0.953487
0.797673
0.646445
0.498948
0.354338
0.211783
0.0704577
282.92
276.363
269.615
262.71
255.682
248.561
241.374
234.148
226.907
219.672
212.463
205.299
198.196
191.17
184.233
177.399
170.677
164.078
157.609
151.279
145.093
139.056
133.174
127.448
121.882
116.479
111.239
106.162
101.25
96.5022
91.9171
87.4938
83.2308
79.1259
75.177
71.3815
67.7366
64.2393
60.8864
57.6745
54.6002
51.6599
48.8498
46.1663
43.6056
41.1637
38.8369
36.6213
34.5131
32.5084
30.6034
28.7943
27.0775
25.4493
23.9061
22.4444
21.0608
19.7518
18.5141
17.3447
16.2402
15.1978
14.2145
13.2874
12.4137
11.5909
10.8163
10.0874
9.40186
8.75734
8.15164
7.58261
7.0482
6.54644
6.07544
5.63338
5.21852
4.82919
4.4638
4.1208
3.79873
3.49618
3.2118
2.9443
2.69243
2.45499
2.23084
2.01889
1.81805
1.6273
1.44566
1.27217
1.10588
0.945887
0.791315
0.641292
0.494971
0.351513
0.210095
0.0698961
280.576
274.074
267.381
260.534
253.565
246.502
239.375
232.209
225.027
217.852
210.703
203.598
196.554
189.586
182.707
175.929
169.263
162.719
156.304
150.026
143.891
137.905
132.071
126.392
120.873
115.514
110.317
105.283
100.412
95.7029
91.1558
86.7692
82.5414
78.4705
74.5544
70.7903
67.1756
63.7072
60.3821
57.1968
54.148
51.232
48.4452
45.784
43.2444
40.8228
38.5153
36.318
34.2272
32.2391
30.3499
28.5558
26.8533
25.2385
23.7081
22.2585
20.8863
19.5882
18.3608
17.201
16.1057
15.072
14.0968
13.1773
12.3109
11.4949
10.7267
10.0039
9.32399
8.68481
8.08413
7.51981
6.98983
6.49223
6.02512
5.58672
5.1753
4.7892
4.42683
4.08667
3.76727
3.46723
3.1852
2.91991
2.67013
2.43466
2.21237
2.00217
1.80299
1.61383
1.43369
1.26163
1.09672
0.938054
0.784761
0.635981
0.490871
0.348602
0.208355
0.0693172
278.164
271.717
265.082
258.294
251.384
244.383
237.317
230.212
223.093
215.979
208.891
201.848
194.864
187.956
181.136
174.416
167.808
161.32
154.96
148.736
142.654
136.719
130.935
125.306
119.834
114.521
109.369
104.378
99.5483
94.88
90.372
86.0231
81.8317
77.7958
73.9133
70.1816
66.5979
63.1594
59.8629
56.705
53.6824
50.7915
48.0287
45.3903
42.8726
40.4718
38.1841
36.0057
33.9329
31.9619
30.0889
28.3103
26.6224
25.0215
23.5043
22.0672
20.7067
19.4197
18.2029
17.0531
15.9672
14.9424
13.9756
13.064
12.2051
11.3961
10.6345
9.91784
9.24382
8.61014
8.01462
7.45516
6.92973
6.4364
5.97332
5.53869
5.1308
4.74802
4.38877
4.05153
3.73488
3.43742
3.15782
2.89481
2.64717
2.41373
2.19335
1.98495
1.78749
1.59995
1.42137
1.25078
1.08729
0.929989
0.778014
0.630513
0.486651
0.345605
0.206563
0.0687213
275.682
269.293
262.718
255.99
249.142
242.203
235.2
228.159
221.103
214.052
207.028
200.047
193.126
186.279
179.52
172.861
166.311
159.881
153.578
147.409
141.382
135.499
129.767
124.188
118.765
113.499
108.393
103.447
98.6604
94.0337
89.5659
85.2558
81.1017
77.1019
73.254
69.5556
66.0039
62.596
59.3289
56.1992
53.2035
50.3384
47.6003
44.9854
42.4902
40.1108
37.8435
35.6846
33.6303
31.6768
29.8205
28.0578
26.3849
24.7983
23.2946
21.8703
20.522
19.2465
18.0405
16.901
15.8248
14.8091
13.8509
12.9475
12.0962
11.2944
10.5396
9.82938
9.16137
8.53334
7.94313
7.38866
6.86792
6.379
5.92004
5.48929
5.08504
4.70567
4.34962
4.0154
3.70157
3.40676
3.12965
2.86899
2.62356
2.3922
2.17379
1.96725
1.77155
1.58568
1.40869
1.23963
1.07759
0.921694
0.771075
0.62489
0.482311
0.342523
0.204721
0.0681084
273.133
266.803
260.288
253.623
246.838
239.963
233.025
226.049
219.058
212.073
205.114
198.197
191.34
184.557
177.86
171.262
164.773
158.402
152.158
146.046
140.074
134.246
128.567
123.04
117.667
112.45
107.391
102.49
97.7481
93.1642
88.7377
84.4674
80.3518
76.3889
72.5766
68.9124
65.3936
62.0172
58.7803
55.6795
52.7116
49.8729
47.1601
44.5694
42.0973
39.7399
37.4936
35.3546
33.3193
31.3839
29.5448
27.7983
26.1409
24.569
23.0792
21.6681
20.3323
19.0686
17.8737
16.7447
15.6785
14.6721
13.7228
12.8278
11.9844
11.19
10.4422
9.73849
9.07666
8.45444
7.86969
7.32034
6.80442
6.32001
5.8653
5.43853
5.03802
4.66216
4.3094
3.97827
3.66734
3.37526
3.10071
2.84246
2.5993
2.37008
2.15369
1.94906
1.75517
1.57102
1.39566
1.22817
1.06763
0.913172
0.763946
0.619112
0.477851
0.339356
0.202828
0.0674786
270.517
264.247
257.795
251.193
244.473
237.664
230.793
223.884
216.959
210.041
203.149
196.299
189.507
182.789
176.156
169.622
163.195
156.885
150.7
144.647
138.732
132.96
127.335
121.861
116.539
111.373
106.362
101.508
96.8117
92.2717
87.8876
83.6582
79.582
75.6571
71.8813
68.2522
64.7671
61.4231
58.2172
55.1461
52.2066
49.3952
46.7083
44.1425
41.694
39.3592
37.1344
35.0159
33.0001
31.0833
29.2618
27.532
25.8905
24.3337
22.8581
21.4605
20.1375
18.8859
17.7025
16.5843
15.5283
14.5316
13.5914
12.7049
11.8696
11.0828
10.3421
9.6452
8.98971
8.37345
7.7943
7.25022
6.73923
6.25947
5.80912
5.38644
4.98976
4.6175
4.26812
3.94016
3.63221
3.34292
3.07101
2.81523
2.5744
2.34738
2.13306
1.93039
1.73835
1.55597
1.38229
1.2164
1.0574
0.904425
0.756628
0.613182
0.473274
0.336105
0.200885
0.0668323
267.833
261.626
255.238
248.702
242.048
235.307
228.503
221.663
214.807
207.958
201.133
194.351
187.627
180.976
174.409
167.939
161.576
155.329
149.205
143.212
137.356
131.641
126.072
120.652
115.383
110.268
105.307
100.501
95.8513
91.3564
87.0158
82.8284
78.7926
74.9067
71.1683
67.5752
64.1247
60.8138
57.6397
54.5991
51.6887
48.9052
46.245
43.7046
41.2804
38.9688
36.766
34.6686
32.6728
30.7749
28.9715
27.2589
25.6337
24.0923
22.6314
21.2476
19.9378