/*--------------------------------*- C++ -*----------------------------------*\
| =========                 |                                                 |
| \\      /  F ield         | OpenFOAM: The Open Source CFD Toolbox           |
|  \\    /   O peration     | Version:  2406                                  |
|   \\  /    A nd           | Website:  www.openfoam.com                      |
|    \\/     M anipulation  |                                                 |
\*---------------------------------------------------------------------------*/
FoamFile
{
    version     2.0;
    format      ascii;
    arch        "LSB;label=32;scalar=64";
    class       volScalarField;
    location    "50";
    object      T;
}
// * * * * * * * * * * * * * * * * * * * * * * * * * * * * * * * * * * * * * //

dimensions      [0 0 0 1 0 0 0];

internalField   nonuniform List<scalar> 
20000
(
300.559
300.521
300.486
300.452
300.42
300.39
300.361
300.335
300.309
300.286
300.264
300.243
300.223
300.205
300.188
300.173
300.158
300.145
300.132
300.121
300.11
300.1
300.091
300.083
300.075
300.068
300.061
300.056
300.05
300.045
300.041
300.037
300.033
300.03
300.026
300.024
300.021
300.019
300.017
300.015
300.013
300.012
300.011
300.009
300.008
300.007
300.007
300.006
300.005
300.005
300.004
300.003
300.003
300.003
300.002
300.002
300.002
300.002
300.001
300.001
300.001
300.001
300.001
300.001
300.001
300.001
300
300
300
300
300
300
300
300
300
300
300
300
300
300
300
300
300
300
300
300
300
300
300
300
300
300
300
300
300
300
300
300
300
300
301.675
301.563
301.457
301.356
301.26
301.169
301.084
301.004
300.928
300.857
300.791
300.728
300.67
300.616
300.565
300.518
300.475
300.434
300.396
300.362
300.33
300.3
300.273
300.248
300.225
300.204
300.184
300.167
300.15
300.136
300.122
300.11
300.099
300.089
300.079
300.071
300.064
300.057
300.051
300.045
300.04
300.036
300.032
300.028
300.025
300.022
300.02
300.017
300.015
300.014
300.012
300.01
300.009
300.008
300.007
300.006
300.005
300.005
300.004
300.004
300.003
300.003
300.002
300.002
300.002
300.002
300.001
300.001
300.001
300.001
300.001
300.001
300.001
300
300
300
300
300
300
300
300
300
300
300
300
300
300
300
300
300
300
300
300
300
300
300
300
300
300
300
302.792
302.605
302.427
302.259
302.1
301.949
301.807
301.673
301.547
301.428
301.317
301.214
301.117
301.026
300.942
300.864
300.791
300.723
300.661
300.603
300.549
300.5
300.455
300.413
300.374
300.339
300.307
300.278
300.251
300.226
300.204
300.183
300.165
300.148
300.132
300.119
300.106
300.095
300.085
300.075
300.067
300.06
300.053
300.047
300.042
300.037
300.033
300.029
300.026
300.023
300.02
300.017
300.015
300.013
300.012
300.01
300.009
300.008
300.007
300.006
300.005
300.005
300.004
300.003
300.003
300.003
300.002
300.002
300.002
300.001
300.001
300.001
300.001
300.001
300.001
300.001
300
300
300
300
300
300
300
300
300
300
300
300
300
300
300
300
300
300
300
300
300
300
300
300
303.908
303.646
303.398
303.162
302.939
302.728
302.529
302.341
302.165
301.999
301.844
301.699
301.563
301.436
301.319
301.209
301.107
301.012
300.925
300.844
300.769
300.7
300.636
300.578
300.524
300.475
300.43
300.388
300.351
300.316
300.285
300.256
300.23
300.207
300.185
300.166
300.149
300.133
300.118
300.106
300.094
300.084
300.074
300.066
300.058
300.052
300.046
300.04
300.036
300.032
300.028
300.024
300.021
300.019
300.017
300.014
300.013
300.011
300.01
300.008
300.007
300.006
300.006
300.005
300.004
300.004
300.003
300.003
300.002
300.002
300.002
300.001
300.001
300.001
300.001
300.001
300.001
300.001
300.001
300
300
300
300
300
300
300
300
300
300
300
300
300
300
300
300
300
300
300
300
300
305.023
304.686
304.367
304.064
303.777
303.506
303.25
303.009
302.782
302.57
302.37
302.183
302.009
301.846
301.695
301.554
301.423
301.301
301.189
301.084
300.988
300.9
300.818
300.743
300.674
300.61
300.552
300.499
300.451
300.406
300.366
300.329
300.296
300.266
300.238
300.213
300.191
300.171
300.152
300.136
300.121
300.108
300.096
300.085
300.075
300.067
300.059
300.052
300.046
300.04
300.036
300.031
300.028
300.024
300.021
300.019
300.016
300.014
300.012
300.011
300.009
300.008
300.007
300.006
300.005
300.005
300.004
300.003
300.003
300.003
300.002
300.002
300.002
300.001
300.001
300.001
300.001
300.001
300.001
300.001
300
300
300
300
300
300
300
300
300
300
300
300
300
300
300
300
300
300
300
300
306.136
305.726
305.335
304.965
304.614
304.283
303.97
303.676
303.399
303.139
302.896
302.668
302.454
302.256
302.07
301.898
301.738
301.59
301.452
301.325
301.207
301.099
300.999
300.907
300.823
300.746
300.675
300.61
300.551
300.497
300.447
300.402
300.362
300.325
300.291
300.261
300.233
300.208
300.186
300.166
300.148
300.131
300.117
300.104
300.092
300.081
300.072
300.064
300.056
300.049
300.044
300.038
300.034
300.03
300.026
300.023
300.02
300.017
300.015
300.013
300.012
300.01
300.009
300.008
300.007
300.006
300.005
300.004
300.004
300.003
300.003
300.002
300.002
300.002
300.001
300.001
300.001
300.001
300.001
300.001
300.001
300
300
300
300
300
300
300
300
300
300
300
300
300
300
300
300
300
300
300
307.248
306.763
306.302
305.865
305.451
305.059
304.69
304.342
304.015
303.708
303.42
303.151
302.899
302.664
302.446
302.242
302.053
301.878
301.715
301.565
301.426
301.298
301.18
301.072
300.972
300.881
300.797
300.72
300.65
300.587
300.528
300.475
300.427
300.383
300.344
300.308
300.275
300.246
300.22
300.196
300.174
300.155
300.138
300.122
300.108
300.096
300.085
300.075
300.066
300.058
300.051
300.045
300.04
300.035
300.031
300.027
300.023
300.021
300.018
300.016
300.014
300.012
300.01
300.009
300.008
300.007
300.006
300.005
300.004
300.004
300.003
300.003
300.002
300.002
300.002
300.002
300.001
300.001
300.001
300.001
300.001
300.001
300.001
300
300
300
300
300
300
300
300
300
300
300
300
300
300
300
300
300
308.359
307.799
307.267
306.763
306.286
305.834
305.409
305.007
304.63
304.276
303.944
303.634
303.343
303.073
302.82
302.586
302.368
302.165
301.978
301.805
301.645
301.497
301.361
301.236
301.121
301.016
300.919
300.831
300.75
300.676
300.609
300.548
300.493
300.442
300.397
300.355
300.318
300.284
300.253
300.226
300.201
300.179
300.159
300.141
300.125
300.111
300.098
300.087
300.076
300.067
300.059
300.052
300.046
300.04
300.035
300.031
300.027
300.024
300.021
300.018
300.016
300.014
300.012
300.01
300.009
300.008
300.007
300.006
300.005
300.004
300.004
300.003
300.003
300.002
300.002
300.002
300.001
300.001
300.001
300.001
300.001
300.001
300.001
300
300
300
300
300
300
300
300
300
300
300
300
300
300
300
300
300
309.467
308.833
308.231
307.66
307.119
306.608
306.126
305.671
305.244
304.843
304.467
304.115
303.787
303.48
303.194
302.928
302.681
302.452
302.24
302.044
301.863
301.696
301.542
301.4
301.27
301.15
301.041
300.941
300.85
300.766
300.69
300.621
300.558
300.501
300.449
300.402
300.36
300.322
300.287
300.256
300.228
300.203
300.18
300.16
300.142
300.125
300.111
300.098
300.087
300.076
300.067
300.059
300.052
300.046
300.04
300.035
300.031
300.027
300.023
300.02
300.018
300.015
300.013
300.012
300.01
300.009
300.008
300.007
300.006
300.005
300.004
300.004
300.003
300.003
300.002
300.002
300.002
300.001
300.001
300.001
300.001
300.001
300.001
300.001
300
300
300
300
300
300
300
300
300
300
300
300
300
300
300
300
310.573
309.865
309.193
308.555
307.951
307.38
306.841
306.334
305.857
305.409
304.989
304.596
304.229
303.887
303.567
303.271
302.995
302.739
302.502
302.283
302.08
301.894
301.722
301.563
301.418
301.285
301.163
301.051
300.949
300.856
300.771
300.693
300.623
300.559
300.502
300.449
300.402
300.359
300.32
300.286
300.254
300.226
300.201
300.179
300.158
300.14
300.124
300.11
300.097
300.085
300.075
300.066
300.058
300.051
300.045
300.039
300.034
300.03
300.026
300.023
300.02
300.017
300.015
300.013
300.011
300.01
300.008
300.007
300.006
300.005
300.005
300.004
300.003
300.003
300.003
300.002
300.002
300.002
300.001
300.001
300.001
300.001
300.001
300.001
300.001
300
300
300
300
300
300
300
300
300
300
300
300
300
300
300
311.676
310.895
310.152
309.447
308.78
308.15
307.555
306.995
306.468
305.973
305.51
305.076
304.67
304.292
303.94
303.612
303.307
303.025
302.763
302.521
302.297
302.091
301.901
301.727
301.566
301.419
301.284
301.161
301.048
300.945
300.851
300.766
300.688
300.618
300.554
300.496
300.444
300.397
300.354
300.316
300.281
300.25
300.222
300.197
300.175
300.155
300.137
300.121
300.107
300.094
300.083
300.073
300.064
300.056
300.049
300.043
300.038
300.033
300.029
300.025
300.022
300.019
300.017
300.014
300.012
300.011
300.009
300.008
300.007
300.006
300.005
300.004
300.004
300.003
300.003
300.002
300.002
300.002
300.002
300.001
300.001
300.001
300.001
300.001
300.001
300
300
300
300
300
300
300
300
300
300
300
300
300
300
300
312.777
311.921
311.109
310.338
309.608
308.918
308.267
307.654
307.078
306.536
306.029
305.554
305.111
304.697
304.311
303.952
303.619
303.31
303.023
302.759
302.514
302.288
302.08
301.889
301.714
301.553
301.405
301.27
301.147
301.034
300.931
300.838
300.753
300.676
300.606
300.543
300.486
300.434
300.387
300.345
300.307
300.274
300.243
300.216
300.191
300.169
300.15
300.132
300.117
300.103
300.091
300.08
300.07
300.062
300.054
300.047
300.041
300.036
300.032
300.028
300.024
300.021
300.018
300.016
300.014
300.012
300.01
300.009
300.008
300.007
300.006
300.005
300.004
300.004
300.003
300.003
300.002
300.002
300.002
300.001
300.001
300.001
300.001
300.001
300.001
300.001
300
300
300
300
300
300
300
300
300
300
300
300
300
300
313.874
312.945
312.063
311.226
310.433
309.684
308.977
308.311
307.685
307.098
306.547
306.031
305.55
305.1
304.681
304.292
303.93
303.594
303.283
302.995
302.73
302.485
302.259
302.052
301.861
301.686
301.526
301.379
301.245
301.123
301.011
300.91
300.818
300.734
300.658
300.589
300.527
300.471
300.421
300.375
300.334
300.297
300.264
300.234
300.208
300.184
300.163
300.144
300.127
300.112
300.099
300.087
300.076
300.067
300.059
300.051
300.045
300.039
300.034
300.03
300.026
300.023
300.02
300.017
300.015
300.013
300.011
300.01
300.008
300.007
300.006
300.005
300.005
300.004
300.003
300.003
300.002
300.002
300.002
300.002
300.001
300.001
300.001
300.001
300.001
300.001
300
300
300
300
300
300
300
300
300
300
300
300
300
300
314.968
313.966
313.014
312.111
311.256
310.447
309.685
308.967
308.291
307.657
307.063
306.507
305.987
305.502
305.05
304.63
304.24
303.877
303.542
303.232
302.945
302.681
302.437
302.213
302.008
301.819
301.646
301.488
301.343
301.211
301.091
300.982
300.882
300.792
300.71
300.636
300.569
300.508
300.454
300.404
300.36
300.32
300.285
300.253
300.224
300.198
300.175
300.155
300.137
300.121
300.106
300.093
300.082
300.072
300.063
300.055
300.048
300.042
300.037
300.032
300.028
300.024
300.021
300.018
300.016
300.014
300.012
300.01
300.009
300.008
300.007
300.006
300.005
300.004
300.004
300.003
300.003
300.002
300.002
300.002
300.001
300.001
300.001
300.001
300.001
300.001
300.001
300
300
300
300
300
300
300
300
300
300
300
300
300
316.058
314.983
313.962
312.993
312.075
311.208
310.39
309.62
308.895
308.215
307.577
306.981
306.423
305.903
305.418
304.967
304.548
304.16
303.8
303.467
303.16
302.876
302.615
302.374
302.154
301.951
301.766
301.596
301.441
301.299
301.17
301.053
300.946
300.85
300.762
300.682
300.61
300.545
300.487
300.434
300.386
300.344
300.305
300.271
300.24
300.213
300.188
300.166
300.147
300.129
300.114
300.1
300.088
300.077
300.068
300.059
300.052
300.045
300.04
300.035
300.03
300.026
300.023
300.02
300.017
300.015
300.013
300.011
300.01
300.008
300.007
300.006
300.005
300.005
300.004
300.003
300.003
300.002
300.002
300.002
300.002
300.001
300.001
300.001
300.001
300.001
300.001
300
300
300
300
300
300
300
300
300
300
300
300
300
317.144
315.997
314.906
313.872
312.892
311.966
311.093
310.271
309.497
308.771
308.09
307.453
306.858
306.302
305.785
305.303
304.856
304.441
304.057
303.702
303.373
303.071
302.792
302.535
302.299
302.083
301.885
301.704
301.538
301.387
301.25
301.124
301.01
300.907
300.813
300.728
300.652
300.582
300.52
300.463
300.413
300.367
300.326
300.289
300.257
300.227
300.201
300.178
300.157
300.138
300.122
300.107
300.094
300.083
300.072
300.063
300.055
300.049
300.042
300.037
300.032
300.028
300.024
300.021
300.018
300.016
300.014
300.012
300.01
300.009
300.008
300.007
300.006
300.005
300.004
300.004
300.003
300.003
300.002
300.002
300.002
300.001
300.001
300.001
300.001
300.001
300.001
300.001
300
300
300
300
300
300
300
300
300
300
300
300
318.226
317.006
315.847
314.747
313.706
312.722
311.793
310.919
310.096
309.324
308.601
307.923
307.29
306.7
306.15
305.638
305.162
304.721
304.313
303.935
303.586
303.264
302.968
302.695
302.445
302.215
302.004
301.812
301.636
301.475
301.329
301.195
301.074
300.964
300.865
300.774
300.693
300.619
300.552
300.493
300.439
300.39
300.347
300.308
300.273
300.242
300.214
300.189
300.167
300.147
300.129
300.114
300.1
300.088
300.077
300.067
300.059
300.052
300.045
300.039
300.034
300.03
300.026
300.022
300.019
300.017
300.015
300.013
300.011
300.009
300.008
300.007
300.006
300.005
300.004
300.004
300.003
300.003
300.002
300.002
300.002
300.001
300.001
300.001
300.001
300.001
300.001
300.001
300
300
300
300
300
300
300
300
300
300
300
300
319.304
318.011
316.783
315.619
314.516
313.474
312.49
311.564
310.693
309.875
309.109
308.392
307.721
307.096
306.513
305.971
305.468
305.001
304.568
304.168
303.798
303.457
303.143
302.854
302.589
302.346
302.123
301.919
301.732
301.562
301.407
301.266
301.138
301.021
300.916
300.82
300.734
300.656
300.585
300.522
300.465
300.413
300.367
300.326
300.289
300.256
300.226
300.2
300.177
300.156
300.137
300.121
300.106
300.093
300.082
300.071
300.062
300.055
300.048
300.042
300.036
300.032
300.027
300.024
300.021
300.018
300.015
300.013
300.012
300.01
300.009
300.007
300.006
300.005
300.005
300.004
300.003
300.003
300.003
300.002
300.002
300.002
300.001
300.001
300.001
300.001
300.001
300.001
300
300
300
300
300
300
300
300
300
300
300
300
320.376
319.012
317.716
316.487
315.323
314.223
313.185
312.207
311.287
310.424
309.615
308.858
308.15
307.49
306.875
306.303
305.771
305.278
304.822
304.399
304.009
303.649
303.318
303.013
302.733
302.476
302.241
302.025
301.828
301.649
301.485
301.336
301.201
301.078
300.967
300.866
300.774
300.692
300.618
300.551
300.49
300.436
300.388
300.344
300.305
300.27
300.239
300.211
300.186
300.164
300.145
300.127
300.112
300.098
300.086
300.075
300.066
300.058
300.05
300.044
300.038
300.033
300.029
300.025
300.022
300.019
300.016
300.014
300.012
300.011
300.009
300.008
300.007
300.006
300.005
300.004
300.004
300.003
300.003
300.002
300.002
300.002
300.001
300.001
300.001
300.001
300.001
300.001
300.001
300
300
300
300
300
300
300
300
300
300
300
321.444
320.009
318.644
317.351
316.126
314.968
313.875
312.846
311.879
310.97
310.119
309.322
308.577
307.883
307.235
306.633
306.074
305.555
305.074
304.63
304.219
303.841
303.492
303.171
302.876
302.606
302.358
302.131
301.924
301.735
301.563
301.406
301.264
301.134
301.017
300.911
300.815
300.728
300.65
300.58
300.516
300.459
300.408
300.362
300.321
300.284
300.251
300.222
300.196
300.173
300.152
300.134
300.118
300.103
300.091
300.079
300.069
300.061
300.053
300.046
300.04
300.035
300.03
300.026
300.023
300.02
300.017
300.015
300.013
300.011
300.01
300.008
300.007
300.006
300.005
300.004
300.004
300.003
300.003
300.002
300.002
300.002
300.001
300.001
300.001
300.001
300.001
300.001
300.001
300
300
300
300
300
300
300
300
300
300
300
322.506
321
319.568
318.21
316.924
315.709
314.563
313.483
312.467
311.514
310.62
309.784
309.002
308.273
307.594
306.962
306.375
305.83
305.326
304.859
304.428
304.031
303.665
303.328
303.019
302.735
302.475
302.237
302.02
301.821
301.641
301.476
301.326
301.191
301.068
300.956
300.855
300.764
300.682
300.608
300.542
300.482
300.428
300.38
300.337
300.298
300.264
300.233
300.206
300.181
300.16
300.141
300.124
300.108
300.095
300.083
300.073
300.064
300.056
300.048
300.042
300.037
300.032
300.028
300.024
300.021
300.018
300.016
300.013
300.012
300.01
300.009
300.007
300.006
300.005
300.005
300.004
300.003
300.003
300.003
300.002
300.002
300.002
300.001
300.001
300.001
300.001
300.001
300.001
300
300
300
300
300
300
300
300
300
300
300
323.563
321.986
320.487
319.065
317.719
316.447
315.247
314.116
313.053
312.055
311.119
310.243
309.425
308.662
307.95
307.289
306.674
306.104
305.576
305.087
304.636
304.22
303.837
303.484
303.16
302.863
302.591
302.342
302.114
301.907
301.718
301.545
301.389
301.247
301.118
301.001
300.896
300.8
300.714
300.637
300.567
300.504
300.448
300.398
300.353
300.312
300.276
300.244
300.215
300.19
300.167
300.147
300.129
300.114
300.1
300.087
300.076
300.067
300.058
300.051
300.044
300.038
300.033
300.029
300.025
300.022
300.019
300.016
300.014
300.012
300.011
300.009
300.008
300.007
300.006
300.005
300.004
300.004
300.003
300.003
300.002
300.002
300.002
300.001
300.001
300.001
300.001
300.001
300.001
300.001
300
300
300
300
300
300
300
300
300
300
324.614
322.967
321.401
319.916
318.51
317.181
315.927
314.746
313.635
312.592
311.615
310.7
309.846
309.048
308.305
307.614
306.972
306.376
305.825
305.314
304.843
304.408
304.008
303.64
303.301
302.991
302.707
302.446
302.209
301.992
301.794
301.614
301.451
301.302
301.168
301.046
300.935
300.836
300.746
300.665
300.592
300.527
300.468
300.416
300.368
300.326
300.289
300.255
300.225
300.198
300.175
300.154
300.135
300.119
300.104
300.091
300.08
300.07
300.061
300.053
300.046
300.04
300.035
300.03
300.026
300.023
300.02
300.017
300.015
300.013
300.011
300.009
300.008
300.007
300.006
300.005
300.004
300.004
300.003
300.003
300.002
300.002
300.002
300.001
300.001
300.001
300.001
300.001
300.001
300.001
300
300
300
300
300
300
300
300
300
300
325.659
323.942
322.309
320.761
319.295
317.91
316.603
315.372
314.214
313.127
312.108
311.155
310.264
309.432
308.658
307.937
307.268
306.647
306.072
305.54
305.049
304.596
304.178
303.794
303.442
303.118
302.822
302.55
302.303
302.076
301.87
301.683
301.512
301.357
301.217
301.09
300.975
300.871
300.778
300.693
300.618
300.549
300.488
300.433
300.384
300.34
300.301
300.266
300.235
300.207
300.182
300.16
300.141
300.124
300.108
300.095
300.083
300.073
300.063
300.055
300.048
300.042
300.036
300.032
300.027
300.024
300.021
300.018
300.015
300.013
300.011
300.01
300.008
300.007
300.006
300.005
300.005
300.004
300.003
300.003
300.002
300.002
300.002
300.002
300.001
300.001
300.001
300.001
300.001
300.001
300
300
300
300
300
300
300
300
300
300
326.698
324.911
323.212
321.602
320.076
318.635
317.275
315.994
314.789
313.658
312.598
311.606
310.679
309.814
309.008
308.258
307.562
306.916
306.318
305.764
305.253
304.782
304.347
303.948
303.581
303.244
302.936
302.654
302.396
302.16
301.946
301.751
301.573
301.412
301.266
301.134
301.015
300.907
300.809
300.721
300.643
300.572
300.508
300.451
300.4
300.354
300.313
300.277
300.244
300.215
300.19
300.167
300.147
300.129
300.113
300.099
300.086
300.076
300.066
300.058
300.05
300.044
300.038
300.033
300.029
300.025
300.021
300.019
300.016
300.014
300.012
300.01
300.009
300.008
300.007
300.006
300.005
300.004
300.003
300.003
300.003
300.002
300.002
300.002
300.001
300.001
300.001
300.001
300.001
300.001
300
300
300
300
300
300
300
300
300
300
327.73
325.874
324.11
322.437
320.852
319.355
317.943
316.612
315.361
314.186
313.085
312.055
311.092
310.193
309.356
308.578
307.854
307.183
306.562
305.987
305.456
304.966
304.515
304.1
303.719
303.37
303.049
302.756
302.488
302.244
302.021
301.819
301.634
301.467
301.315
301.178
301.054
300.942
300.841
300.749
300.667
300.594
300.527
300.468
300.415
300.368
300.325
300.287
300.254
300.224
300.197
300.173
300.152
300.134
300.117
300.103
300.09
300.078
300.068
300.06
300.052
300.045
300.039
300.034
300.03
300.026
300.022
300.019
300.017
300.014
300.012
300.011
300.009
300.008
300.007
300.006
300.005
300.004
300.004
300.003
300.003
300.002
300.002
300.002
300.001
300.001
300.001
300.001
300.001
300.001
300
300
300
300
300
300
300
300
300
300
328.755
326.83
325.001
323.266
321.623
320.071
318.606
317.226
315.929
314.711
313.569
312.5
311.502
310.57
309.702
308.895
308.145
307.449
306.805
306.208
305.658
305.15
304.682
304.252
303.857
303.494
303.162
302.858
302.58
302.327
302.096
301.886
301.695
301.521
301.364
301.222
301.093
300.977
300.872
300.777
300.692
300.616
300.547
300.485
300.43
300.381
300.337
300.298
300.263
300.232
300.204
300.18
300.158
300.139
300.121
300.106
300.093
300.081
300.071
300.062
300.054
300.047
300.041
300.035
300.031
300.027
300.023
300.02
300.017
300.015
300.013
300.011
300.009
300.008
300.007
300.006
300.005
300.004
300.004
300.003
300.003
300.002
300.002
300.002
300.001
300.001
300.001
300.001
300.001
300.001
300.001
300
300
300
300
300
300
300
300
300
329.773
327.78
325.886
324.09
322.389
320.781
319.265
317.836
316.493
315.232
314.049
312.943
311.909
310.944
310.046
309.21
308.433
307.713
307.045
306.428
305.858
305.332
304.848
304.403
303.993
303.618
303.274
302.959
302.672
302.409
302.17
301.953
301.755
301.575
301.412
301.265
301.132
301.011
300.902
300.805
300.717
300.637
300.566
300.503
300.446
300.395
300.349
300.308
300.272
300.24
300.211
300.186
300.163
300.143
300.126
300.11
300.096
300.084
300.074
300.064
300.056
300.049
300.042
300.037
300.032
300.028
300.024
300.021
300.018
300.015
300.013
300.011
300.01
300.008
300.007
300.006
300.005
300.005
300.004
300.003
300.003
300.002
300.002
300.002
300.001
300.001
300.001
300.001
300.001
300.001
300.001
300
300
300
300
300
300
300
300
300
330.784
328.723
326.765
324.908
323.149
321.487
319.919
318.442
317.053
315.749
314.526
313.382
312.313
311.316
310.387
309.522
308.719
307.975
307.285
306.647
306.057
305.513
305.013
304.552
304.129
303.741
303.385
303.06
302.762
302.491
302.244
302.019
301.814
301.629
301.46
301.308
301.17
301.045
300.933
300.832
300.741
300.659
300.586
300.52
300.461
300.408
300.361
300.319
300.281
300.248
300.219
300.192
300.169
300.148
300.13
300.114
300.1
300.087
300.076
300.066
300.058
300.05
300.044
300.038
300.033
300.029
300.025
300.021
300.018
300.016
300.014
300.012
300.01
300.009
300.007
300.006
300.006
300.005
300.004
300.003
300.003
300.003
300.002
300.002
300.002
300.001
300.001
300.001
300.001
300.001
300.001
300
300
300
300
300
300
300
300
300
331.787
329.659
327.637
325.719
323.903
322.187
320.568
319.043
317.608
316.262
315
313.818
312.715
311.685
310.725
309.833
309.004
308.234
307.522
306.863
306.254
305.693
305.176
304.7
304.263
303.863
303.495
303.159
302.852
302.572
302.317
302.085
301.873
301.682
301.508
301.35
301.208
301.08
300.964
300.859
300.765
300.681
300.605
300.537
300.476
300.421
300.373
300.329
300.291
300.256
300.226
300.199
300.174
300.153
300.134
300.118
300.103
300.09
300.079
300.068
300.06
300.052
300.045
300.039
300.034
300.029
300.025
300.022
300.019
300.016
300.014
300.012
300.01
300.009
300.008
300.007
300.006
300.005
300.004
300.004
300.003
300.003
300.002
300.002
300.002
300.001
300.001
300.001
300.001
300.001
300.001
300
300
300
300
300
300
300
300
300
332.782
330.588
328.503
326.525
324.652
322.882
321.212
319.639
318.16
316.771
315.469
314.251
313.113
312.051
311.061
310.141
309.285
308.492
307.758
307.078
306.45
305.871
305.338
304.848
304.397
303.984
303.605
303.258
302.942
302.653
302.39
302.15
301.932
301.734
301.555
301.393
301.246
301.113
300.994
300.886
300.789
300.702
300.624
300.553
300.491
300.435
300.384
300.34
300.3
300.264
300.233
300.205
300.18
300.158
300.138
300.121
300.106
300.093
300.081
300.071
300.062
300.054
300.047
300.04
300.035
300.03
300.026
300.023
300.02
300.017
300.015
300.013
300.011
300.009
300.008
300.007
300.006
300.005
300.004
300.004
300.003
300.003
300.002
300.002
300.002
300.001
300.001
300.001
300.001
300.001
300.001
300
300
300
300
300
300
300
300
300
333.77
331.509
329.361
327.323
325.394
323.571
321.851
320.23
318.707
317.276
315.935
314.68
313.508
312.414
311.394
310.446
309.565
308.748
307.991
307.291
306.645
306.048
305.499
304.994
304.529
304.104
303.713
303.356
303.03
302.733
302.462
302.215
301.99
301.787
301.602
301.435
301.283
301.147
301.024
300.913
300.813
300.723
300.642
300.57
300.505
300.448
300.396
300.35
300.309
300.272
300.24
300.211
300.185
300.163
300.143
300.125
300.109
300.096
300.083
300.073
300.063
300.055
300.048
300.042
300.036
300.031
300.027
300.023
300.02
300.017
300.015
300.013
300.011
300.01
300.008
300.007
300.006
300.005
300.004
300.004
300.003
300.003
300.002
300.002
300.002
300.001
300.001
300.001
300.001
300.001
300.001
300.001
300
300
300
300
300
300
300
300
334.749
332.422
330.212
328.115
326.13
324.254
322.484
320.817
319.249
317.777
316.397
315.106
313.899
312.773
311.724
310.749
309.842
309.002
308.223
307.502
306.837
306.223
305.658
305.138
304.661
304.222
303.821
303.454
303.118
302.812
302.533
302.279
302.048
301.838
301.648
301.476
301.321
301.18
301.053
300.939
300.836
300.744
300.661
300.587
300.52
300.461
300.407
300.36
300.318
300.28
300.247
300.217
300.191
300.167
300.147
300.129
300.112
300.098
300.086
300.075
300.065
300.057
300.049
300.043
300.037
300.032
300.028
300.024
300.021
300.018
300.015
300.013
300.011
300.01
300.008
300.007
300.006
300.005
300.005
300.004
300.003
300.003
300.002
300.002
300.002
300.001
300.001
300.001
300.001
300.001
300.001
300.001
300
300
300
300
300
300
300
300
335.719
333.328
331.056
328.9
326.86
324.931
323.112
321.398
319.786
318.273
316.855
315.528
314.287
313.13
312.052
311.049
310.117
309.253
308.452
307.712
307.028
306.397
305.816
305.282
304.791
304.34
303.928
303.55
303.205
302.89
302.604
302.342
302.105
301.89
301.694
301.517
301.358
301.213
301.083
300.965
300.86
300.765
300.679
300.603
300.535
300.473
300.419
300.37
300.327
300.288
300.254
300.223
300.196
300.172
300.151
300.132
300.116
300.101
300.088
300.077
300.067
300.058
300.051
300.044
300.038
300.033
300.029
300.025
300.021
300.018
300.016
300.014
300.012
300.01
300.009
300.007
300.006
300.005
300.005
300.004
300.003
300.003
300.002
300.002
300.002
300.002
300.001
300.001
300.001
300.001
300.001
300.001
300
300
300
300
300
300
300
300
336.68
334.225
331.892
329.678
327.583
325.603
323.734
321.974
320.319
318.765
317.309
315.946
314.672
313.484
312.376
311.346
310.389
309.502
308.68
307.92
307.217
306.569
305.973
305.424
304.92
304.457
304.033
303.646
303.292
302.968
302.674
302.406
302.162
301.941
301.74
301.558
301.394
301.246
301.112
300.991
300.883
300.785
300.698
300.619
300.549
300.486
300.43
300.38
300.335
300.296
300.26
300.229
300.201
300.177
300.155
300.136
300.119
300.104
300.091
300.079
300.069
300.06
300.052
300.045
300.039
300.034
300.029
300.025
300.022
300.019
300.016
300.014
300.012
300.01
300.009
300.008
300.007
300.006
300.005
300.004
300.003
300.003
300.003
300.002
300.002
300.002
300.001
300.001
300.001
300.001
300.001
300.001
300
300
300
300
300
300
300
300
337.633
335.114
332.72
330.449
328.299
326.267
324.35
322.545
320.847
319.252
317.758
316.36
315.053
313.834
312.698
311.641
310.659
309.749
308.905
308.125
307.405
306.74
306.128
305.565
305.047
304.573
304.138
303.74
303.377
303.045
302.743
302.468
302.218
301.991
301.785
301.599
301.43
301.278
301.141
301.017
300.906
300.806
300.716
300.635
300.563
300.499
300.441
300.39
300.344
300.303
300.267
300.235
300.207
300.181
300.159
300.139
300.122
300.106
300.093
300.081
300.071
300.061
300.053
300.046
300.04
300.035
300.03
300.026
300.023
300.019
300.017
300.014
300.012
300.011
300.009
300.008
300.007
300.006
300.005
300.004
300.004
300.003
300.003
300.002
300.002
300.002
300.001
300.001
300.001
300.001
300.001
300.001
300
300
300
300
300
300
300
300
338.576
335.994
333.54
331.212
329.009
326.926
324.961
323.11
321.369
319.735
318.203
316.77
315.43
314.18
313.016
311.933
310.926
309.993
309.129
308.329
307.59
306.909
306.281
305.704
305.174
304.688
304.242
303.834
303.462
303.122
302.812
302.53
302.274
302.041
301.83
301.639
301.466
301.31
301.169
301.043
300.928
300.826
300.734
300.651
300.577
300.511
300.452
300.4
300.353
300.311
300.274
300.241
300.212
300.186
300.163
300.143
300.125
300.109
300.095
300.083
300.072
300.063
300.055
300.048
300.041
300.036
300.031
300.027
300.023
300.02
300.017
300.015
300.013
300.011
300.009
300.008
300.007
300.006
300.005
300.004
300.004
300.003
300.003
300.002
300.002
300.002
300.001
300.001
300.001
300.001
300.001
300.001
300
300
300
300
300
300
300
300
339.51
336.865
334.352
331.968
329.711
327.577
325.565
323.669
321.886
320.213
318.644
317.176
315.804
314.524
313.331
312.221
311.191
310.235
309.349
308.53
307.774
307.076
306.434
305.842
305.299
304.801
304.345
303.927
303.545
303.197
302.88
302.591
302.329
302.09
301.874
301.679
301.502
301.342
301.198
301.068
300.951
300.846
300.752
300.667
300.591
300.524
300.463
300.409
300.361
300.319
300.281
300.247
300.217
300.19
300.167
300.146
300.128
300.112
300.098
300.085
300.074
300.065
300.056
300.049
300.042
300.037
300.032
300.027
300.024
300.02
300.018
300.015
300.013
300.011
300.01
300.008
300.007
300.006
300.005
300.004
300.004
300.003
300.003
300.002
300.002
300.002
300.001
300.001
300.001
300.001
300.001
300.001
300
300
300
300
300
300
300
300
340.434
337.727
335.155
332.715
330.405
328.222
326.163
324.222
322.398
320.685
319.08
317.577
316.173
314.863
313.643
312.507
311.453
310.474
309.568
308.73
307.956
307.242
306.584
305.979
305.423
304.913
304.446
304.019
303.628
303.272
302.947
302.652
302.383
302.139
301.918
301.718
301.537
301.373
301.226
301.093
300.973
300.866
300.769
300.683
300.605
300.536
300.474
300.419
300.37
300.326
300.287
300.253
300.222
300.195
300.171
300.15
300.131
300.114
300.1
300.087
300.076
300.066
300.057
300.05
300.043
300.037
300.032
300.028
300.024
300.021
300.018
300.016
300.013
300.011
300.01
300.008
300.007
300.006
300.005
300.005
300.004
300.003
300.003
300.002
300.002
300.002
300.001
300.001
300.001
300.001
300.001
300.001
300
300
300
300
300
300
300
300
341.347
338.58
335.949
333.455
331.093
328.86
326.754
324.77
322.904
321.153
319.511
317.975
316.539
315.199
313.951
312.79
311.711
310.711
309.784
308.927
308.136
307.405
306.733
306.114
305.546
305.024
304.547
304.11
303.71
303.346
303.014
302.712
302.437