/*--------------------------------*- C++ -*----------------------------------*\
| =========                 |                                                 |
| \\      /  F ield         | OpenFOAM: The Open Source CFD Toolbox           |
|  \\    /   O peration     | Version:  2406                                  |
|   \\  /    A nd           | Website:  www.openfoam.com                      |
|    \\/     M anipulation  |                                                 |
\*---------------------------------------------------------------------------*/
FoamFile
{
    version     2.0;
    format      ascii;
    arch        "LSB;label=32;scalar=64";
    class       volScalarField;
    location    "85";
    object      gradTy;
}
// * * * * * * * * * * * * * * * * * * * * * * * * * * * * * * * * * * * * * //

dimensions      [0 -1 0 1 0 0 0];

internalField   nonuniform List<scalar> 
20000
(
364.469
357.127
349.604
341.929
334.13
326.232
318.259
310.235
302.177
294.108
286.046
278.006
270.004
262.053
254.169
246.362
238.644
231.024
223.51
216.112
208.835
201.688
194.675
187.802
181.072
174.489
168.056
161.776
155.649
149.679
143.865
138.208
132.708
127.365
122.179
117.148
112.271
107.547
102.974
98.5508
94.2743
90.1428
86.1536
82.3043
78.5921
75.0142
71.5677
68.2497
65.0572
61.9869
59.0358
56.2007
53.4784
50.8656
48.3593
45.9561
43.6528
41.4463
39.3334
37.3109
35.3758
33.5249
31.7553
30.0639
28.4478
26.904
25.4298
24.0224
22.6789
21.3967
20.1732
19.0058
17.8919
16.8291
15.815
14.8472
13.9234
13.0414
12.1989
11.3939
10.6242
9.88771
9.18251
8.50662
7.85812
7.23514
6.63584
6.05843
5.50114
4.96224
4.44002
3.93282
3.43899
2.9569
2.48495
2.02154
1.5651
1.11407
0.666902
0.222044
364.379
357.038
349.517
341.844
334.048
326.152
318.18
310.157
302.103
294.036
285.975
277.937
269.937
261.989
254.106
246.302
238.585
230.967
223.455
216.058
208.784
201.638
194.627
187.755
181.027
174.446
168.015
161.736
155.611
149.642
143.829
138.174
132.675
127.334
122.149
117.119
112.243
107.521
102.949
98.5265
94.2511
90.1205
86.1323
82.2839
78.5727
74.9957
71.5501
68.2329
65.0411
61.9716
59.0212
56.1868
53.4652
50.8531
48.3473
45.9447
43.642
41.4361
39.3237
37.3017
35.3671
33.5167
31.7475
30.0565
28.4407
26.8974
25.4236
24.0164
22.6733
21.3914
20.1682
19.0011
17.8875
16.825
15.8111
14.8435
13.92
13.0382
12.1959
11.3911
10.6215
9.88527
9.18025
8.50452
7.85618
7.23336
6.63421
6.05694
5.49978
4.96101
4.43893
3.93185
3.43815
2.95617
2.48434
2.02104
1.56471
1.1138
0.666738
0.221989
364.2
356.862
349.345
341.676
333.882
325.991
318.023
310.004
301.954
293.891
285.834
277.8
269.803
261.86
253.981
246.18
238.467
230.853
223.344
215.951
208.681
201.539
194.531
187.663
180.938
174.36
167.932
161.656
155.534
149.568
143.758
138.105
132.61
127.271
122.088
117.061
112.188
107.468
102.898
98.4778
94.2046
90.076
86.0898
82.2433
78.5339
74.9587
71.5148
68.1992
65.009
61.941
58.9921
56.1591
53.4388
50.828
48.3235
45.922
43.6205
41.4156
39.3043
37.2833
35.3496
33.5001
31.7318
30.0416
28.4267
26.8841
25.411
24.0046
22.6621
21.3809
20.1583
18.9917
17.8786
16.8166
15.8033
14.8362
13.9131
13.0317
12.1899
11.3855
10.6163
9.88039
9.17572
8.50033
7.85231
7.22979
6.63093
6.05395
5.49707
4.95856
4.43674
3.92991
3.43645
2.95472
2.48311
2.02004
1.56394
1.11325
0.666409
0.22188
363.93
356.599
349.086
341.423
333.635
325.749
317.788
309.775
301.73
293.673
285.622
277.594
269.604
261.666
253.793
245.998
238.291
230.681
223.179
215.791
208.526
201.39
194.387
187.524
180.804
174.231
167.807
161.536
155.419
149.457
143.652
138.003
132.512
127.177
121.998
116.974
112.105
107.388
102.822
98.4049
94.1348
90.0093
86.0261
82.1824
78.4757
74.9031
71.4618
68.1487
64.9609
61.8951
58.9484
56.1175
53.3992
50.7903
48.2877
45.888
43.5882
41.3849
39.2752
37.2557
35.3234
33.4753
31.7083
30.0194
28.4057
26.8642
25.3922
23.9868
22.6453
21.365
20.1433
18.9776
17.8654
16.8042
15.7916
14.8252
13.9028
13.0221
12.1809
11.377
10.6084
9.87307
9.16892
8.49403
7.84649
7.22443
6.62602
6.04946
5.493
4.95489
4.43345
3.92701
3.43391
2.95253
2.48127
2.01855
1.56278
1.11242
0.665916
0.221716
363.57
356.247
348.742
341.086
333.306
325.427
317.474
309.469
301.432
293.383
285.34
277.32
269.337
261.407
253.543
245.755
238.055
230.454
222.959
215.578
208.32
201.191
194.195
187.339
180.625
174.059
167.642
161.377
155.265
149.31
143.51
137.867
132.381
127.051
121.877
116.859
111.994
107.282
102.72
98.3077
94.0418
89.9204
85.9411
82.1012
78.3982
74.8292
71.3912
68.0814
64.8967
61.834
58.8902
56.0621
53.3465
50.7402
48.24
45.8427
43.5451
41.3441
39.2364
37.2189
35.2885
33.4422
31.677
29.9897
28.3776
26.8377
25.3671
23.9631
22.6229
21.3439
20.1234
18.9589
17.8478
16.7876
15.776
14.8106
13.8891
13.0092
12.1689
11.3658
10.598
9.86332
9.15987
8.48564
7.83874
7.2173
6.61948
6.04349
5.48757
4.95
4.42907
3.92313
3.43051
2.94961
2.47882
2.01655
1.56124
1.11133
0.665258
0.221497
363.12
355.806
348.311
340.664
332.894
325.025
317.082
309.087
301.06
293.021
284.988
276.977
269.005
261.084
253.229
245.451
237.761
230.169
222.683
215.312
208.063
200.942
193.955
187.107
180.402
173.844
167.434
161.177
155.074
149.125
143.333
137.697
132.217
126.894
121.727
116.714
111.856
107.149
102.593
98.1862
93.9256
89.8093
85.8349
81.9998
78.3013
74.7367
71.303
67.9973
64.8165
61.7576
58.8174
55.9928
53.2805
50.6775
48.1804
45.7861
43.4913
41.293
39.1879
37.1729
35.2449
33.4009
31.6378
29.9527
28.3425
26.8045
25.3358
23.9335
22.595
21.3176
20.0986
18.9355
17.8257
16.7669
15.7565
14.7923
13.8719
12.9932
12.1538
11.3518
10.5849
9.85114
9.14855
8.47516
7.82906
7.20838
6.6113
6.03602
5.48079
4.94388
4.4236
3.91828
3.42628
2.94597
2.47576
2.01406
1.55931
1.10995
0.664436
0.221223
362.582
355.278
347.794
340.159
332.4
324.543
316.611
308.628
300.613
292.586
284.565
276.566
268.606
260.697
252.854
245.087
237.408
229.827
222.353
214.992
207.754
200.644
193.667
186.83
180.134
173.586
167.186
160.938
154.844
148.904
143.12
137.492
132.021
126.706
121.546
116.541
111.69
106.99
102.441
98.0405
93.7863
89.6761
85.7075
81.8781
78.1852
74.6258
71.1972
67.8964
64.7203
61.666
58.7301
55.9097
53.2015
50.6023
48.1089
45.7181
43.4268
41.2317
39.1297
37.1178
35.1926
33.3514
31.5909
29.9082
28.3005
26.7647
25.2982
23.898
22.5615
21.2859
20.0688
18.9074
17.7993
16.742
15.7331
14.7703
13.8513
12.9739
12.1358
11.3349
10.5692
9.83652
9.13498
8.46259
7.81744
7.19769
6.60149
6.02707
5.47266
4.93655
4.41704
3.91247
3.42119
2.9416
2.47209
2.01108
1.557
1.10831
0.663451
0.220895
361.954
354.662
347.191
339.569
331.824
323.981
316.063
308.093
300.092
292.079
284.072
276.087
268.14
260.245
252.415
244.662
236.997
229.429
221.967
214.62
207.394
200.296
193.332
186.506
179.822
173.285
166.896
160.659
154.575
148.646
142.872
137.254
131.792
126.486
121.336
116.339
111.496
106.805
102.264
97.8707
93.6237
89.5207
85.559
81.7363
78.0497
74.4965
71.0738
67.7787
64.6082
61.5591
58.6284
55.8128
53.1093
50.5146
48.0255
45.6389
43.3515
41.1603
39.0619
37.0534
35.1317
33.2936
31.5361
29.8564
28.2515
26.7184
25.2543
23.8566
22.5224
21.2491
20.034
18.8746
17.7684
16.713
15.7059
14.7447
13.8273
12.9514
12.1148
11.3153
10.5509
9.81948
9.11915
8.44792
7.8039
7.18522
6.59006
6.01663
5.46318
4.928
4.40939
3.90569
3.41527
2.9365
2.4678
2.00759
1.5543
1.10639
0.662301
0.220512
361.236
353.959
346.503
338.896
331.166
323.338
315.436
307.482
299.497
291.5
283.509
275.54
267.609
259.729
251.915
244.177
236.527
228.974
221.527
214.195
206.983
199.899
192.949
186.136
179.466
172.941
166.566
160.341
154.269
148.351
142.589
136.982
131.531
126.235
121.095
116.109
111.275
106.593
102.061
97.6766
93.4381
89.3432
85.3894
81.5742
77.8949
74.3488
70.9329
67.6444
64.4801
61.4371
58.5121
55.7022
53.004
50.4145
47.9303
45.5484
43.2656
41.0787
38.9845
36.98
35.062
33.2276
31.4736
29.7972
28.1954
26.6654
25.2043
23.8093
22.4777
21.2069
19.9943
18.8372
17.7332
16.6798
15.6747
14.7155
13.7999
12.9257
12.0907
11.2928
10.5299
9.80002
9.10107
8.43118
7.78843
7.17098
6.57699
6.0047
5.45235
4.91823
4.40065
3.89795
3.4085
2.93068
2.46291
2.00361
1.55122
1.10419
0.660989
0.220075
360.43
353.169
345.729
338.139
330.427
322.616
314.732
306.796
298.828
290.849
282.876
274.925
267.011
259.149
251.352
243.632
235.999
228.463
221.033
213.716
206.521
199.453
192.518
185.721
179.065
172.555
166.194
159.983
153.924
148.02
142.27
136.676
131.237
125.954
120.825
115.849
111.027
106.355
101.833
97.4585
93.2295
89.1437
85.1987
81.392
77.721
74.1828
70.7745
67.4933
64.3361
61.2999
58.3815
55.5778
52.8856
50.3019
47.8233
45.4467
43.169
40.9869
38.8974
36.8974
34.9837
33.1534
31.4033
29.7307
28.1325
26.6059
25.148
23.7561
22.4275
21.1596
19.9496
18.7951
17.6936
16.6426
15.6397
14.6827
13.7691
12.8969
12.0638
11.2676
10.5064
9.77813
9.08075
8.41235
7.77104
7.15496
6.56231
5.99129
5.44018
4.90725
4.39082
3.88924
3.40089
2.92414
2.45741
1.99914
1.54776
1.10173
0.659513
0.219584
359.534
352.291
344.87
337.299
329.606
321.815
313.95
306.033
298.086
290.126
282.173
274.241
266.348
258.505
250.728
243.027
235.412
227.895
220.483
213.185
206.008
198.957
192.039
185.259
178.62
172.126
165.781
159.585
153.542
147.652
141.917
136.336
130.911
125.641
120.524
115.561
110.751
106.091
101.58
97.2163
92.9978
88.9222
84.987
81.1898
77.5279
73.9984
70.5987
67.3256
64.1763
61.1476
58.2364
55.4397
52.7542
50.1769
47.7045
45.3338
43.0617
40.8851
38.8008
36.8057
34.8968
33.071
31.3253
29.6568
28.0626
26.5397
25.0855
23.6971
22.3718
21.107
19.9001
18.7484
17.6496
16.6012
15.6009
14.6462
13.7349
12.8648
12.0338
11.2396
10.4803
9.75384
9.05819
8.39145
7.75173
7.13719
6.546
5.97641
5.42666
4.89505
4.37991
3.87958
3.39244
2.91687
2.45131
1.99417
1.54391
1.09899
0.657874
0.219038
358.55
351.327
343.926
336.376
328.703
320.934
313.09
305.196
297.27
289.332
281.4
273.491
265.618
257.798
250.041
242.361
234.768
227.271
219.88
212.602
205.444
198.413
191.514
184.752
178.131
171.655
165.327
159.148
153.121
147.248
141.528
135.963
130.553
125.297
120.194
115.245
110.448
105.8
101.302
96.9502
92.7432
88.6787
84.7543
80.9675
77.3156
73.7958
70.4054
67.1413
64.0006
60.9801
58.077
55.2879
52.6098
50.0395
47.5739
45.2097
42.9438
40.7732
38.6946
36.7049
34.8013
32.9805
31.2396
29.5756
27.9857
26.4671
25.0168
23.6322
22.3106
21.0492
19.8456
18.6971
17.6013
16.5558
15.5582
14.6061
13.6973
12.8296
12.0008
11.2089
10.4516
9.72714
9.03339
8.36848
7.73051
7.11765
6.52808
5.96005
5.4118
4.88165
4.36792
3.86896
3.38315
2.90889
2.4446
1.98871
1.53969
1.09598
0.656073
0.218439
357.477
350.276
342.897
335.369
327.72
319.973
312.154
304.282
296.38
288.466
280.558
272.672
264.824
257.026
249.293
241.636
234.066
226.591
219.222
211.965
204.829
197.819
190.941
184.199
177.598
171.142
164.832
158.672
152.663
146.807
141.105
135.556
130.162
124.922
119.835
114.9
110.117
105.484
100.999
96.6601
92.4657
88.4134
84.5007
80.7253
77.0843
73.575
70.1947
66.9404
63.8091
60.7977
57.9032
55.1225
52.4524
49.8898
47.4315
45.0744
42.8153
40.6512
38.5788
36.5951
34.6971
32.8818
31.1461
29.4871
27.902
26.3879
24.942
23.5615
22.2438
20.9862
19.7862
18.6412
17.5487
16.5063
15.5116
14.5624
13.6563
12.7912
11.9649
11.1753
10.4204
9.69803
9.00637
8.34344
7.70738
7.09635
6.50855
5.94222
5.39561
4.86705
4.35485
3.85739
3.37303
2.90019
2.43728
1.98276
1.53508
1.0927
0.654111
0.217785
356.316
349.138
341.783
334.28
326.655
318.934
311.14
303.294
295.418
287.529
279.647
271.787
263.963
256.192
248.484
240.851
233.305
225.855
218.51
211.277
204.164
197.176
190.321
183.601
177.021
170.586
164.297
158.157
152.167
146.33
140.646
135.116
129.739
124.516
119.446
114.527
109.759
105.141
100.671
96.3462
92.1654
88.1262
84.2263
80.4631
76.8339
73.3361
69.9667
66.723
63.6018
60.6002
57.7151
54.9435
52.282
49.7278
47.2775
44.928
42.6763
40.5191
38.4535
36.4763
34.5844
32.775
31.0449
29.3914
27.8114
26.3022
24.861
23.485
22.1716
20.9181
19.7219
18.5806
17.4917
16.4527
15.4612
14.5151
13.612
12.7497
11.9261
11.139
10.3865
9.66654
8.97712
8.31635
7.68235
7.07331
6.48742
5.92292
5.37809
4.85124
4.34071
3.84486
3.36207
2.89077
2.42937
1.97632
1.53009
1.08916
0.651986
0.217078
355.067
347.914
340.585
333.108
325.51
317.816
310.049
302.231
294.382
286.522
278.667
270.834
263.038
255.294
247.613
240.007
232.488
225.064
217.744
210.537
203.448
196.485
189.654
182.957
176.401
169.988
163.721
157.602
151.634
145.818
140.153
134.642
129.285
124.08
119.027
114.126
109.375
104.773
100.318
96.0085
91.8423
87.8173
83.9311
80.181
76.5646
73.079
69.7215
66.4891
63.3789
60.3878
57.5128
54.7509
52.0988
49.5535
47.1118
44.7705
42.5267
40.3771
38.3187
36.3484
34.4632
32.6601
30.9361
29.2884
27.7139
26.21
24.7738
23.4027
22.0939
20.8448
19.6528
18.5155
17.4304
16.395
15.407
14.4642
13.5643
12.705
11.8843
11.1
10.3501
9.63266
8.94565
8.2872
7.65543
7.04852
6.46468
5.90216
5.35924
4.83424
4.3255
3.83138
3.35029
2.88064
2.42085
1.9694
1.52473
1.08534
0.649701
0.216317
353.731
346.605
339.303
331.855
324.285
316.62
308.882
301.093
293.274
285.443
277.618
269.815
262.048
254.333
246.681
239.104
231.613
224.217
216.924
209.744
202.682
195.746
188.94
182.269
175.737
169.348
163.105
157.009
151.063
145.269
139.626
134.136
128.798
123.612
118.579
113.696
108.963
104.378
99.9403
95.6471
91.4966
87.4868
83.6151
79.8792
76.2764
72.804
69.4591
66.2388
63.1403
60.1605
57.2964
54.5448
51.9027
49.3669
46.9344
44.602
42.3666
40.2251
38.1745
36.2116
34.3335
32.5372
30.8197
29.1781
27.6096
26.1114
24.6806
23.3146
22.0107
20.7663
19.5788
18.4458
17.3648
16.3333
15.3491
14.4098
13.5132
12.6572
11.8395
11.0582
10.3112
9.5964
8.91198
8.25601
7.62661
7.02199
6.44035
5.87995
5.33907
4.81605
4.30922
3.81696
3.33768
2.86979
2.41174
1.96198
1.51899
1.08125
0.647256
0.215503
352.307
345.209
337.937
330.519
322.98
315.346
307.639
299.882
292.094
284.294
276.5
268.729
260.993
253.309
245.688
238.141
230.68
223.314
216.051
208.9
201.867
194.958
188.179
181.535
175.03
168.666
162.448
156.377
150.455
144.684
139.064
133.596
128.279
123.115
118.102
113.238
108.524
103.958
99.538
95.2621
91.1283
87.1346
83.2786
79.5577
75.9694
72.5109
69.1795
65.9722
62.8862
59.9184
57.0657
54.3252
51.6938
49.1682
46.7455
44.4225
42.1961
40.0632
38.0208
36.0659
34.1953
32.4062
30.6956
29.0607
27.4985
26.0063
24.5812
23.2208
21.9221
20.6827
19.5
18.3716
17.2949
16.2675
15.2873
14.3518
13.4588
12.6062
11.7919
11.0137
10.2697
9.55778
8.87611
8.22278
7.59592
6.99373
6.41443
5.85628
5.31758
4.79666
4.29188
3.8016
3.32425
2.85824
2.40204
1.95409
1.51288
1.0769
0.644651
0.214636
350.796
343.729
336.488
329.101
321.595
313.993
306.32
298.596
290.841
283.075
275.315
267.576
259.874
252.223
244.634
237.12
229.691
222.356
215.125
208.004
201.001
194.122
187.372
180.757
174.279
167.943
161.752
155.707
149.81
144.064
138.468
133.023
127.729
122.587
117.595
112.753
108.059
103.512
99.1112
94.8536
90.7376
86.761
82.9215
79.2166
75.6436
72.2
68.8828
65.6893
62.6165
59.6614
56.821
54.0923
51.4721
48.9574
46.5451
44.232
42.0152
39.8914
37.8578
35.9112
34.0487
32.2672
30.564
28.9361
27.3806
25.8947
24.4758
23.1212
21.8281
20.594
19.4164
18.2928
17.2207
16.1978
15.2217
14.2902
13.4011
12.5522
11.7413
10.9665
10.2256
9.5168
8.83805
8.18752
7.56335
6.96374
6.38692
5.83117
5.29478
4.7761
4.27347
3.7853
3.30999
2.84599
2.39174
1.94571
1.50639
1.07228
0.641887
0.213715
349.199
342.164
334.956
327.603
320.131
312.564
304.925
297.236
289.517
281.786
274.061
266.358
258.691
251.074
243.52
236.04
228.645
221.344
214.145
207.057
200.086
193.238
186.519
179.934
173.486
167.178
161.015
154.998
149.128
143.408
137.837
132.417
127.148
122.029
117.06
112.239
107.567
103.041
98.6599
94.4217
90.3244
86.3659
82.5439
78.8559
75.2992
71.8712
68.5692
65.3902
62.3314
59.3898
56.5623
53.846
51.2377
48.7345
46.3331
44.0306
41.8238
39.7098
37.6854
35.7477
33.8936
32.1203
30.4248
28.8043
27.2559
25.7768
24.3644
23.0159
21.7287
20.5003
19.328
18.2095
17.1423
16.124
15.1524
14.2252
13.3401
12.495
11.6879
10.9165
10.1791
9.47347
8.79782
8.15024
7.52891
6.93203
6.35784
5.80462
5.27068
4.75435
4.25402
3.76807
3.29492
2.83303
2.38085
1.93685
1.49953
1.0674
0.638965
0.212742
347.515
340.515
333.341
326.024
318.587
311.057
303.455
295.803
288.121
280.428
272.74
265.074
257.444
249.864
242.346
234.903
227.543
220.277
213.113
206.059
199.121
192.306
185.62
179.066
172.649
166.372
160.239
154.25
148.409
142.716
137.173
131.779
126.535
121.441
116.495
111.698
107.048
102.544
98.1843
93.9665
89.889
85.9496
82.146
78.4757
74.9362
71.5247
68.2386
65.075
62.0309
59.1035
56.2896
53.5864
50.9907
48.4995
46.1098
43.8183
41.6222
39.5184
37.5037
35.5754
33.7303
31.9655
30.2782
28.6654
27.1245
25.6526
24.2469
22.905
21.624
20.4014
19.2348
18.1217
17.0597
16.0463
15.0794
14.1566
13.2758
12.4348
11.6315
10.8639
10.13
9.4278
8.7554
8.11095
7.49262
6.89862
6.32719
5.77664
5.24527
4.73143
4.23351
3.7499
3.27904
2.81937
2.36937
1.92751
1.49231
1.06226
0.635884
0.211717
345.746
338.781
331.644
324.364
316.965
309.473
301.91
294.297
286.654
279
271.351
263.724
256.133
248.592
241.113
233.707
226.385
219.156
212.028
205.01
198.108
191.327
184.675
178.155
171.77
165.525
159.423
153.465
147.654
141.99
136.474
131.108
125.891
120.822
115.902
111.13
106.504
102.022
97.6844
93.4881
89.4314
85.512
81.7278
78.0762
74.5547
71.1606
67.8912
64.7437
61.7151
58.8026
56.0031
53.3136
50.7311
48.2526
45.875
43.5953
41.4103
39.3172
37.3128
35.3942
33.5585
31.8028
30.124
28.5195
26.9864
25.522
24.1235
22.7883
21.5139
20.2976
19.1369
18.0295
16.9728
15.9646
15.0026
14.0845
13.2082
12.3715
11.5723
10.8086
10.0784
9.3798
8.71083
8.06966
7.45448
6.8635
6.29498
5.74723
5.21857
4.70735
4.21196
3.73081
3.26235
2.80502
2.35731
1.9177
1.48471
1.05685
0.632647
0.210639
343.892
336.964
329.866
322.624
315.265
307.813
300.291
292.719
285.117
277.504
269.896
262.31
254.759
247.258
239.819
232.453
225.17
217.98
210.891
203.91
197.045
190.301
183.684
177.199
170.849
164.638
158.568
152.642
146.862
141.228
135.742
130.405
125.215
120.174
115.281
110.534
105.932
101.475
97.1605
92.9867
88.9517
85.0534
81.2894
77.6574
74.1548
70.7789
67.5271
64.3964
61.3841
58.4872
55.7027
53.0276
50.459
47.9938
45.629
43.3614
41.1882
39.1063
37.1127
35.2044
33.3785
31.6322
29.9625
28.3665
26.8417
25.3851
23.9941
22.6661
21.3985
20.1887
19.0343
17.9328
16.8818
15.879
14.9221
14.009
13.1374
12.3051
11.5102
10.7506
10.0244
9.3295
8.66411
8.02638
7.4145
6.82669
6.26122
5.71641
5.19058
4.6821
4.18937
3.7108
3.24485
2.78998
2.34467
1.90742
1.47675
1.05118
0.629254
0.209509
341.952
335.064
328.005
320.805
313.487
306.077
298.597
291.068
283.509
275.939
268.374
260.831
253.323
245.864
238.467
231.142
223.901
216.751
209.701
202.76
195.934
189.228
182.648
176.2
169.885
163.709
157.674
151.781
146.033
140.432
134.977
129.669
124.509
119.497
114.63
109.91
105.335
100.903
96.6125
92.4623
88.45
84.5737
80.831
77.2195
73.7366
70.3798
67.1463
64.0333
61.0379
58.1573
55.3886
52.7286
50.1745
47.7232
45.3716
43.1169
40.9559
38.8858
36.9034
35.0059
33.1903
31.4538
29.7935
28.2066
26.6903
25.2419
23.8588
22.5383
21.2778
20.0749
18.9269
17.8316
16.7866
15.7895
14.838
13.93
13.0633
12.2357
11.4453
10.69
9.96785
9.27689
8.61526
7.98112
7.37269
6.78819
6.22592
5.68417
5.16131
4.6557
4.16574
3.68988
3.22655
2.77425
2.33144
1.89666
1.46842
1.04525
0.625706
0.208328
339.929
333.081
326.064
318.906
311.632
304.266
296.83
289.345
281.831
274.306
266.786
259.287
251.824
244.409
237.056
229.774
222.575
215.468
208.46
201.56
194.774
188.108
181.568
175.157
168.88
162.74
156.741
150.883
145.169
139.6
134.178
128.902
123.772
118.789
113.952
109.26
104.711
100.306
96.0408
91.9151
87.9266
84.0732
80.3526
76.7625
73.3002
69.9633
66.7489
63.6543
60.6767
57.8132
55.0608
52.4165
49.8775
47.4407
45.1031
42.8617
40.7136
38.6556
36.685
34.7987
32.9939
31.2676
29.6172
28.0397
26.5323
25.0926
23.7176
22.4049
21.1519
19.9561
18.8149
17.7261
16.6872
15.696
14.7502
13.8476
12.986
12.1633
11.3776
10.6268
9.90886
9.22199
8.56427
7.93389
7.32906
6.74802
6.18907
5.65054
5.13076
4.62815
4.14109
3.66804
3.20746
2.75783
2.31765
1.88544
1.45973
1.03907
0.622003
0.207095
337.821
331.016
324.043
316.929
309.7
302.38
294.99
287.551
280.084
272.605
265.132
257.679
250.262
242.894
235.586
228.35
221.195
214.132
207.168
200.311
193.567
186.942
180.442
174.071
167.833
161.731
155.769
149.947
144.269
138.735
133.346
128.103
123.005
118.053
113.246
108.582
104.062
99.6837
95.4453
91.3452
87.3814
83.5519
79.8544
76.2865
72.8458
69.5295
66.335
63.2596
60.3005
57.4547
54.7194
52.0916
49.5683
47.1466
44.8235
42.596
40.4611
38.416
36.4575
34.583
32.7893
31.0738
29.4335
27.8658
26.3679
24.937
23.5706
22.266
21.0208
19.8323
18.6983
17.6162
16.5838
15.5987
14.6587
13.7617
12.9055
12.0879
11.3071
10.5609
9.84743
9.16482
8.51118
7.8847
7.28362
6.70618
6.1507
5.6155
5.09896
4.59945
4.11542
3.6453
3.18758
2.74073
2.30328
1.87375
1.45068
1.03263
0.618147
0.205811
335.63
328.869
321.941
314.873
307.691
300.418
293.077
285.686
278.267
270.837
263.412
256.008
248.639
241.318
234.058
226.869
219.761
212.743
205.824
199.011
192.311
185.729
179.272
172.942
166.744
160.682
154.759
148.975
143.333
137.835
132.481
127.272
122.207
117.287
112.511
107.878
103.387
99.0372
94.8263
90.7528
86.8147
83.01
79.3365
75.7918
72.3733
69.0786
65.9048
62.8494
59.9094
57.0821
54.3645
51.7537
49.2468
46.8408
44.5328
42.3197
40.1987
38.1668
36.2211
34.3587
32.5767
30.8723
29.2427
27.6851
26.1968
24.7753
23.4177
22.1216
20.8844
19.7037
18.577
17.502
16.4762
15.4975
14.5637
13.6725
12.8218
12.0095
11.2337
10.4924
9.78357
9.10538
8.45598
7.83357
7.23638
6.66269
6.11081
5.57909
5.06589
4.56963
4.08873
3.62166
3.1669
2.72296
2.28834
1.8616
1.44127
1.02593
0.614138
0.204476
333.356
326.641
319.76
312.74
305.607
298.383
291.091
283.751
276.382
269.002
261.628
254.274
246.955
239.684
232.472
225.332
218.272
211.302
204.43
197.663
191.008
184.471
178.057
171.77
165.615
159.594
153.71
147.966
142.362
136.901
131.584
126.41
121.379
116.493
111.749
107.147
102.687
98.3663
94.1839
90.1379
86.2266
82.4477
78.7991
75.2783
71.883
68.6106
65.4583
62.4236
59.5036
56.6954
53.9962
51.4031
48.9132
46.5235
44.2311
42.033
39.9264
37.9083
35.9757
34.1259
32.356
30.6631
29.0446
27.4975
26.0194
24.6074
23.2591
21.9718
20.743
19.5702
18.4512
17.3834
16.3646
15.3926
14.465
13.5798
12.7349
11.9282
11.1576
10.4213
9.71729
9.0437
8.3987
7.7805
7.18736
6.61756
6.06942
5.54129
5.03157
4.53867
4.06103
3.59713
3.14545
2.70451
2.27284
1.84899
1.43151
1.01898
0.609978
0.203091
331
324.332
317.5
310.53
303.447
296.274
289.034
281.746
274.429
267.101
259.779
252.477
245.209
237.99
230.829
223.739
216.729
209.809
202.985
196.266
189.658
183.167
176.799
170.556
164.444
158.466
152.624
146.92
141.356
135.934
130.654
125.516
120.521
115.669
110.959
106.39
101.961
97.6711
93.5182
89.5009
85.6172
81.865
78.2421
74.7463
71.375
68.1257
64.9957
61.9824
59.083
56.2947
53.6146
51.0398
48.5675
46.1947
43.9185
41.736
39.6442
37.6404
35.7215
33.8847
32.1273
30.4464
28.8393
27.3032
25.8355
24.4335
23.0947
21.8165
20.5964
19.4319
18.3208
17.2605
16.249
15.2838
14.3628
13.4839
12.6449
11.8439
11.0788
10.3477
9.64862
8.97979
8.33935
7.72552
7.13657
6.57079
6.02653
5.50213
4.99601
4.5066
4.03233
3.57171
3.12322
2.6854
2.25678
1.83592
1.42139
1.01178
0.605668
0.201656
328.563
321.944
315.162
308.243
301.212
294.093
286.905
279.671
272.408
265.134
257.865
250.617
243.404
236.237
229.129
222.092
215.133
208.264
201.49
194.821
188.262
181.819
175.497
169.3
163.233
157.299
151.5
145.838
140.315
134.933
129.691
124.592
119.634
114.817
110.142
105.607
101.21
96.9518
92.8295
88.8418
84.9866
81.2621
77.6659
74.1958
70.8493
67.624
64.5171
61.526
58.6479
55.8801
53.2197
50.6639
48.2098
45.8545
43.5951
41.4286
39.3523
37.3632
35.4584
33.6352
31.8907
30.2222
28.6269
27.1021
25.6452
24.2536
22.9246
21.6558
20.4447
19.2888
18.1859
17.1334
16.1293
15.1712
14.257
13.3846
12.5518
11.7567
10.9972
10.2715
9.57757
8.91366
8.27793
7.66863
7.08402
6.52241
5.98215
5.46162
4.95922
4.47341
4.00264
3.54541
3.10022
2.66562
2.24016
1.8224
1.41093
1.00433
0.601207
0.200171
326.044
319.476
312.746
305.88
298.903
291.838
284.706
277.527
270.319
263.101
255.889
248.696
241.538
234.426
227.373
220.389
213.484
206.667
199.946
193.327
186.818
180.425
174.151
168.002
161.982
156.093
150.338
144.72
139.24
133.898
128.697
123.637
118.717
113.937
109.298
104.797
100.434
96.2086
92.1179
88.1607
84.3351
80.6391
77.0705
73.627
70.3062
67.1056
64.0225
61.0543
58.1983
55.4517
52.8118
50.2756
47.8403
45.503
43.2609
41.111
39.0506
37.0767
35.1866
33.3774
31.6462
29.9905
28.4075
26.8944
25.4486
24.0677
22.7489
21.4898
20.288
19.141
18.0464
17.0021
16.0057
15.0549
14.1477
13.282
12.4556
11.6665
10.9129
10.1927
9.50415
8.84533
8.21448
7.60984
7.02971
6.47241
5.93629
5.41975
4.92121
4.43912
3.97196
3.51823
3.07646
2.64519
2.22299
1.80843
1.40011
0.996629
0.596599
0.198637
323.445
316.929
310.253
303.442
296.52
289.512
282.436
275.314
268.164
261.004
253.849
246.714
239.612
232.557
225.56
218.632
211.782
205.02
198.352
191.786
185.329
178.986
172.763
166.663
160.691
154.849
149.14
143.566
138.13
132.831
127.671
122.651
117.77
113.029
108.426
103.962
99.6338
95.4416
91.3835
87.4579
83.6628
79.9963
76.4562
73.0401
69.7457
66.5706
63.5121
60.5676
57.7344
55.0097
52.3908
49.8748
47.4589
45.1403
42.916
40.7833
38.7393
36.7812
34.9061
33.1113
31.394
29.7514
28.181
26.68
25.2458
23.8758
22.5675
21.3185
20.1262
18.9884
17.9026
16.8666
15.8781
14.9349
14.0349
13.1761
12.3563
11.5735
10.8259
10.1115
9.42839
8.77482
8.149
7.54918
6.97368
6.42081
5.88897
5.37655
4.88198
4.40373
3.9403
3.49018
3.05194
2.6241
2.20527
1.79402
1.38895
0.988685
0.591843
0.197053
320.766
314.304
307.683
300.928
294.064
287.114
280.097
273.034
265.943
258.842
251.746
244.67
237.627
230.631
223.692
216.821
210.028
203.321
196.709
190.198
183.794
177.504
171.332
165.283
159.36
153.566
147.905
142.377
136.985
131.731
126.614
121.635
116.795
112.093
107.528
103.101
98.8085
94.6511
90.6266
86.7335
82.9699
79.3337
75.8229
72.4351
69.1681
66.0192
62.9861
60.0659
57.2562
54.5541
51.9568
49.4617
47.0658
44.7664
42.5606
40.4455
38.4184
36.4765
34.617
32.837
31.134
29.505
27.9476
26.459
25.0367
23.678
22.3806
21.1419
19.9595
18.8311
17.7543
16.7269
15.7466
14.8112
13.9187
13.067
12.2539
11.4777
10.7362
10.0277
9.3503
8.70214
8.0815
7.48666
6.91592
6.36764
5.8402
5.33202
4.84155
4.36726
3.90766
3.46128
3.02666
2.60237
2.187
1.77916
1.37745
0.980496
0.586941
0.195421
318.008
311.601
305.037
298.341
291.536
284.645
277.688
270.686
263.657
256.616
249.581
242.566
235.584
228.648
221.769
214.957
208.222
201.573
195.017
188.562
182.214
175.978
169.859
163.862
157.989
152.246
146.633
141.153
135.808
130.598
125.525
120.589
115.791
111.129
106.604
102.214
97.9589
93.8372
89.8474
85.9877
82.2565
78.6516
75.1709
71.8123
68.5733
65.4516
62.4445
59.5495
56.7639
54.085
51.5101
49.0364
46.6611
44.3815
42.1946
40.0977
38.0881
36.1629
34.3193
32.5547
30.8662
29.2513
27.7073
26.2315
24.8214
23.4745
22.1882
20.9601
19.7879
18.6692
17.6017
16.583
15.6112
14.6839
13.799
12.9546
12.1486
11.379
10.6439
9.94151
9.2699
8.62732
8.01202
7.42229
6.85645
6.31289
5.78998
5.28617
4.79992
4.32971
3.87406
3.43152
3.00063
2.58
2.1682
1.76386
1.3656
0.972066
0.581895
0.193741
315.171
308.822
302.316
295.68
288.935
282.106
275.211
268.272
261.305
254.327
247.355
240.403
233.483
226.608
219.79
213.04
206.365
199.775
193.278
186.88
180.588
174.408
168.344
162.4
156.58
150.888
145.325
139.894
134.596
129.433
124.405
119.514
114.758
110.138
105.653
101.302
97.0852
93.0002
89.0459
85.2207
81.5227
77.95
74.5004
71.1717
67.9617
64.8677
61.8875
59.0183
56.2575
53.6026
51.0506
48.599
46.2449
43.9856
41.8182
39.7401
37.7484
35.8403
34.0132
32.2643
30.5909
28.9904
27.4601
25.9975
24.6
23.2651
21.9903
20.7732
19.6114
18.5027
17.4447
16.4351
15.4719
14.5529
13.6759
12.8391
12.0402
11.2775
10.549
9.85284
9.18722
8.55037
7.94056
7.35608
6.7953
6.25658
5.73834
5.23902
4.7571
4.29109
3.83951
3.40091
2.97387
2.55698
2.14886
1.74813
1.35342
0.963396
0.576705
0.192013
312.257
305.966
299.521
292.946
286.264
279.497
272.667
265.791
258.889
251.976
245.068
238.18
231.324
224.513
217.758
211.07
204.457
197.928
191.491
185.152
178.919
172.795
166.787
160.898
155.132
149.492
143.981
138.6
133.352
128.236
123.255
118.409
113.697
109.119
104.676
100.366
96.1874
92.1402
88.2225
84.4327
80.7689
77.2292
73.8115
70.5136
67.3332
64.2679
61.3152
58.4725
55.7373
53.1069
50.5786
48.1496
45.8173
43.5788
41.4315
39.3726
37.3993
35.5089
33.6987
31.966
30.3081
28.7223
27.2062
25.7571
24.3725
23.0499
21.7869
20.5811
19.4301
18.3316
17.2833
16.2832
15.3289
14.4183
13.5495
12.7203
11.9289
11.1732
10.4514
9.76173
9.10227
8.47131
7.86713
7.28806
6.73246
6.19873
5.68528
5.19058
4.71312
4.25141
3.80401
3.36946
2.94637
2.53334
2.12899
1.73196
1.34091
0.954488
0.571372
0.190237
309.265
303.035
296.651
290.139
283.521
276.82
270.054
263.245
256.408
249.562
242.72
235.898
229.108
222.362
215.672
209.048
202.498
196.032
189.656
183.378
177.204
171.14
165.189
159.357
153.646
148.06
142.602
137.272
132.074
127.008
122.074
117.274
112.607
108.074
103.673
99.404
95.2659
91.2575
87.3774
83.6238
79.9951
76.4894
73.1044
69.8381
66.6882
63.6522
60.7278
57.9124
55.2034
52.5981
50.094
47.6883
45.3784
43.1614
41.0346
38.9954
37.041
35.1687
33.3759
31.6597
30.0177
28.4472
26.9456
25.5104
24.139
22.8291
21.5782
20.3839
19.2439
18.156
17.1178
16.1272
15.182
14.2802
13.4197
12.5985
11.8146
11.0662
10.3513
9.66822
9.01507
8.39016
7.79177
7.21825
6.66797
6.13935
5.63082
5.14086
4.66797
4.21069
3.76757
3.33719
2.91815
2.50907
2.1086
1.71537
1.32806
0.945344
0.565899
0.188415
306.198
300.029
293.709
287.261
280.709
274.074
267.376
260.634
253.865
247.086
240.313
233.558
226.835
220.156
213.533
206.974
200.489
194.087
187.775
181.559
175.447
169.442
163.551
157.776
152.122
146.592
141.187
135.911
130.764
125.748
120.863
116.111
111.49
107.002
102.645
98.418
94.321
90.3523
86.5107
82.7944
79.2016
75.7306
72.3793
69.1454
66.0267
63.0208
60.1254
57.3379
54.6558
52.0764
49.5971
47.2153
44.9282
42.7332
40.6276
38.6086
36.6736
34.8199
33.0448
31.3457
29.72
28.165
26.6783
25.2573
23.8996
22.6027
21.3642
20.1817
19.0531
17.9759
16.948
15.9672
15.0314
14.1386
13.2866
12.4735
11.6974
10.9564