/*--------------------------------*- C++ -*----------------------------------*\
| =========                 |                                                 |
| \\      /  F ield         | OpenFOAM: The Open Source CFD Toolbox           |
|  \\    /   O peration     | Version:  2406                                  |
|   \\  /    A nd           | Website:  www.openfoam.com                      |
|    \\/     M anipulation  |                                                 |
\*---------------------------------------------------------------------------*/
FoamFile
{
    version     2.0;
    format      ascii;
    arch        "LSB;label=32;scalar=64";
    class       volVectorField;
    location    "95";
    object      flux;
}
// * * * * * * * * * * * * * * * * * * * * * * * * * * * * * * * * * * * * * //

dimensions      [0 1 -1 1 0 0 0];

internalField   nonuniform List<vector> 
20000
(
(-0.00038247 0.0852527 0)
(-0.000444484 0.0844229 0)
(-0.000500971 0.0834749 0)
(-0.000552208 0.0824191 0)
(-0.000598424 0.0812662 0)
(-0.000639762 0.0800257 0)
(-0.000676492 0.0787073 0)
(-0.000709263 0.0773196 0)
(-0.000737983 0.0758704 0)
(-0.000762607 0.0743681 0)
(-0.000783729 0.0728202 0)
(-0.000801663 0.0712332 0)
(-0.000816448 0.0696137 0)
(-0.000828189 0.0679677 0)
(-0.000837117 0.0663012 0)
(-0.000843488 0.0646194 0)
(-0.000847505 0.0629274 0)
(-0.000849324 0.0612296 0)
(-0.000849082 0.0595303 0)
(-0.000846918 0.0578335 0)
(-0.00084298 0.0561428 0)
(-0.000837418 0.0544618 0)
(-0.000830376 0.0527934 0)
(-0.000821989 0.0511405 0)
(-0.000812383 0.0495056 0)
(-0.000801674 0.0478912 0)
(-0.000789971 0.0462991 0)
(-0.000777377 0.0447315 0)
(-0.00076399 0.0431898 0)
(-0.000749903 0.0416757 0)
(-0.000735202 0.0401904 0)
(-0.000719971 0.0387351 0)
(-0.000704288 0.0373107 0)
(-0.000688225 0.0359181 0)
(-0.000671851 0.0345579 0)
(-0.000655231 0.0332308 0)
(-0.000638423 0.0319372 0)
(-0.000621484 0.0306773 0)
(-0.000604465 0.0294514 0)
(-0.000587415 0.0282596 0)
(-0.000570376 0.0271019 0)
(-0.00055339 0.0259782 0)
(-0.000536495 0.0248885 0)
(-0.000519725 0.0238324 0)
(-0.000503111 0.0228097 0)
(-0.000486683 0.0218201 0)
(-0.000470464 0.0208631 0)
(-0.000454481 0.0199383 0)
(-0.000438752 0.0190453 0)
(-0.000423297 0.0181834 0)
(-0.000408133 0.0173522 0)
(-0.000393274 0.016551 0)
(-0.000378734 0.0157792 0)
(-0.000364522 0.0150361 0)
(-0.000350649 0.0143212 0)
(-0.000337121 0.0136336 0)
(-0.000323947 0.0129728 0)
(-0.000311131 0.0123379 0)
(-0.000298676 0.0117283 0)
(-0.000286585 0.0111433 0)
(-0.000274861 0.0105821 0)
(-0.000263505 0.0100439 0)
(-0.000252515 0.00952812 0)
(-0.000241891 0.00903393 0)
(-0.000231632 0.00856061 0)
(-0.000221735 0.00810746 0)
(-0.000212197 0.00767373 0)
(-0.000203016 0.00725872 0)
(-0.000194188 0.00686171 0)
(-0.000185708 0.00648201 0)
(-0.000177572 0.00611893 0)
(-0.000169775 0.00577177 0)
(-0.000162312 0.00543987 0)
(-0.000155179 0.00512256 0)
(-0.000148369 0.00481919 0)
(-0.000141878 0.00452912 0)
(-0.000135699 0.00425172 0)
(-0.000129828 0.00398636 0)
(-0.000124259 0.00373244 0)
(-0.000118986 0.00348935 0)
(-0.000114004 0.00325652 0)
(-0.000109308 0.00303337 0)
(-0.000104892 0.00281932 0)
(-0.000100752 0.00261382 0)
(-9.68826e-05 0.00241634 0)
(-9.32793e-05 0.00222632 0)
(-8.99374e-05 0.00204324 0)
(-8.68529e-05 0.00186659 0)
(-8.40217e-05 0.00169585 0)
(-8.14401e-05 0.00153052 0)
(-7.91045e-05 0.00137011 0)
(-7.70118e-05 0.00121413 0)
(-7.51591e-05 0.00106208 0)
(-7.35438e-05 0.000913508 0)
(-7.21636e-05 0.000767927 0)
(-7.10164e-05 0.000624872 0)
(-7.01007e-05 0.000483879 0)
(-6.94151e-05 0.000344486 0)
(-6.89586e-05 0.000206236 0)
(-6.87304e-05 6.86692e-05 0)
(-0.00114732 0.0852317 0)
(-0.00133334 0.0844019 0)
(-0.00150282 0.0834541 0)
(-0.00165647 0.0823987 0)
(-0.00179493 0.0812461 0)
(-0.00191916 0.0800061 0)
(-0.00202962 0.0786878 0)
(-0.00212759 0.0773003 0)
(-0.00221353 0.0758517 0)
(-0.00228762 0.0743499 0)
(-0.00235113 0.0728022 0)
(-0.00240486 0.0712156 0)
(-0.0024491 0.0695964 0)
(-0.0024843 0.0679509 0)
(-0.00251112 0.0662848 0)
(-0.00253027 0.0646035 0)
(-0.00254233 0.0629119 0)
(-0.00254778 0.0612145 0)
(-0.00254704 0.0595156 0)
(-0.00254054 0.0578192 0)
(-0.00252872 0.056129 0)
(-0.00251204 0.0544483 0)
(-0.00249092 0.0527804 0)
(-0.00246577 0.0511279 0)
(-0.00243695 0.0494934 0)
(-0.00240483 0.0478793 0)
(-0.00236972 0.0462877 0)
(-0.00233194 0.0447204 0)
(-0.00229178 0.0431792 0)
(-0.00224952 0.0416654 0)
(-0.00220543 0.0401805 0)
(-0.00215974 0.0387255 0)
(-0.00211269 0.0373015 0)
(-0.00206451 0.0359092 0)
(-0.00201539 0.0345494 0)
(-0.00196553 0.0332226 0)
(-0.00191511 0.0319293 0)
(-0.0018643 0.0306697 0)
(-0.00181325 0.0294441 0)
(-0.0017621 0.0282526 0)
(-0.00171099 0.0270952 0)
(-0.00166003 0.0259718 0)
(-0.00160935 0.0248823 0)
(-0.00155905 0.0238265 0)
(-0.00150921 0.0228041 0)
(-0.00145993 0.0218147 0)
(-0.00141128 0.0208579 0)
(-0.00136333 0.0199334 0)
(-0.00131615 0.0190406 0)
(-0.00126979 0.0181789 0)
(-0.0012243 0.0173479 0)
(-0.00117973 0.0165469 0)
(-0.00113611 0.0157753 0)
(-0.00109348 0.0150324 0)
(-0.00105186 0.0143177 0)
(-0.00101128 0.0136303 0)
(-0.000971761 0.0129696 0)
(-0.000933315 0.0123349 0)
(-0.000895953 0.0117254 0)
(-0.000859686 0.0111405 0)
(-0.000824517 0.0105795 0)
(-0.000790449 0.0100414 0)
(-0.000757481 0.00952577 0)
(-0.000725613 0.0090317 0)
(-0.000694838 0.0085585 0)
(-0.000665149 0.00810546 0)
(-0.00063654 0.00767184 0)
(-0.000608999 0.00725693 0)
(-0.000582516 0.00686002 0)
(-0.000557078 0.00648042 0)
(-0.000532672 0.00611742 0)
(-0.000509283 0.00577035 0)
(-0.000486897 0.00543853 0)
(-0.000465498 0.0051213 0)
(-0.000445071 0.004818 0)
(-0.000425598 0.004528 0)
(-0.000407064 0.00425067 0)
(-0.000389452 0.00398537 0)
(-0.000372745 0.00373152 0)
(-0.000356928 0.00348849 0)
(-0.000341983 0.00325572 0)
(-0.000327896 0.00303262 0)
(-0.00031465 0.00281862 0)
(-0.000302231 0.00261318 0)
(-0.000290624 0.00241574 0)
(-0.000279815 0.00222577 0)
(-0.00026979 0.00204274 0)
(-0.000260537 0.00186613 0)
(-0.000252044 0.00169543 0)
(-0.0002443 0.00153015 0)
(-0.000237294 0.00136977 0)
(-0.000231016 0.00121383 0)
(-0.000225459 0.00106182 0)
(-0.000220613 0.000913283 0)
(-0.000216473 0.000767738 0)
(-0.000213032 0.000624718 0)
(-0.000210285 0.000483759 0)
(-0.000208228 0.000344401 0)
(-0.000206859 0.000206185 0)
(-0.000206174 6.86523e-05 0)
(-0.00191203 0.0851898 0)
(-0.00222203 0.0843604 0)
(-0.0025042 0.0834129 0)
(-0.00276024 0.082358 0)
(-0.00299097 0.081206 0)
(-0.00319805 0.0799666 0)
(-0.00338231 0.078649 0)
(-0.00354538 0.0772622 0)
(-0.00368842 0.0758143 0)
(-0.00381208 0.0743132 0)
(-0.00391804 0.0727663 0)
(-0.00400749 0.0711804 0)
(-0.00408112 0.069562 0)
(-0.00413975 0.0679174 0)
(-0.00418448 0.0662522 0)
(-0.00421644 0.0645717 0)
(-0.00423656 0.0628808 0)
(-0.00424563 0.0611843 0)
(-0.00424437 0.0594862 0)
(-0.00423352 0.0577906 0)
(-0.00421383 0.0561013 0)
(-0.00418603 0.0544215 0)
(-0.00415084 0.0527543 0)
(-0.00410893 0.0511027 0)
(-0.00406092 0.049469 0)
(-0.00400739 0.0478557 0)
(-0.00394889 0.0462649 0)
(-0.00388593 0.0446984 0)
(-0.00381901 0.0431579 0)
(-0.00374859 0.0416448 0)
(-0.00367511 0.0401606 0)
(-0.00359897 0.0387064 0)
(-0.00352057 0.0372831 0)
(-0.00344028 0.0358915 0)
(-0.00335843 0.0345324 0)
(-0.00327535 0.0332062 0)
(-0.00319133 0.0319135 0)
(-0.00310665 0.0306546 0)
(-0.00302158 0.0294296 0)
(-0.00293635 0.0282387 0)
(-0.00285118 0.0270818 0)
(-0.00276627 0.025959 0)
(-0.00268181 0.02487 0)
(-0.00259798 0.0238147 0)
(-0.00251494 0.0227928 0)
(-0.00243281 0.0218039 0)
(-0.00235174 0.0208476 0)
(-0.00227184 0.0199236 0)
(-0.00219322 0.0190312 0)
(-0.00211596 0.01817 0)
(-0.00204016 0.0173393 0)
(-0.00196589 0.0165387 0)
(-0.0018932 0.0157675 0)
(-0.00182216 0.015025 0)
(-0.00175281 0.0143106 0)
(-0.00168519 0.0136235 0)
(-0.00161934 0.0129632 0)
(-0.00155527 0.0123288 0)
(-0.00149301 0.0117197 0)
(-0.00143257 0.0111351 0)
(-0.00137397 0.0105742 0)
(-0.0013172 0.0100365 0)
(-0.00126226 0.00952106 0)
(-0.00120916 0.00902724 0)
(-0.00115787 0.00855428 0)
(-0.0011084 0.00810146 0)
(-0.00106073 0.00766805 0)
(-0.00101483 0.00725335 0)
(-0.000970701 0.00685664 0)
(-0.000928311 0.00647722 0)
(-0.000887641 0.0061144 0)
(-0.000848666 0.0057675 0)
(-0.000811362 0.00543584 0)
(-0.000775703 0.00511877 0)
(-0.000741663 0.00481563 0)
(-0.000709213 0.00452577 0)
(-0.000678328 0.00424857 0)
(-0.000648979 0.00398341 0)
(-0.00062114 0.00372967 0)
(-0.000594781 0.00348677 0)
(-0.000569878 0.00325411 0)
(-0.000546403 0.00303112 0)
(-0.000524331 0.00281723 0)
(-0.000503636 0.00261189 0)
(-0.000484294 0.00241455 0)
(-0.000466281 0.00222467 0)
(-0.000449576 0.00204173 0)
(-0.000434157 0.00186521 0)
(-0.000420005 0.0016946 0)
(-0.0004071 0.00152939 0)
(-0.000395425 0.0013691 0)
(-0.000384964 0.00121323 0)
(-0.000375703 0.0010613 0)
(-0.000367628 0.000912832 0)
(-0.000360729 0.000767359 0)
(-0.000354994 0.00062441 0)
(-0.000350417 0.000483521 0)
(-0.00034699 0.000344232 0)
(-0.000344708 0.000206083 0)
(-0.000343567 6.86184e-05 0)
(-0.00267617 0.0851266 0)
(-0.00311023 0.0842981 0)
(-0.00350513 0.0833512 0)
(-0.00386338 0.0822971 0)
(-0.00418637 0.0811458 0)
(-0.00447612 0.0799073 0)
(-0.00473406 0.0785908 0)
(-0.00496228 0.077205 0)
(-0.00516245 0.0757582 0)
(-0.00533565 0.0742582 0)
(-0.00548399 0.0727124 0)
(-0.00560912 0.0711276 0)
(-0.00571209 0.0695105 0)
(-0.00579415 0.0678671 0)
(-0.00585682 0.0662031 0)
(-0.00590159 0.0645239 0)
(-0.00592976 0.0628343 0)
(-0.00594243 0.0611389 0)
(-0.00594065 0.0594421 0)
(-0.00592546 0.0577478 0)
(-0.00589789 0.0560597 0)
(-0.00585899 0.0543812 0)
(-0.00580974 0.0527153 0)
(-0.00575108 0.0510648 0)
(-0.00568388 0.0494324 0)
(-0.00560896 0.0478203 0)
(-0.00552708 0.0462306 0)
(-0.00543897 0.0446653 0)
(-0.0053453 0.0431259 0)
(-0.00524673 0.041614 0)
(-0.00514388 0.0401309 0)
(-0.00503731 0.0386777 0)
(-0.00492758 0.0372555 0)
(-0.0048152 0.0358649 0)
(-0.00470064 0.0345068 0)
(-0.00458435 0.0331817 0)
(-0.00446676 0.0318899 0)
(-0.00434824 0.0306319 0)
(-0.00422917 0.0294078 0)
(-0.00410987 0.0282178 0)
(-0.00399066 0.0270618 0)
(-0.00387182 0.0259398 0)
(-0.00375361 0.0248516 0)
(-0.00363628 0.0237971 0)
(-0.00352004 0.0227759 0)
(-0.0034051 0.0217878 0)
(-0.00329163 0.0208322 0)
(-0.00317979 0.0199088 0)
(-0.00306975 0.0190171 0)
(-0.00296162 0.0181565 0)
(-0.00285552 0.0173265 0)
(-0.00275156 0.0165265 0)
(-0.00264983 0.0157558 0)
(-0.00255039 0.0150139 0)
(-0.00245333 0.0143 0)
(-0.00235869 0.0136135 0)
(-0.00226651 0.0129536 0)
(-0.00217684 0.0123197 0)
(-0.0020897 0.011711 0)
(-0.00200511 0.0111268 0)
(-0.00192308 0.0105664 0)
(-0.00184362 0.0100291 0)
(-0.00176673 0.00951401 0)
(-0.0016924 0.00902055 0)
(-0.00162062 0.00854794 0)
(-0.00155138 0.00809546 0)
(-0.00148465 0.00766237 0)
(-0.00142041 0.00724797 0)
(-0.00135865 0.00685156 0)
(-0.00129931 0.00647242 0)
(-0.00124239 0.00610987 0)
(-0.00118784 0.00576323 0)
(-0.00113563 0.00543182 0)
(-0.00108572 0.00511498 0)
(-0.00103807 0.00481206 0)
(-0.000992654 0.00452242 0)
(-0.000949425 0.00424542 0)
(-0.000908347 0.00398046 0)
(-0.000869381 0.00372691 0)
(-0.000832489 0.00348419 0)
(-0.000797633 0.0032517 0)
(-0.000764776 0.00302888 0)
(-0.000733882 0.00281515 0)
(-0.000704916 0.00260996 0)
(-0.000677844 0.00241276 0)
(-0.000652633 0.00222302 0)
(-0.000629251 0.00204022 0)
(-0.00060767 0.00186383 0)
(-0.000587862 0.00169334 0)
(-0.000569799 0.00152826 0)
(-0.000553458 0.00136808 0)
(-0.000538817 0.00121233 0)
(-0.000525854 0.00106051 0)
(-0.000514553 0.000912157 0)
(-0.000504896 0.000766791 0)
(-0.00049687 0.000623947 0)
(-0.000490463 0.000483163 0)
(-0.000485666 0.000343977 0)
(-0.000482472 0.000205931 0)
(-0.000480876 6.85676e-05 0)
(-0.00343946 0.0850423 0)
(-0.00399747 0.0842148 0)
(-0.00450525 0.0832689 0)
(-0.0049656 0.0822158 0)
(-0.00538072 0.0810657 0)
(-0.00575308 0.0798284 0)
(-0.00608463 0.0785132 0)
(-0.00637797 0.0771287 0)
(-0.00663524 0.0756833 0)
(-0.0068579 0.0741848 0)
(-0.00704858 0.0726405 0)
(-0.00720934 0.0710574 0)
(-0.00734164 0.0694419 0)
(-0.00744713 0.0678001 0)
(-0.00752773 0.0661378 0)
(-0.0075853 0.0644601 0)
(-0.00762151 0.0627722 0)
(-0.00763778 0.0610785 0)
(-0.00763547 0.0593834 0)
(-0.00761592 0.0576908 0)
(-0.00758049 0.0560044 0)
(-0.00753049 0.0543275 0)
(-0.0074672 0.0526632 0)
(-0.00739182 0.0510144 0)
(-0.00730545 0.0493836 0)
(-0.00720915 0.0477731 0)
(-0.00710391 0.046185 0)
(-0.00699066 0.0446211 0)
(-0.00687027 0.0430833 0)
(-0.00674358 0.0415729 0)
(-0.00661138 0.0400913 0)
(-0.00647442 0.0386395 0)
(-0.00633338 0.0372187 0)
(-0.00618893 0.0358295 0)
(-0.00604169 0.0344727 0)
(-0.00589223 0.0331489 0)
(-0.00574109 0.0318584 0)
(-0.00558876 0.0306016 0)
(-0.00543572 0.0293788 0)
(-0.00528238 0.0281899 0)
(-0.00512916 0.027035 0)
(-0.00497642 0.0259142 0)
(-0.00482449 0.0248271 0)
(-0.00467368 0.0237736 0)
(-0.00452428 0.0227534 0)
(-0.00437654 0.0217662 0)
(-0.0042307 0.0208116 0)
(-0.00408696 0.0198891 0)
(-0.00394552 0.0189983 0)
(-0.00380654 0.0181386 0)
(-0.00367018 0.0173094 0)
(-0.00353656 0.0165102 0)
(-0.0034058 0.0157403 0)
(-0.003278 0.0149991 0)
(-0.00315324 0.0142859 0)
(-0.0030316 0.0136 0)
(-0.00291313 0.0129408 0)
(-0.00279787 0.0123075 0)
(-0.00268587 0.0116994 0)
(-0.00257715 0.0111158 0)
(-0.00247172 0.010556 0)
(-0.00236959 0.0100191 0)
(-0.00227076 0.00950462 0)
(-0.00217523 0.00901164 0)
(-0.00208297 0.0085395 0)
(-0.00199397 0.00808746 0)
(-0.00190821 0.0076548 0)
(-0.00182565 0.00724082 0)
(-0.00174626 0.00684479 0)
(-0.00167 0.00646603 0)
(-0.00159683 0.00610384 0)
(-0.00152672 0.00575754 0)
(-0.00145961 0.00542645 0)
(-0.00139546 0.00510993 0)
(-0.00133422 0.00480731 0)
(-0.00127585 0.00451795 0)
(-0.00122029 0.00424123 0)
(-0.00116749 0.00397653 0)
(-0.00111741 0.00372323 0)
(-0.00106999 0.00348075 0)
(-0.00102519 0.00324849 0)
(-0.00098296 0.00302589 0)
(-0.000943252 0.00281237 0)
(-0.000906022 0.00260738 0)
(-0.000871227 0.00241038 0)
(-0.000838823 0.00222083 0)
(-0.000808771 0.0020382 0)
(-0.000781034 0.00186199 0)
(-0.000755574 0.00169167 0)
(-0.000732358 0.00152675 0)
(-0.000711355 0.00136673 0)
(-0.000692536 0.00121113 0)
(-0.000675876 0.00105946 0)
(-0.00066135 0.000911256 0)
(-0.000648938 0.000766033 0)
(-0.000638622 0.000623331 0)
(-0.000630388 0.000482686 0)
(-0.000624222 0.000343637 0)
(-0.000620117 0.000205727 0)
(-0.000618066 6.84999e-05 0)
(-0.0042019 0.0849372 0)
(-0.00488366 0.0841107 0)
(-0.00550418 0.083166 0)
(-0.00606658 0.0821142 0)
(-0.00657373 0.0809655 0)
(-0.00702863 0.0797298 0)
(-0.00743372 0.0784162 0)
(-0.00779211 0.0770334 0)
(-0.00810639 0.0755898 0)
(-0.00837846 0.0740931 0)
(-0.00861141 0.0725508 0)
(-0.00880777 0.0709696 0)
(-0.00896938 0.0693561 0)
(-0.00909828 0.0677163 0)
(-0.00919678 0.066056 0)
(-0.00926715 0.0643805 0)
(-0.00931137 0.0626946 0)
(-0.00933123 0.0610031 0)
(-0.00932839 0.05931 0)
(-0.0093045 0.0576195 0)
(-0.00926121 0.0559352 0)
(-0.00920014 0.0542603 0)
(-0.00912282 0.0525981 0)
(-0.00903072 0.0509514 0)
(-0.00892521 0.0493226 0)
(-0.00880757 0.047714 0)
(-0.00867899 0.0461279 0)
(-0.00854063 0.044566 0)
(-0.00839355 0.0430301 0)
(-0.00823877 0.0415215 0)
(-0.00807726 0.0400417 0)
(-0.00790992 0.0385918 0)
(-0.00773761 0.0371727 0)
(-0.00756114 0.0357852 0)
(-0.00738125 0.0344301 0)
(-0.00719865 0.0331079 0)
(-0.007014 0.031819 0)
(-0.0068279 0.0305638 0)
(-0.00664092 0.0293425 0)
(-0.00645359 0.0281551 0)
(-0.0062664 0.0270016 0)
(-0.00607979 0.0258821 0)
(-0.00589417 0.0247964 0)
(-0.00570993 0.0237442 0)
(-0.0055274 0.0227253 0)
(-0.00534691 0.0217393 0)
(-0.00516873 0.0207859 0)
(-0.00499312 0.0198646 0)
(-0.00482032 0.0189748 0)
(-0.00465053 0.0181162 0)
(-0.00448393 0.017288 0)
(-0.00432068 0.0164898 0)
(-0.00416093 0.0157208 0)
(-0.0040048 0.0149805 0)
(-0.00385238 0.0142682 0)
(-0.00370376 0.0135832 0)
(-0.00355902 0.0129248 0)
(-0.00341821 0.0122923 0)
(-0.00328138 0.011685 0)
(-0.00314855 0.0111021 0)
(-0.00301975 0.0105429 0)
(-0.00289497 0.0100068 0)
(-0.00277423 0.00949287 0)
(-0.00265752 0.00900051 0)
(-0.0025448 0.00852895 0)
(-0.00243607 0.00807747 0)
(-0.00233129 0.00764535 0)
(-0.00223043 0.00723187 0)
(-0.00213343 0.00683633 0)
(-0.00204027 0.00645804 0)
(-0.00195088 0.00609629 0)
(-0.00186522 0.00575042 0)
(-0.00178324 0.00541975 0)
(-0.00170486 0.00510361 0)
(-0.00163005 0.00480137 0)
(-0.00155873 0.00451237 0)
(-0.00149085 0.00423599 0)
(-0.00142635 0.00397161 0)
(-0.00136516 0.00371863 0)
(-0.00130723 0.00347645 0)
(-0.00125249 0.00324448 0)
(-0.0012009 0.00302215 0)
(-0.00115239 0.00280889 0)
(-0.00110691 0.00260416 0)
(-0.00106439 0.0024074 0)
(-0.00102481 0.00221808 0)
(-0.000988092 0.00203569 0)
(-0.000954204 0.00185969 0)
(-0.000923099 0.00168958 0)
(-0.000894736 0.00152486 0)
(-0.000869076 0.00136505 0)
(-0.000846085 0.00120964 0)
(-0.000825731 0.00105816 0)
(-0.000807984 0.00091013 0)
(-0.00079282 0.000765087 0)
(-0.000780217 0.000622561 0)
(-0.000770157 0.000482089 0)
(-0.000762624 0.000343213 0)
(-0.000757609 0.000205473 0)
(-0.000755103 6.84153e-05 0)
(-0.00496338 0.0848112 0)
(-0.00576868 0.0839858 0)
(-0.00650171 0.0830426 0)
(-0.00716605 0.0819924 0)
(-0.00776512 0.0808454 0)
(-0.00830245 0.0796115 0)
(-0.00878098 0.0782998 0)
(-0.00920432 0.0769191 0)
(-0.00957554 0.0754777 0)
(-0.00989694 0.0739832 0)
(-0.0101721 0.0724431 0)
(-0.010404 0.0708643 0)
(-0.0105949 0.0692532 0)
(-0.0107472 0.0676159 0)
(-0.0108636 0.065958 0)
(-0.0109467 0.064285 0)
(-0.0109989 0.0626016 0)
(-0.0110224 0.0609125 0)
(-0.011019 0.059222 0)
(-0.0109908 0.057534 0)
(-0.0109396 0.0558522 0)
(-0.0108675 0.0541798 0)
(-0.0107762 0.0525201 0)
(-0.0106674 0.0508758 0)
(-0.0105428 0.0492494 0)
(-0.0104038 0.0476432 0)
(-0.0102519 0.0460595 0)
(-0.0100885 0.0444999 0)
(-0.00991475 0.0429662 0)
(-0.00973192 0.0414599 0)
(-0.00954114 0.0399823 0)
(-0.00934347 0.0385345 0)
(-0.00913994 0.0371175 0)
(-0.00893148 0.0357321 0)
(-0.00871899 0.034379 0)
(-0.0085033 0.0330588 0)
(-0.00828518 0.0317718 0)
(-0.00806535 0.0305185 0)
(-0.00784448 0.0292989 0)
(-0.00762321 0.0281133 0)
(-0.00740209 0.0269616 0)
(-0.00718165 0.0258437 0)
(-0.0069624 0.0247596 0)
(-0.00674476 0.023709 0)
(-0.00652916 0.0226916 0)
(-0.00631595 0.0217071 0)
(-0.00610548 0.0207551 0)
(-0.00589805 0.0198351 0)
(-0.00569393 0.0189467 0)
(-0.00549337 0.0180893 0)
(-0.00529657 0.0172623 0)
(-0.00510374 0.0164653 0)
(-0.00491504 0.0156975 0)
(-0.0047306 0.0149583 0)
(-0.00455056 0.014247 0)
(-0.00437501 0.0135631 0)
(-0.00420404 0.0129056 0)
(-0.00403771 0.0122741 0)
(-0.00387608 0.0116676 0)
(-0.00371918 0.0110856 0)
(-0.00356703 0.0105273 0)
(-0.00341964 0.00999192 0)
(-0.00327702 0.00947879 0)
(-0.00313915 0.00898716 0)
(-0.00300601 0.00851629 0)
(-0.00287757 0.00806548 0)
(-0.0027538 0.007634 0)
(-0.00263466 0.00722114 0)
(-0.00252009 0.00682619 0)
(-0.00241004 0.00644846 0)
(-0.00230445 0.00608725 0)
(-0.00220327 0.00574189 0)
(-0.00210642 0.00541171 0)
(-0.00201384 0.00509604 0)
(-0.00192547 0.00479424 0)
(-0.00184123 0.00450567 0)
(-0.00176104 0.00422971 0)
(-0.00168485 0.00396572 0)
(-0.00161257 0.00371311 0)
(-0.00154414 0.00347129 0)
(-0.00147949 0.00323967 0)
(-0.00141855 0.00301766 0)
(-0.00136124 0.00280473 0)
(-0.00130751 0.00260029 0)
(-0.0012573 0.00240383 0)
(-0.00121054 0.00221479 0)
(-0.00116717 0.00203267 0)
(-0.00112714 0.00185693 0)
(-0.0010904 0.00168707 0)
(-0.00105689 0.0015226 0)
(-0.00102658 0.00136302 0)
(-0.000999425 0.00120784 0)
(-0.000975382 0.00105659 0)
(-0.000954419 0.00090878 0)
(-0.000936507 0.000763952 0)
(-0.00092162 0.000621638 0)
(-0.000909736 0.000481374 0)
(-0.000900839 0.000342703 0)
(-0.000894914 0.000205168 0)
(-0.000891954 6.83138e-05 0)
(-0.00572366 0.0846643 0)
(-0.00665231 0.0838403 0)
(-0.00749764 0.0828987 0)
(-0.00826375 0.0818503 0)
(-0.00895459 0.0807053 0)
(-0.00957423 0.0794735 0)
(-0.0101261 0.0781641 0)
(-0.0106143 0.0767858 0)
(-0.0110423 0.0753469 0)
(-0.011413 0.073855 0)
(-0.0117303 0.0723176 0)
(-0.0119977 0.0707415 0)
(-0.0122178 0.0691332 0)
(-0.0123935 0.0674987 0)
(-0.0125277 0.0658437 0)
(-0.0126236 0.0641736 0)
(-0.0126838 0.0624931 0)
(-0.0127108 0.060807 0)
(-0.0127069 0.0591194 0)
(-0.0126744 0.0574343 0)
(-0.0126154 0.0557554 0)
(-0.0125322 0.054086 0)
(-0.0124269 0.0524291 0)
(-0.0123015 0.0507876 0)
(-0.0121577 0.049164 0)
(-0.0119975 0.0475607 0)
(-0.0118223 0.0459797 0)
(-0.0116339 0.0444228 0)
(-0.0114335 0.0428918 0)
(-0.0112227 0.0413881 0)
(-0.0110027 0.039913 0)
(-0.0107747 0.0384677 0)
(-0.01054 0.0370532 0)
(-0.0102996 0.0356702 0)
(-0.0100546 0.0343195 0)
(-0.00980584 0.0330015 0)
(-0.00955431 0.0317168 0)
(-0.00930081 0.0304656 0)
(-0.00904611 0.0292482 0)
(-0.00879094 0.0280646 0)
(-0.00853595 0.0269149 0)
(-0.00828175 0.0257989 0)
(-0.00802891 0.0247167 0)
(-0.00777794 0.0236679 0)
(-0.0075293 0.0226523 0)
(-0.00728344 0.0216695 0)
(-0.00704073 0.0207191 0)
(-0.00680152 0.0198007 0)
(-0.00656613 0.0189138 0)
(-0.00633485 0.0180579 0)
(-0.00610791 0.0172324 0)
(-0.00588554 0.0164368 0)
(-0.00566793 0.0156703 0)
(-0.00545524 0.0149324 0)
(-0.00524762 0.0142224 0)
(-0.00504518 0.0135396 0)
(-0.00484802 0.0128833 0)
(-0.00465622 0.0122528 0)
(-0.00446982 0.0116474 0)
(-0.00428889 0.0110664 0)
(-0.00411343 0.010509 0)
(-0.00394347 0.00997461 0)
(-0.003779 0.00946236 0)
(-0.00362001 0.00897158 0)
(-0.00346648 0.00850154 0)
(-0.00331837 0.00805151 0)
(-0.00317564 0.00762077 0)
(-0.00303824 0.00720863 0)
(-0.00290612 0.00681436 0)
(-0.00277921 0.00643728 0)
(-0.00265745 0.0060767 0)
(-0.00254077 0.00573194 0)
(-0.00242908 0.00540233 0)
(-0.00232233 0.00508721 0)
(-0.00222041 0.00478594 0)
(-0.00212327 0.00449787 0)
(-0.0020308 0.00422238 0)
(-0.00194294 0.00395885 0)
(-0.00185959 0.00370668 0)
(-0.00178068 0.00346528 0)
(-0.00170612 0.00323405 0)
(-0.00163584 0.00301244 0)
(-0.00156976 0.00279987 0)
(-0.0015078 0.00259579 0)
(-0.0014499 0.00239966 0)
(-0.00139597 0.00221096 0)
(-0.00134596 0.00202914 0)
(-0.0012998 0.00185371 0)
(-0.00125743 0.00168415 0)
(-0.00121879 0.00151996 0)
(-0.00118384 0.00136066 0)
(-0.00115252 0.00120575 0)
(-0.00112479 0.00105476 0)
(-0.00110062 0.000907205 0)
(-0.00107996 0.000762629 0)
(-0.0010628 0.000620561 0)
(-0.00104909 0.00048054 0)
(-0.00103883 0.00034211 0)
(-0.001032 0.000204813 0)
(-0.00102858 6.81954e-05 0)
(-0.00648255 0.0844965 0)
(-0.00753432 0.0836741 0)
(-0.00849172 0.0827344 0)
(-0.00935941 0.081688 0)
(-0.0101419 0.0805453 0)
(-0.0108437 0.079316 0)
(-0.0114687 0.0780092 0)
(-0.0120216 0.0766336 0)
(-0.0125064 0.0751975 0)
(-0.0129262 0.0737086 0)
(-0.0132856 0.0721743 0)
(-0.0135884 0.0706013 0)
(-0.0138377 0.0689962 0)
(-0.0140367 0.0673649 0)
(-0.0141887 0.0657132 0)
(-0.0142973 0.0640463 0)
(-0.0143655 0.0623692 0)
(-0.0143961 0.0606864 0)
(-0.0143917 0.0590022 0)
(-0.0143548 0.0573205 0)
(-0.014288 0.0556449 0)
(-0.0141938 0.0539788 0)
(-0.0140745 0.0523252 0)
(-0.0139325 0.0506869 0)
(-0.0137697 0.0490666 0)
(-0.0135882 0.0474664 0)
(-0.0133898 0.0458885 0)
(-0.0131764 0.0443347 0)
(-0.0129495 0.0428067 0)
(-0.0127107 0.041306 0)
(-0.0124615 0.0398339 0)
(-0.0122033 0.0383915 0)
(-0.0119375 0.0369797 0)
(-0.0116652 0.0355995 0)
(-0.0113877 0.0342514 0)
(-0.011106 0.0329361 0)
(-0.0108211 0.0316539 0)
(-0.010534 0.0304052 0)
(-0.0102455 0.0291902 0)
(-0.0099565 0.0280089 0)
(-0.0096677 0.0268615 0)
(-0.0093798 0.0257478 0)
(-0.00909344 0.0246677 0)
(-0.00880919 0.023621 0)
(-0.00852759 0.0226074 0)
(-0.00824913 0.0216265 0)
(-0.00797423 0.020678 0)
(-0.00770331 0.0197615 0)
(-0.00743672 0.0188763 0)
(-0.00717477 0.0180221 0)
(-0.00691774 0.0171983 0)
(-0.00666589 0.0164042 0)
(-0.00641942 0.0156392 0)
(-0.00617854 0.0149028 0)
(-0.00594339 0.0141942 0)
(-0.00571411 0.0135127 0)
(-0.00549081 0.0128577 0)
(-0.00527357 0.0122285 0)
(-0.00506247 0.0116243 0)
(-0.00485754 0.0110445 0)
(-0.00465882 0.0104882 0)
(-0.00446632 0.00995483 0)
(-0.00428005 0.00944361 0)
(-0.00409998 0.0089538 0)
(-0.00392609 0.00848468 0)
(-0.00375834 0.00803555 0)
(-0.00359668 0.00760567 0)
(-0.00344107 0.00719434 0)
(-0.00329143 0.00680085 0)
(-0.0031477 0.00642452 0)
(-0.00300979 0.00606466 0)
(-0.00287764 0.00572058 0)
(-0.00275115 0.00539162 0)
(-0.00263024 0.00507713 0)
(-0.00251481 0.00477645 0)
(-0.00240479 0.00448895 0)
(-0.00230006 0.00421401 0)
(-0.00220054 0.003951 0)
(-0.00210615 0.00369933 0)
(-0.00201677 0.00345841 0)
(-0.00193233 0.00322764 0)
(-0.00185273 0.00300646 0)
(-0.00177789 0.00279432 0)
(-0.00170772 0.00259064 0)
(-0.00164213 0.00239491 0)
(-0.00158106 0.00220657 0)
(-0.00152441 0.00202512 0)
(-0.00147213 0.00185004 0)
(-0.00142414 0.00168081 0)
(-0.00138039 0.00151695 0)
(-0.0013408 0.00135796 0)
(-0.00130533 0.00120336 0)
(-0.00127393 0.00105267 0)
(-0.00124655 0.000905407 0)
(-0.00122315 0.000761117 0)
(-0.00120371 0.00061933 0)
(-0.00118819 0.000479588 0)
(-0.00117657 0.000341432 0)
(-0.00116883 0.000204407 0)
(-0.00116496 6.80603e-05 0)
(-0.00723983 0.0843078 0)
(-0.00841447 0.0834872 0)
(-0.00948372 0.0825496 0)
(-0.0104528 0.0815056 0)
(-0.0113266 0.0803655 0)
(-0.0121104 0.0791389 0)
(-0.0128084 0.077835 0)
(-0.0134259 0.0764625 0)
(-0.0139673 0.0750296 0)
(-0.0144362 0.073544 0)
(-0.0148376 0.0720131 0)
(-0.0151758 0.0704436 0)
(-0.0154542 0.0688421 0)
(-0.0156764 0.0672145 0)
(-0.0158463 0.0655664 0)
(-0.0159675 0.0639033 0)
(-0.0160437 0.0622299 0)
(-0.0160778 0.0605509 0)
(-0.0160729 0.0588704 0)
(-0.0160317 0.0571925 0)
(-0.0159571 0.0555206 0)
(-0.0158519 0.0538582 0)
(-0.0157187 0.0522083 0)
(-0.0155601 0.0505738 0)
(-0.0153783 0.048957 0)
(-0.0151756 0.0473604 0)
(-0.014954 0.045786 0)
(-0.0147156 0.0442357 0)
(-0.0144622 0.0427111 0)
(-0.0141955 0.0412138 0)
(-0.0139172 0.039745 0)
(-0.0136289 0.0383057 0)
(-0.013332 0.0368972 0)
(-0.0130279 0.03552 0)
(-0.012718 0.0341749 0)
(-0.0124034 0.0328625 0)
(-0.0120852 0.0315832 0)
(-0.0117645 0.0303373 0)
(-0.0114424 0.029125 0)
(-0.0111196 0.0279464 0)
(-0.0107971 0.0268015 0)
(-0.0104755 0.0256903 0)
(-0.0101557 0.0246126 0)
(-0.00983827 0.0235682 0)
(-0.00952377 0.0225569 0)
(-0.00921278 0.0215782 0)
(-0.00890578 0.0206319 0)
(-0.00860321 0.0197173 0)
(-0.00830547 0.0188342 0)
(-0.00801291 0.0179819 0)
(-0.00772586 0.0171599 0)
(-0.00744459 0.0163675 0)
(-0.00716933 0.0156043 0)
(-0.00690031 0.0148695 0)
(-0.00663769 0.0141625 0)
(-0.00638162 0.0134825 0)
(-0.00613224 0.012829 0)
(-0.00588962 0.0122012 0)
(-0.00565386 0.0115984 0)
(-0.00542499 0.0110198 0)
(-0.00520306 0.0104648 0)
(-0.00498808 0.0099326 0)
(-0.00478004 0.00942252 0)
(-0.00457893 0.0089338 0)
(-0.00438473 0.00846574 0)
(-0.00419738 0.0080176 0)
(-0.00401685 0.00758868 0)
(-0.00384305 0.00717827 0)
(-0.00367593 0.00678567 0)
(-0.00351541 0.00641018 0)
(-0.00336139 0.00605111 0)
(-0.0032138 0.0057078 0)
(-0.00307254 0.00537958 0)
(-0.0029375 0.00506579 0)
(-0.00280859 0.00476578 0)
(-0.00268571 0.00447893 0)
(-0.00256875 0.0042046 0)
(-0.00245761 0.00394218 0)
(-0.00235218 0.00369107 0)
(-0.00225237 0.00345068 0)
(-0.00215806 0.00322043 0)
(-0.00206917 0.00299975 0)
(-0.00198558 0.00278808 0)
(-0.00190721 0.00258486 0)
(-0.00183396 0.00238956 0)
(-0.00176575 0.00220165 0)
(-0.00170249 0.0020206 0)
(-0.0016441 0.00184591 0)
(-0.00159051 0.00167706 0)
(-0.00154164 0.00151356 0)
(-0.00149743 0.00135493 0)
(-0.00145782 0.00120067 0)
(-0.00142274 0.00105031 0)
(-0.00139217 0.000903385 0)
(-0.00136604 0.000759417 0)
(-0.00134432 0.000617948 0)
(-0.00132699 0.000478517 0)
(-0.00131401 0.000340669 0)
(-0.00130537 0.00020395 0)
(-0.00130105 6.79083e-05 0)
(-0.00799533 0.0840983 0)
(-0.00929255 0.0832798 0)
(-0.0104734 0.0823445 0)
(-0.0115435 0.0813031 0)
(-0.0125086 0.0801658 0)
(-0.0133741 0.0789422 0)
(-0.014145 0.0776416 0)
(-0.014827 0.0762725 0)
(-0.0154248 0.0748431 0)
(-0.0159427 0.0733613 0)
(-0.016386 0.0718342 0)
(-0.0167595 0.0702686 0)
(-0.0170669 0.068671 0)
(-0.0173123 0.0670474 0)
(-0.0174999 0.0654035 0)
(-0.0176338 0.0637445 0)
(-0.0177179 0.0620753 0)
(-0.0177556 0.0604005 0)
(-0.0177501 0.0587242 0)
(-0.0177046 0.0570504 0)
(-0.0176223 0.0553827 0)
(-0.0175061 0.0537244 0)
(-0.017359 0.0520786 0)
(-0.0171838 0.0504481 0)
(-0.016983 0.0488354 0)
(-0.0167592 0.0472427 0)
(-0.0165145 0.0456723 0)
(-0.0162513 0.0441258 0)
(-0.0159714 0.042605 0)
(-0.0156769 0.0411114 0)
(-0.0153695 0.0396462 0)
(-0.0150511 0.0382106 0)
(-0.0147232 0.0368055 0)
(-0.0143874 0.0354317 0)
(-0.0140451 0.03409 0)
(-0.0136977 0.0327809 0)
(-0.0133463 0.0315047 0)
(-0.0129922 0.0302619 0)
(-0.0126364 0.0290526 0)
(-0.01228 0.0278769 0)
(-0.0119238 0.0267349 0)
(-0.0115687 0.0256265 0)
(-0.0112155 0.0245515 0)
(-0.0108649 0.0235097 0)
(-0.0105176 0.0225008 0)
(-0.0101742 0.0215246 0)
(-0.00983512 0.0205806 0)
(-0.00950098 0.0196683 0)
(-0.00917217 0.0187874 0)
(-0.00884908 0.0179372 0)
(-0.00853208 0.0171172 0)
(-0.00822145 0.0163269 0)
(-0.00791748 0.0155655 0)
(-0.00762038 0.0148325 0)
(-0.00733035 0.0141273 0)
(-0.00704757 0.013449 0)
(-0.00677215 0.0127971 0)
(-0.00650422 0.0121709 0)
(-0.00624385 0.0115695 0)
(-0.00599111 0.0109924 0)
(-0.00574601 0.0104388 0)
(-0.0055086 0.00990792 0)
(-0.00527885 0.0093991 0)
(-0.00505676 0.0089116 0)
(-0.00484229 0.0084447 0)
(-0.00463539 0.00799768 0)
(-0.00443601 0.00756983 0)
(-0.00424409 0.00716044 0)
(-0.00405953 0.00676881 0)
(-0.00388225 0.00639425 0)
(-0.00371216 0.00603608 0)
(-0.00354917 0.00569362 0)
(-0.00339316 0.00536621 0)
(-0.00324404 0.0050532 0)
(-0.00310168 0.00475394 0)
(-0.00296597 0.0044678 0)
(-0.00283681 0.00419415 0)
(-0.00271407 0.00393238 0)
(-0.00259764 0.0036819 0)
(-0.00248741 0.00344211 0)
(-0.00238326 0.00321243 0)
(-0.00228509 0.0029923 0)
(-0.00219278 0.00278115 0)
(-0.00210623 0.00257844 0)
(-0.00202534 0.00238362 0)
(-0.00195002 0.00219618 0)
(-0.00188015 0.00201558 0)
(-0.00181567 0.00184132 0)
(-0.00175649 0.00167289 0)
(-0.00170252 0.0015098 0)
(-0.00165369 0.00135156 0)
(-0.00160994 0.00119769 0)
(-0.00157121 0.00104771 0)
(-0.00153744 0.000901141 0)
(-0.00150859 0.000757531 0)
(-0.00148461 0.000616412 0)
(-0.00146547 0.000477328 0)
(-0.00145113 0.000339823 0)
(-0.00144159 0.000203444 0)
(-0.00143682 6.77396e-05 0)
(-0.00874886 0.0838681 0)
(-0.0101683 0.0830518 0)
(-0.0114604 0.082119 0)
(-0.0126315 0.0810805 0)
(-0.0136875 0.0799463 0)