/*--------------------------------*- C++ -*----------------------------------*\
| =========                 |                                                 |
| \\      /  F ield         | OpenFOAM: The Open Source CFD Toolbox           |
|  \\    /   O peration     | Version:  2406                                  |
|   \\  /    A nd           | Website:  www.openfoam.com                      |
|    \\/     M anipulation  |                                                 |
\*---------------------------------------------------------------------------*/
FoamFile
{
    version     2.0;
    format      ascii;
    arch        "LSB;label=32;scalar=64";
    class       volScalarField;
    location    "60";
    object      gradTx;
}
// * * * * * * * * * * * * * * * * * * * * * * * * * * * * * * * * * * * * * //

dimensions      [0 -1 0 1 0 0 0];

internalField   nonuniform List<scalar> 
20000
(
-7.37682
-7.18982
-7.00011
-6.80769
-6.61307
-6.41757
-6.22158
-6.02577
-5.83071
-5.63652
-5.44373
-5.25301
-5.06473
-4.8791
-4.69631
-4.51663
-4.34031
-4.1676
-3.99869
-3.83374
-3.67287
-3.51617
-3.36372
-3.21557
-3.07177
-2.93235
-2.79732
-2.66669
-2.54044
-2.41854
-2.30097
-2.18768
-2.07862
-1.97372
-1.87292
-1.77614
-1.68331
-1.59433
-1.50912
-1.42758
-1.34963
-1.27516
-1.20407
-1.13626
-1.07164
-1.01009
-0.951513
-0.895812
-0.84288
-0.792618
-0.744924
-0.699699
-0.656847
-0.616271
-0.577877
-0.541574
-0.50727
-0.474878
-0.444313
-0.415491
-0.388331
-0.362756
-0.338689
-0.316057
-0.29479
-0.274819
-0.256078
-0.238505
-0.222039
-0.206622
-0.192198
-0.178715
-0.16612
-0.154367
-0.143409
-0.133203
-0.123706
-0.114879
-0.106685
-0.0990894
-0.0920584
-0.0855608
-0.0795675
-0.074051
-0.0689857
-0.0643478
-0.0601152
-0.0562676
-0.052786
-0.0496534
-0.0468541
-0.0443741
-0.0422008
-0.0403232
-0.0387316
-0.0374177
-0.0363747
-0.0355972
-0.0350811
-0.0348236
-22.1296
-21.5686
-20.9977
-20.4206
-19.8376
-19.2512
-18.6633
-18.0759
-17.4905
-16.908
-16.3299
-15.7578
-15.193
-14.6361
-14.0877
-13.5487
-13.0198
-12.5018
-11.9951
-11.5003
-11.0177
-10.5477
-10.0903
-9.64591
-9.21455
-8.79632
-8.39127
-7.9994
-7.62068
-7.25503
-6.90235
-6.56251
-6.23535
-5.92068
-5.6183
-5.32799
-5.0495
-4.78259
-4.52698
-4.28239
-4.04855
-3.82516
-3.61191
-3.40851
-3.21464
-3.03001
-2.8543
-2.68721
-2.52843
-2.37766
-2.23459
-2.09892
-1.97038
-1.84866
-1.73349
-1.62459
-1.52168
-1.42452
-1.33283
-1.24637
-1.1649
-1.08818
-1.01598
-0.948093
-0.884296
-0.824388
-0.768171
-0.715456
-0.666062
-0.619814
-0.576546
-0.536099
-0.49832
-0.463063
-0.430192
-0.399574
-0.371086
-0.344608
-0.320029
-0.297243
-0.276152
-0.256661
-0.238682
-0.222134
-0.20694
-0.193027
-0.180331
-0.168789
-0.158345
-0.148948
-0.14055
-0.133111
-0.126592
-0.120959
-0.116185
-0.112244
-0.109115
-0.106783
-0.105234
-0.104462
-36.8768
-35.9425
-34.9911
-34.0286
-33.0573
-32.0801
-31.1005
-30.1216
-29.146
-28.1753
-27.212
-26.2589
-25.3176
-24.3895
-23.4756
-22.5774
-21.6961
-20.8328
-19.9885
-19.164
-18.3599
-17.5765
-16.8144
-16.0739
-15.3551
-14.6581
-13.9832
-13.3301
-12.699
-12.0897
-11.502
-10.9357
-10.3905
-9.86618
-9.36229
-8.87852
-8.41445
-7.96967
-7.54372
-7.13615
-6.74647
-6.37421
-6.01885
-5.67991
-5.35685
-5.04919
-4.75639
-4.47795
-4.21336
-3.96211
-3.72369
-3.49763
-3.28342
-3.08059
-2.88867
-2.7072
-2.53572
-2.3738
-2.22101
-2.07694
-1.94117
-1.81333
-1.69302
-1.57989
-1.47358
-1.37375
-1.28007
-1.19223
-1.10992
-1.03285
-0.960752
-0.893351
-0.830395
-0.771645
-0.716868
-0.665847
-0.618374
-0.574252
-0.533293
-0.495324
-0.460177
-0.427698
-0.397738
-0.370163
-0.344843
-0.321659
-0.300501
-0.281268
-0.263864
-0.248205
-0.234212
-0.221815
-0.210952
-0.201566
-0.19361
-0.187042
-0.181828
-0.177942
-0.175362
-0.174075
-51.6139
-50.3067
-48.976
-47.6284
-46.2687
-44.9011
-43.5299
-42.1598
-40.7942
-39.4356
-38.0875
-36.7535
-35.436
-34.1368
-32.8577
-31.6005
-30.367
-29.1588
-27.9771
-26.823
-25.6975
-24.6011
-23.5344
-22.4979
-21.4918
-20.5163
-19.5716
-18.6576
-17.7743
-16.9214
-16.0989
-15.3062
-14.5432
-13.8092
-13.104
-12.4269
-11.7773
-11.1548
-10.5586
-9.98815
-9.44274
-8.92169
-8.42432
-7.94991
-7.49775
-7.06712
-6.6573
-6.26758
-5.89725
-5.54558
-5.21189
-4.89547
-4.59566
-4.31177
-4.04314
-3.78914
-3.54913
-3.3225
-3.10865
-2.907
-2.71697
-2.53804
-2.36965
-2.21131
-2.06251
-1.92278
-1.79166
-1.66871
-1.55351
-1.44564
-1.34472
-1.25038
-1.16227
-1.08004
-1.00337
-0.931957
-0.865511
-0.803754
-0.746427
-0.693283
-0.64409
-0.598629
-0.556697
-0.5181
-0.482661
-0.450212
-0.420599
-0.393678
-0.369319
-0.347401
-0.327816
-0.310465
-0.29526
-0.282123
-0.270987
-0.261794
-0.254497
-0.249057
-0.245446
-0.243645
-66.3383
-64.6583
-62.9486
-61.2165
-59.4688
-57.7109
-55.9485
-54.1876
-52.4324
-50.6862
-48.9536
-47.239
-45.5456
-43.8757
-42.2317
-40.6158
-39.0304
-37.4775
-35.9587
-34.4754
-33.0288
-31.6196
-30.2486
-28.9163
-27.6232
-26.3694
-25.1552
-23.9804
-22.8451
-21.749
-20.6917
-19.673
-18.6922
-17.7489
-16.8424
-15.9721
-15.1373
-14.3371
-13.5709
-12.8377
-12.1367
-11.467
-10.8277
-10.2179
-9.63679
-9.0833
-8.55657
-8.05567
-7.57968
-7.12768
-6.69879
-6.29211
-5.90676
-5.54187
-5.19661
-4.87015
-4.56167
-4.27038
-3.99552
-3.73634
-3.4921
-3.26211
-3.04569
-2.84217
-2.65092
-2.47133
-2.30281
-2.14478
-1.99671
-1.85807
-1.72836
-1.60711
-1.49385
-1.38816
-1.28962
-1.19784
-1.11243
-1.03306
-0.959376
-0.89107
-0.827843
-0.769413
-0.715517
-0.665909
-0.62036
-0.578653
-0.540591
-0.505991
-0.474682
-0.446512
-0.421339
-0.399037
-0.379495
-0.36261
-0.348297
-0.336481
-0.327103
-0.320111
-0.31547
-0.313155
-81.0467
-78.9941
-76.9055
-74.7893
-72.6541
-70.5065
-68.3534
-66.202
-64.0576
-61.9244
-59.8077
-57.7129
-55.6439
-53.6037
-51.5952
-49.6211
-47.6842
-45.787
-43.9315
-42.1193
-40.3519
-38.6303
-36.9553
-35.3277
-33.7478
-32.2161
-30.7326
-29.2974
-27.9103
-26.5712
-25.2795
-24.0348
-22.8366
-21.6842
-20.5767
-19.5135
-18.4935
-17.516
-16.5798
-15.684
-14.8276
-14.0094
-13.2284
-12.4835
-11.7734
-11.0972
-10.4537
-9.84176
-9.26024
-8.70803
-8.18404
-7.68719
-7.2164
-6.77061
-6.3488
-5.94995
-5.57308
-5.21721
-4.8814
-4.56475
-4.26637
-3.98539
-3.72098
-3.47234
-3.23869
-3.01927
-2.81338
-2.62032
-2.43941
-2.27003
-2.11157
-1.96343
-1.82507
-1.69594
-1.57555
-1.46342
-1.35908
-1.26211
-1.17209
-1.08864
-1.01139
-0.940006
-0.874161
-0.813554
-0.757905
-0.706952
-0.660451
-0.618179
-0.579929
-0.545512
-0.514758
-0.487512
-0.463636
-0.443008
-0.425521
-0.411086
-0.399628
-0.391086
-0.385416
-0.382588
-95.7352
-93.3105
-90.8433
-88.3437
-85.8215
-83.2848
-80.7415
-78.2002
-75.6671
-73.1472
-70.6469
-68.1725
-65.7285
-63.3186
-60.946
-58.6142
-56.3263
-54.0852
-51.8934
-49.7528
-47.6651
-45.6315
-43.6529
-41.7303
-39.8641
-38.0547
-36.3024
-34.6071
-32.9686
-31.3868
-29.861
-28.3908
-26.9754
-25.6141
-24.3059
-23.05
-21.8452
-20.6905
-19.5846
-18.5265
-17.5149
-16.5484
-15.6259
-14.7459
-13.9072
-13.1085
-12.3483
-11.6254
-10.9385
-10.2862
-9.66728
-9.08038
-8.52426
-7.99769
-7.49943
-7.02829
-6.58311
-6.16275
-5.76608
-5.39205
-5.03958
-4.70768
-4.39535
-4.10165
-3.82565
-3.56647
-3.32326
-3.09521
-2.88152
-2.68144
-2.49426
-2.31927
-2.15583
-2.00331
-1.8611
-1.72864
-1.60539
-1.49084
-1.38451
-1.28594
-1.19469
-1.11037
-1.03259
-0.960999
-0.895264
-0.835076
-0.780148
-0.730214
-0.685032
-0.644378
-0.60805
-0.575866
-0.547663
-0.523296
-0.50264
-0.485589
-0.472054
-0.461964
-0.455266
-0.451927
-110.4
-107.604
-104.759
-101.876
-98.9678
-96.0425
-93.1096
-90.179
-87.2579
-84.352
-81.4688
-78.6153
-75.7969
-73.0178
-70.2817
-67.5927
-64.9544
-62.3701
-59.8426
-57.3741
-54.9665
-52.6214
-50.3397
-48.1226
-45.9705
-43.884
-41.8632
-39.9082
-38.0188
-36.1946
-34.4352
-32.7397
-31.1075
-29.5377
-28.0292
-26.5808
-25.1915
-23.8599
-22.5847
-21.3644
-20.1978
-19.0833
-18.0195
-17.0047
-16.0375
-15.1164
-14.2398
-13.4062
-12.6141
-11.8619
-11.1481
-10.4713
-9.83002
-9.22278
-8.6482
-8.1049
-7.59152
-7.10676
-6.64934
-6.21801
-5.81155
-5.42881
-5.06864
-4.72994
-4.41167
-4.11279
-3.83233
-3.56934
-3.32292
-3.09219
-2.87633
-2.67454
-2.48607
-2.31018
-2.14619
-1.99344
-1.85131
-1.71921
-1.59659
-1.48292
-1.37769
-1.28046
-1.19076
-1.10821
-1.0324
-0.962994
-0.899652
-0.84207
-0.789966
-0.743085
-0.701192
-0.664078
-0.631555
-0.603456
-0.579636
-0.559972
-0.544365
-0.532729
-0.525005
-0.521154
-125.038
-121.871
-118.648
-115.384
-112.09
-108.777
-105.455
-102.136
-98.8271
-95.5359
-92.2705
-89.0386
-85.8465
-82.6989
-79.6002
-76.5547
-73.5665
-70.6396
-67.7769
-64.9812
-62.2544
-59.5983
-57.0142
-54.503
-52.0656
-49.7025
-47.4138
-45.1996
-43.0596
-40.9936
-39.0008
-37.0806
-35.232
-33.454
-31.7455
-30.1051
-28.5315
-27.0234
-25.5791
-24.1971
-22.8758
-21.6135
-20.4086
-19.2593
-18.1639
-17.1207
-16.1279
-15.1837
-14.2866
-13.4346
-12.6262
-11.8597
-11.1334
-10.4456
-9.79484
-9.1795
-8.59806
-8.04903
-7.53096
-7.04243
-6.58209
-6.1486
-5.74067
-5.35707
-4.99659
-4.65809
-4.34044
-4.04259
-3.76349
-3.50218
-3.2577
-3.02915
-2.81569
-2.61648
-2.43074
-2.25774
-2.09677
-1.94716
-1.80828
-1.67953
-1.56036
-1.45023
-1.34864
-1.25514
-1.16928
-1.09067
-1.01893
-0.953717
-0.894705
-0.841608
-0.794161
-0.752126
-0.715291
-0.683467
-0.656488
-0.634217
-0.616541
-0.603362
-0.594614
-0.590252
-139.645
-136.108
-132.509
-128.863
-125.184
-121.484
-117.774
-114.067
-110.372
-106.696
-103.049
-99.44
-95.875
-92.3597
-88.899
-85.4977
-82.1605
-78.8917
-75.6946
-72.5723
-69.5269
-66.5605
-63.6745
-60.87
-58.1479
-55.5086
-52.9526
-50.4797
-48.0898
-45.7824
-43.5568
-41.4123
-39.3478
-37.3621
-35.4539
-33.6219
-31.8646
-30.1802
-28.5672
-27.0238
-25.5481
-24.1384
-22.7927
-21.5091
-20.2858
-19.1207
-18.0119
-16.9575
-15.9555
-15.004
-14.1012
-13.2451
-12.4339
-11.6658
-10.9391
-10.2518
-9.60247
-8.98931
-8.41071
-7.86512
-7.351
-6.86687
-6.41129
-5.98288
-5.58029
-5.20224
-4.84749
-4.51484
-4.20314
-3.9113
-3.63826
-3.38302
-3.14461
-2.92213
-2.7147
-2.52149
-2.34171
-2.17462
-2.01952
-1.87574
-1.74264
-1.61964
-1.50619
-1.40176
-1.30588
-1.21809
-1.13796
-1.06513
-0.999224
-0.939923
-0.886933
-0.839989
-0.798851
-0.763309
-0.733178
-0.708306
-0.688565
-0.673847
-0.664076
-0.659205
-154.217
-150.311
-146.337
-142.31
-138.247
-134.161
-130.064
-125.97
-121.89
-117.83
-113.803
-109.817
-105.88
-101.998
-98.1758
-94.4196
-90.7343
-87.1243
-83.5936
-80.1454
-76.7823
-73.5063
-70.3191
-67.222
-64.2158
-61.3011
-58.4783
-55.7474
-53.1081
-50.5599
-48.1021
-45.7338
-43.4538
-41.2609
-39.1537
-37.1305
-35.1897
-33.3296
-31.5483
-29.8438
-28.2141
-26.6573
-25.1712
-23.7537
-22.4027
-21.116
-19.8915
-18.727
-17.6205
-16.5697
-15.5727
-14.6273
-13.7315
-12.8832
-12.0806
-11.3216
-10.6045
-9.92737
-9.2884
-8.68587
-8.1181
-7.58344
-7.08032
-6.60721
-6.16261
-5.74511
-5.35334
-4.98597
-4.64175
-4.31945
-4.01792
-3.73604
-3.47276
-3.22706
-2.99798
-2.78461
-2.58608
-2.40155
-2.23026
-2.07147
-1.92449
-1.78866
-1.66336
-1.54804
-1.44215
-1.3452
-1.25671
-1.17628
-1.1035
-1.03801
-0.979487
-0.927644
-0.882213
-0.842962
-0.809688
-0.782219
-0.760419
-0.744165
-0.733375
-0.727995
-168.751
-164.477
-160.128
-155.722
-151.276
-146.805
-142.322
-137.842
-133.377
-128.935
-124.528
-120.167
-115.859
-111.611
-107.429
-103.318
-99.2856
-95.3354
-91.472
-87.6988
-84.0188
-80.434
-76.9464
-73.5574
-70.2678
-67.0785
-63.9897
-61.0014
-58.1133
-55.325
-52.6355
-50.044
-47.5491
-45.1496
-42.8437
-40.6299
-38.5062
-36.4708
-34.5216
-32.6564
-30.8732
-29.1696
-27.5435
-25.9924
-24.514
-23.1061
-21.7662
-20.492
-19.2811
-18.1314
-17.0404
-16.0058
-15.0256
-14.0974
-13.2191
-12.3887
-11.6039
-10.863
-10.1638
-9.50447
-8.88319
-8.29815
-7.74761
-7.2299
-6.74341
-6.28656
-5.85787
-5.45588
-5.07921
-4.72654
-4.39659
-4.08815
-3.80005
-3.5312
-3.28053
-3.04705
-2.8298
-2.62789
-2.44046
-2.2667
-2.10586
-1.95723
-1.82013
-1.69394
-1.57807
-1.47198
-1.37515
-1.28714
-1.2075
-1.13584
-1.0718
-1.01507
-0.965358
-0.922408
-0.885997
-0.85594
-0.832085
-0.814299
-0.802493
-0.796606
-183.244
-178.603
-173.88
-169.096
-164.268
-159.413
-154.545
-149.68
-144.832
-140.008
-135.223
-130.487
-125.809
-121.196
-116.655
-112.191
-107.812
-103.523
-99.3278
-95.2306
-91.2345
-87.3419
-83.5547
-79.8746
-76.3026
-72.8393
-69.4852
-66.2403
-63.1042
-60.0764
-57.156
-54.3419
-51.6327
-49.0271
-46.5232
-44.1192
-41.8132
-39.6029
-37.4863
-35.461
-33.5246
-31.6748
-29.9089
-28.2246
-26.6193
-25.0905
-23.6355
-22.2519
-20.937
-19.6885
-18.5038
-17.3804
-16.316
-15.3081
-14.3544
-13.4526
-12.6005
-11.7959
-11.0367
-10.3207
-9.64609
-9.01081
-8.41299
-7.85082
-7.32254
-6.82646
-6.36095
-5.92444
-5.51542
-5.13246
-4.77418
-4.43924
-4.12641
-3.83446
-3.56227
-3.30873
-3.07283
-2.85358
-2.65005
-2.46137
-2.28672
-2.12532
-1.97644
-1.83942
-1.71359
-1.59839
-1.49325
-1.39768
-1.3112
-1.23338
-1.16385
-1.10225
-1.04826
-1.00163
-0.962088
-0.92945
-0.903546
-0.884233
-0.871412
-0.86502
-197.691
-192.684
-187.589
-182.428
-177.219
-171.981
-166.729
-161.482
-156.251
-151.047
-145.884
-140.775
-135.728
-130.751
-125.852
-121.037
-116.313
-111.685
-107.159
-102.739
-98.4276
-94.2281
-90.1424
-86.1721
-82.3185
-78.5822
-74.9636
-71.4628
-68.0795
-64.8129
-61.6623
-58.6263
-55.7036
-52.8925
-50.1912
-47.5977
-45.1098
-42.7253
-40.4418
-38.2568
-36.1678
-34.1721
-32.267
-30.4499
-28.7181
-27.0686
-25.499
-24.0062
-22.5878
-21.2408
-19.9627
-18.7508
-17.6024
-16.515
-15.4861
-14.5133
-13.594
-12.7259
-11.9068
-11.1344
-10.4066
-9.72124
-9.07629
-8.4698
-7.89987
-7.36468
-6.86246
-6.39153
-5.95027
-5.53712
-5.15058
-4.78924
-4.45174
-4.13678
-3.84313
-3.5696
-3.3151
-3.07856
-2.85898
-2.65543
-2.46701
-2.29288
-2.13227
-1.98444
-1.8487
-1.72441
-1.61099
-1.50788
-1.41458
-1.33063
-1.25561
-1.18915
-1.13091
-1.0806
-1.03794
-1.00273
-0.974784
-0.953949
-0.940117
-0.933221
-212.09
-206.718
-201.252
-195.715
-190.127
-184.507
-178.873
-173.243
-167.631
-162.048
-156.51
-151.028
-145.614
-140.275
-135.018
-129.853
-124.784
-119.82
-114.964
-110.222
-105.597
-101.091
-96.7079
-92.4484
-88.314
-84.3056
-80.4235
-76.6677
-73.038
-69.5335
-66.1534
-62.8963
-59.7607
-56.7449
-53.8468
-51.0644
-48.3954
-45.8372
-43.3874
-41.0432
-38.802
-36.661
-34.6172
-32.6677
-30.8097
-29.0402
-27.3561
-25.7547
-24.2329
-22.7879
-21.4167
-20.1164
-18.8844
-17.7179
-16.6141
-15.5703
-14.5841
-13.6528
-12.774
-11.9454
-11.1646
-10.4293
-9.73735
-9.08669
-8.47525
-7.90107
-7.36228
-6.85705
-6.38365
-5.94041
-5.52572
-5.13806
-4.77598
-4.43808
-4.12304
-3.82959
-3.55655
-3.30278
-3.06721
-2.84883
-2.64669
-2.45988
-2.28757
-2.12897
-1.98335
-1.85001
-1.72832
-1.6177
-1.5176
-1.42754
-1.34706
-1.27576
-1.21328
-1.1593
-1.11354
-1.07576
-1.04578
-1.02343
-1.00859
-1.00119
-226.436
-220.701
-214.865
-208.953
-202.988
-196.988
-190.972
-184.962
-178.97
-173.01
-167.097
-161.244
-155.463
-149.763
-144.151
-138.636
-133.225
-127.925
-122.74
-117.677
-112.739
-107.929
-103.249
-98.7019
-94.2878
-90.0083
-85.8636
-81.8538
-77.9785
-74.237
-70.6282
-67.1508
-63.8031
-60.5832
-57.4892
-54.5185
-51.6689
-48.9377
-46.3222
-43.8195
-41.4267
-39.1408
-36.9588
-34.8774
-32.8937
-31.0045
-29.2066
-27.4968
-25.8721
-24.3293
-22.8653
-21.4772
-20.1618
-18.9164
-17.7379
-16.6235
-15.5706
-14.5763
-13.6381
-12.7534
-11.9198
-11.1347
-10.396
-9.70133
-9.04853
-8.43552
-7.86028
-7.32088
-6.81546
-6.34223
-5.89949
-5.48562
-5.09904
-4.73828
-4.40193
-4.08863
-3.79713
-3.52619
-3.27469
-3.04154
-2.82572
-2.62628
-2.44231
-2.27298
-2.1175
-1.97515
-1.84523
-1.72713
-1.62026
-1.5241
-1.43818
-1.36206
-1.29535
-1.23772
-1.18886
-1.14853
-1.11652
-1.09266
-1.07681
-1.06892
-240.727
-234.629
-228.426
-222.14
-215.798
-209.42
-203.025
-196.635
-190.265
-183.929
-177.642
-171.42
-165.275
-159.215
-153.249
-147.386
-141.633
-135.998
-130.487
-125.104
-119.854
-114.741
-109.766
-104.931
-100.238
-95.6887
-91.2824
-87.0196
-82.8997
-78.9221
-75.0855
-71.3887
-67.8297
-64.4067
-61.1173
-57.9592
-54.9298
-52.0262
-49.2456
-46.585
-44.0411
-41.611
-39.2912
-37.0786
-34.9697
-32.9612
-31.0498
-29.2321
-27.5049
-25.8647
-24.3084
-22.8326
-21.4342
-20.1102
-18.8573
-17.6726
-16.5532
-15.4962
-14.4988
-13.5583
-12.672
-11.8375
-11.0521
-10.3136
-9.61959
-8.96789
-8.35634
-7.7829
-7.24558
-6.74249
-6.27181
-5.83181
-5.42084
-5.03732
-4.67973
-4.34667
-4.03676
-3.74873
-3.48135
-3.23349
-3.00405
-2.79202
-2.59645
-2.41643
-2.25114
-2.0998
-1.96168
-1.83612
-1.72251
-1.62029
-1.52894
-1.44802
-1.3771
-1.31583
-1.26389
-1.22101
-1.18699
-1.16161
-1.14477
-1.13637
-254.958
-248.5
-241.93
-235.273
-228.556
-221.8
-215.027
-208.259
-201.513
-194.802
-188.144
-181.554
-175.045
-168.627
-162.309
-156.099
-150.006
-144.038
-138.201
-132.5
-126.94
-121.524
-116.255
-111.134
-106.164
-101.346
-96.6788
-92.1639
-87.8005
-83.5877
-79.5244
-75.6089
-71.8396
-68.2142
-64.7304
-61.3856
-58.1771
-55.1018
-52.1569
-49.3389
-46.6447
-44.0709
-41.614
-39.2705
-37.037
-34.9098
-32.8854
-30.9603
-29.1309
-27.3938
-25.7454
-24.1824
-22.7014
-21.299
-19.9721
-18.7174
-17.5318
-16.4123
-15.3559
-14.3598
-13.4212
-12.5372
-11.7055
-10.9233
-10.1883
-9.49804
-8.85035
-8.243
-7.67392
-7.14108
-6.64258
-6.17657
-5.7413
-5.33511
-4.95639
-4.60363
-4.2754
-3.97034
-3.68716
-3.42464
-3.18164
-2.95708
-2.74994
-2.55928
-2.38422
-2.22393
-2.07765
-1.94467
-1.82434
-1.71608
-1.61933
-1.53362
-1.45851
-1.39362
-1.33861
-1.2932
-1.25716
-1.23029
-1.21245
-1.20355
-269.126
-262.309
-255.374
-248.347
-241.257
-234.126
-226.976
-219.832
-212.711
-205.627
-198.599
-191.643
-184.773
-177.998
-171.328
-164.773
-158.342
-152.042
-145.881
-139.863
-133.994
-128.277
-122.715
-117.31
-112.064
-106.977
-102.051
-97.2855
-92.6796
-88.2327
-83.9436
-79.8106
-75.8317
-72.0049
-68.3275
-64.7968
-61.41
-58.1639
-55.0552
-52.0807
-49.2368
-46.5199
-43.9265
-41.4528
-39.0951
-36.8497
-34.7128
-32.6807
-30.7497
-28.916
-27.1761
-25.5262
-23.9629
-22.4826
-21.0819
-19.7575
-18.5061
-17.3243
-16.2093
-15.1578
-14.167
-13.2339
-12.3559
-11.5303
-10.7544
-10.0258
-9.34216
-8.70107
-8.10036
-7.53792
-7.01171
-6.51981
-6.06035
-5.63158
-5.23182
-4.85946
-4.51299
-4.19098
-3.89206
-3.61495
-3.35845
-3.1214
-2.90276
-2.70151
-2.51671
-2.34752
-2.19311
-2.05274
-1.92572
-1.81144
-1.70932
-1.61884
-1.53956
-1.47107
-1.413
-1.36506
-1.32702
-1.29865
-1.27982
-1.27044
-283.228
-276.054
-268.755
-261.36
-253.898
-246.394
-238.869
-231.351
-223.857
-216.402
-209.005
-201.685
-194.455
-187.325
-180.306
-173.407
-166.639
-160.009
-153.525
-147.192
-141.015
-134.999
-129.145
-123.457
-117.936
-112.583
-107.399
-102.383
-97.5358
-92.8559
-88.3421
-83.9925
-79.8052
-75.7778
-71.9077
-68.1921
-64.6278
-61.2115
-57.94
-54.8096
-51.8167
-48.9575
-46.2282
-43.6249
-41.1436
-38.7806
-36.5317
-34.3931
-32.3609
-30.4312
-28.6001
-26.8637
-25.2185
-23.6607
-22.1866
-20.7928
-19.4757
-18.2321
-17.0586
-15.952
-14.9093
-13.9274
-13.0034
-12.1345
-11.3179
-10.5512
-9.83168
-9.15699
-8.5248
-7.93289
-7.37911
-6.86143
-6.3779
-5.92667
-5.50595
-5.11408
-4.74946
-4.41058
-4.096
-3.80437
-3.53442
-3.28496
-3.05486
-2.84306
-2.64859
-2.47052
-2.30802
-2.1603
-2.02663
-1.90636
-1.79888
-1.70367
-1.62023
-1.54815
-1.48704
-1.43659
-1.39655
-1.3667
-1.34688
-1.33701
-297.26
-289.73
-282.07
-274.308
-266.477
-258.601
-250.703
-242.813
-234.947
-227.123
-219.36
-211.677
-204.088
-196.605
-189.238
-181.998
-174.895
-167.936
-161.131
-154.484
-148.001
-141.687
-135.543
-129.573
-123.779
-118.16
-112.719
-107.455
-102.368
-97.4563
-92.7188
-88.1537
-83.7589
-79.532
-75.4702
-71.5705
-67.8296
-64.2441
-60.8105
-57.525
-54.3838
-51.383
-48.5184
-45.7862
-43.182
-40.7019
-38.3416
-36.0971
-33.9642
-31.9388
-30.017
-28.1946
-26.4679
-24.8329
-23.2858
-21.8229
-20.4406
-19.1354
-17.9037
-16.7423
-15.6479
-14.6174
-13.6476
-12.7356
-11.8787
-11.0739
-10.3188
-9.61065
-8.94714
-8.3259
-7.74469
-7.20137
-6.69388
-6.22029
-5.77873
-5.36745
-4.98476
-4.62909
-4.29892
-3.99285
-3.70953
-3.44771
-3.2062
-2.98391
-2.77981
-2.59292
-2.42237
-2.26732
-2.12703
-2.0008
-1.888
-1.78807
-1.7005
-1.62485
-1.56071
-1.50776
-1.46574
-1.43441
-1.41361
-1.40325
-311.218
-303.335
-295.315
-287.189
-278.99
-270.744
-262.476
-254.215
-245.98
-237.788
-229.661
-221.617
-213.672
-205.837
-198.125
-190.544
-183.107
-175.822
-168.697
-161.738
-154.951
-148.34
-141.908
-135.658
-129.591
-123.709
-118.012
-112.501
-107.175
-102.033
-97.0726
-92.2932
-87.692
-83.2666
-79.0141
-74.9312
-71.0147
-67.2609
-63.666
-60.2263
-56.9376
-53.7958
-50.7967
-47.9361
-45.2097
-42.6131
-40.142
-37.7921
-35.559
-33.4386
-31.4265
-29.5186
-27.7108
-25.999
-24.3792
-22.8476
-21.4004
-20.0339
-18.7444
-17.5285
-16.3827
-15.3038
-14.2884
-13.3337
-12.4365
-11.5939
-10.8033
-10.0619
-9.36728
-8.71687
-8.10836
-7.53952
-7.00821
-6.51238
-6.05009
-5.61949
-5.21884
-4.84646
-4.50079
-4.18034
-3.88372
-3.6096
-3.35676
-3.12403
-2.91034
-2.71468
-2.53612
-2.37379
-2.22691
-2.09475
-1.97666
-1.87203
-1.78035
-1.70115
-1.63399
-1.57856
-1.53457
-1.50177
-1.47999
-1.46914
-325.1
-316.865
-308.487
-299.999
-291.434
-282.82
-274.183
-265.554
-256.951
-248.395
-239.905
-231.502
-223.203
-215.019
-206.962
-199.044
-191.275
-183.665
-176.222
-168.953
-161.863
-154.957
-148.238
-141.709
-135.371
-129.227
-123.276
-117.519
-111.955
-106.584
-101.402
-96.4098
-91.6035
-86.9807
-82.5385
-78.2735
-74.1822
-70.261
-66.5058
-62.9126
-59.4772
-56.1953
-53.0625
-50.0743
-47.2263
-44.5138
-41.9325
-39.4778
-37.1451
-34.9301
-32.8282
-30.8352
-28.9468
-27.1586
-25.4666
-23.8668
-22.355
-20.9275
-19.5805
-18.3104
-17.1135
-15.9864
-14.9258
-13.9284
-12.9912
-12.1111
-11.2852
-10.5107
-9.7851
-9.10568
-8.47003
-7.87582
-7.3208
-6.80286
-6.31995
-5.87015
-5.45162
-5.06263
-4.70155
-4.36681
-4.05695
-3.77061
-3.50649
-3.26338
-3.04015
-2.83576
-2.64924
-2.47967
-2.32624
-2.18819
-2.06483
-1.95554
-1.85977
-1.77703
-1.70688
-1.64897
-1.60302
-1.56875
-1.54601
-1.53467
-338.901
-330.317
-321.584
-312.735
-303.806
-294.827
-285.823
-276.827
-267.86
-258.94
-250.09
-241.33
-232.678
-224.147
-215.748
-207.494
-199.395
-191.462
-183.703
-176.125
-168.734
-161.535
-154.531
-147.725
-141.118
-134.713
-128.51
-122.508
-116.708
-111.108
-105.707
-100.503
-95.4923
-90.6733
-86.0425
-81.5964
-77.3315
-73.2438
-69.3292
-65.5835
-62.0022
-58.581
-55.3152
-52.2001
-49.2312
-46.4036
-43.7127
-41.1537
-38.7221
-36.413
-34.2219
-32.1443
-30.1757
-28.3116
-26.5478
-24.88
-23.304
-21.816
-20.4118
-19.0877
-17.84
-16.6651
-15.5594
-14.5197
-13.5427
-12.6252
-11.7643
-10.957
-10.2005
-9.49224
-8.82961
-8.21017
-7.6316
-7.09166
-6.58825
-6.11935
-5.68306
-5.27756
-4.90114
-4.55219
-4.22918
-3.93068
-3.65535
-3.40192
-3.16922
-2.95615
-2.76171
-2.58495
-2.425
-2.28109
-2.15249
-2.03856
-1.93872
-1.85247
-1.77934
-1.71898
-1.67107
-1.63535
-1.61164
-1.59982
-352.619
-343.688
-334.601
-325.394
-316.104
-306.761
-297.393
-288.033
-278.702
-269.421
-260.213
-251.099
-242.097
-233.22
-224.481
-215.893
-207.466
-199.212
-191.139
-183.254
-175.564
-168.074
-160.786
-153.704
-146.83
-140.166
-133.711
-127.467
-121.432
-115.606
-109.986
-104.571
-99.3576
-94.3435
-89.5252
-84.8992
-80.4617
-76.2085
-72.1354
-68.2381
-64.5119
-60.9522
-57.5542
-54.313
-51.2239
-48.2819
-45.4821
-42.8195
-40.2894
-37.8869
-35.6071
-33.4454
-31.3971
-29.4576
-27.6224
-25.887
-24.2473
-22.699
-21.238
-19.8603
-18.5621
-17.3396
-16.1892
-15.1074
-14.0909
-13.1362
-12.2405
-11.4005
-10.6134
-9.87647
-9.18701
-8.5425
-7.94051
-7.37871
-6.85493
-6.36705
-5.91309
-5.49118
-5.09953
-4.73645
-4.40037
-4.08979
-3.80331
-3.53962
-3.2975
-3.07581
-2.8735
-2.68958
-2.52316
-2.37342
-2.23961
-2.12107
-2.0172
-1.92745
-1.85137
-1.78856
-1.73871
-1.70155
-1.67688
-1.66458
-366.25
-356.973
-347.535
-337.972
-328.323
-318.619
-308.889
-299.167
-289.476
-279.836
-270.271
-260.805
-251.455
-242.235
-233.159
-224.238
-215.486
-206.912
-198.527
-190.338
-182.351
-174.571
-167.001
-159.646
-152.506
-145.584
-138.88
-132.395
-126.126
-120.075
-114.238
-108.613
-103.198
-97.9905
-92.9859
-88.1811
-83.572
-79.1544
-74.9239
-70.8759
-67.0057
-63.3084
-59.779
-56.4126
-53.204
-50.1483
-47.2402
-44.4748
-41.8469
-39.3514
-36.9836
-34.7383
-32.6108
-30.5963
-28.6901
-26.8877
-25.1846
-23.5765
-22.059
-20.628
-19.2796
-18.0099
-16.815
-15.6914
-14.6356
-13.644
-12.7136
-11.8412
-11.0237
-10.2583
-9.54215
-8.87272
-8.24745
-7.66395
-7.11991
-6.61317
-6.14167
-5.70345
-5.29666
-4.91955
-4.57047
-4.24789
-3.95033
-3.67645
-3.42497
-3.19471
-2.98458
-2.79355
-2.6207
-2.46517
-2.32619
-2.20307
-2.09517
-2.00196
-1.92293
-1.8577
-1.80593
-1.76733
-1.7417
-1.72893
-379.791
-370.171
-360.384
-350.467
-340.462
-330.399
-320.309
-310.227
-300.178
-290.182
-280.264
-270.448
-260.752
-251.191
-241.779
-232.528
-223.452
-214.562
-205.867
-197.375
-189.093
-181.025
-173.175
-165.548
-158.144
-150.966
-144.015
-137.289
-130.789
-124.514
-118.461
-112.629
-107.014
-101.613
-96.4237
-91.4412
-86.6617
-82.0808
-77.6939
-73.4962
-69.4829
-65.6489
-61.9891
-58.4982
-55.171
-52.0023
-48.9867
-46.119
-43.394
-40.8063
-38.3509
-36.0226
-33.8164
-31.7275
-29.7508
-27.8818
-26.1157
-24.4481
-22.8745
-21.3907
-19.9924
-18.6757
-17.4367
-16.2716
-15.1766
-14.1485
-13.1837
-12.2789
-11.4312
-10.6375
-9.89493
-9.20075
-8.55237
-7.94729
-7.38314
-6.85767
-6.36874
-5.91431
-5.49248
-5.10143
-4.73945
-4.40493
-4.09638
-3.81237
-3.5516
-3.31282
-3.09492
-2.89683
-2.71759
-2.55631
-2.41219
-2.28452
-2.17264
-2.07597
-1.99403
-1.92638
-1.8727
-1.83267
-1.80609
-1.79285
-393.238
-383.277
-373.143
-362.876
-352.516
-342.097
-331.65
-321.211
-310.806
-300.456
-290.187
-280.023
-269.984
-260.085
-250.339
-240.761
-231.364
-222.159
-213.156
-204.363
-195.788
-187.434
-179.307
-171.409
-163.744
-156.312
-149.114
-142.15
-135.42
-128.922
-122.655
-116.616
-110.803
-105.211
-99.8376
-94.6788
-89.73
-84.9869
-80.4447
-76.0984
-71.943
-67.9733
-64.1838
-60.5693
-57.1244
-53.8435
-50.7211
-47.7519
-44.9304
-42.2511
-39.7087
-37.298
-35.0137
-32.8508
-30.8042
-28.869
-27.0404
-25.3137
-23.6844
-22.148
-20.7003
-19.337
-18.0541
-16.8477
-15.714
-14.6494
-13.6504
-12.7137
-11.836
-11.0141
-10.2453
-9.52651
-8.85517
-8.22867
-7.64455
-7.10047
-6.59423
-6.12371
-5.68695
-5.28205
-4.90725
-4.5609
-4.24142
-3.94735
-3.67734
-3.43012
-3.2045
-2.9994
-2.81381
-2.64682
-2.4976
-2.3654
-2.24956
-2.14948
-2.06463
-1.99459
-1.939
-1.89756
-1.87004
-1.85633
-406.587
-396.289
-385.811
-375.195
-364.483
-353.71
-342.909
-332.116
-321.357
-310.656
-300.038
-289.529
-279.149
-268.914
-258.838
-248.935
-239.218
-229.701
-220.392
-211.301
-202.434
-193.797
-185.394
-177.228
-169.302
-161.618
-154.176
-146.976
-140.017
-133.299
-126.819
-120.575
-114.564
-108.783
-103.227
-97.893
-92.7762
-87.8721
-83.1757
-78.6819
-74.3854
-70.2808
-66.3628
-62.6256
-59.0637
-55.6714
-52.443
-49.373
-46.4557
-43.6854
-41.0568
-38.5642
-36.2024
-33.966
-31.8499
-29.849
-27.9584
-26.1731
-24.4885
-22.8999
-21.403
-19.9934
-18.667
-17.4196
-16.2475
-15.1467
-14.1138
-13.1453
-12.2378
-11.3881
-10.5931
-9.84992
-9.15579
-8.50802
-7.90407
-7.34152
-6.81809
-6.33161
-5.88001
-5.46137
-5.07385
-4.71573
-4.38541
-4.08136
-3.80219
-3.54657
-3.31329
-3.10122
-2.90933
-2.73668
-2.58239
-2.44571
-2.32593
-2.22245
-2.13472
-2.0623
-2.00483
-1.96198
-1.93353
-1.91935
-419.837
-409.203
-398.383
-387.421
-376.361
-365.237
-354.083
-342.939
-331.829
-320.779
-309.815
-298.964
-288.246
-277.677
-267.273
-257.047
-247.014
-237.186
-227.574
-218.187
-209.031
-200.112
-191.435
-183.004
-174.82
-166.885
-159.2
-151.765
-144.58
-137.643
-130.952
-124.504
-118.297
-112.328
-106.591
-101.083
-95.7995
-90.7356
-85.8861
-81.2459
-76.8094
-72.5711
-68.5253
-64.6664
-60.9884
-57.4855
-54.152
-50.9819
-47.9695
-45.109
-42.3947
-39.8209
-37.3821
-35.0729
-32.8878
-30.8217
-28.8694
-27.026
-25.2865
-23.6462
-22.1005
-20.645
-19.2753
-17.9873
-16.7769
-15.6403
-14.5738
-13.5737
-12.6366
-11.7592
-10.9383
-10.1709
-9.45416
-8.78527
-8.16164
-7.58076
-7.04027
-6.53794
-6.07162
-5.63934
-5.23919
-4.86941
-4.52832
-4.21436
-3.92609
-3.66214
-3.42126
-3.20228
-3.00414
-2.82586
-2.66654
-2.5254
-2.40173
-2.29487
-2.20429
-2.12951
-2.07016
-2.02591
-1.99654
-1.98189
-432.983
-422.016
-410.857
-399.552
-388.145
-376.673
-365.17
-353.677
-342.22
-330.823
-319.516
-308.325
-297.272
-286.372
-275.641
-265.095
-254.748
-244.613
-234.7
-225.019
-215.576
-206.378
-197.43
-188.734
-180.293
-172.11
-164.185
-156.517
-149.107
-141.953
-135.052
-128.403
-122.002
-115.845
-109.928
-104.248
-98.7992
-93.5767
-88.5754
-83.7898
-79.2144
-74.8434
-70.671
-66.6912
-62.898
-59.2855
-55.8476
-52.5783
-49.4715
-46.5214
-43.7221
-41.0678
-38.5526
-36.1711
-33.9176
-31.7868
-29.7734
-27.8722
-26.0782
-24.3866
-22.7925
-21.2914
-19.8788
-18.5505
-17.3022
-16.1301
-15.0301
-13.9987
-13.0322
-12.1274
-11.2808
-10.4894
-9.75018
-9.06036
-8.4172
-7.81813
-7.26072
-6.74265
-6.26174
-5.81592
-5.40324
-5.02188
-4.67011
-4.34632
-4.04902
-3.77681
-3.52839
-3.30255
-3.09821
-2.91434
-2.75004
-2.60448
-2.47693
-2.36673
-2.27331
-2.19619
-2.13498
-2.08935
-2.05905
-2.04395
-446.022
-434.724
-423.23
-411.585
-399.834
-388.016
-376.167
-364.328
-352.525
-340.786
-329.138
-317.611
-306.224
-294.996
-283.942
-273.079
-262.42
-251.979
-241.768
-231.795
-222.068
-212.593
-203.375
-194.417
-185.723
-177.293
-169.129
-161.231
-153.597
-146.228
-139.119
-132.27
-125.676
-119.333
-113.239
-107.387
-101.774
-96.3947
-91.2428
-86.3131
-81.5999
-77.0973
-72.7992
-68.6995
-64.7922
-61.0709
-57.5294
-54.1616
-50.9613
-47.9224
-45.0388
-42.3045
-39.7136
-37.2603
-34.939
-32.744
-30.67
-28.7116
-26.8636
-25.121
-23.4789
-21.9326
-20.4775
-19.1091
-17.8233
-16.6158
-15.4827
-14.4203
-13.4247
-12.4926
-11.6205
-10.8053
-10.0438
-9.33321
-8.67068
-8.05357
-7.47937
-6.94571
-6.45031
-5.99106
-5.56596
-5.17311
-4.81075
-4.47721
-4.17096
-3.89055
-3.63464
-3.40201
-3.19151
-3.00211
-2.83286
-2.68292
-2.55152
-2.43801
-2.34177
-2.26233
-2.19928
-2.15227
-2.12106
-2.10551
-458.951
-447.326
-435.499
-423.515
-411.424
-399.264
-387.071
-374.888
-362.744
-350.664
-338.679
-326.817
-315.101
-303.547
-292.173
-280.995
-270.027
-259.284
-248.776
-238.514
-228.505
-218.756
-209.27
-200.053
-191.107
-182.432
-174.032
-165.904
-158.05
-150.466
-143.152
-136.104
-129.319
-122.793
-116.521
-110.5
-104.725