/*--------------------------------*- C++ -*----------------------------------*\
| =========                 |                                                 |
| \\      /  F ield         | OpenFOAM: The Open Source CFD Toolbox           |
|  \\    /   O peration     | Version:  2406                                  |
|   \\  /    A nd           | Website:  www.openfoam.com                      |
|    \\/     M anipulation  |                                                 |
\*---------------------------------------------------------------------------*/
FoamFile
{
    version     2.0;
    format      ascii;
    arch        "LSB;label=32;scalar=64";
    class       volScalarField;
    location    "40";
    object      gradTx;
}
// * * * * * * * * * * * * * * * * * * * * * * * * * * * * * * * * * * * * * //

dimensions      [0 -1 0 1 0 0 0];

internalField   nonuniform List<scalar> 
20000
(
-7.23913
-6.78674
-6.35138
-5.93336
-5.53331
-5.15176
-4.78813
-4.44253
-4.11535
-3.80614
-3.51435
-3.23959
-2.98152
-2.73968
-2.51353
-2.30244
-2.1058
-1.92295
-1.75326
-1.59608
-1.45076
-1.31666
-1.19314
-1.07956
-0.97533
-0.879836
-0.792505
-0.712777
-0.640117
-0.574012
-0.513974
-0.459539
-0.410267
-0.365742
-0.325574
-0.289398
-0.256869
-0.227668
-0.201496
-0.178078
-0.157157
-0.138497
-0.12188
-0.107106
-0.09399
-0.082365
-0.0720773
-0.062987
-0.0549671
-0.0479024
-0.0416885
-0.0362312
-0.0314456
-0.0272552
-0.0235914
-0.0203928
-0.0176043
-0.015177
-0.0130672
-0.0112358
-0.00964851
-0.00827468
-0.00708729
-0.00606247
-0.00517922
-0.00441901
-0.00376562
-0.0032048
-0.00272409
-0.00231261
-0.00196085
-0.00166055
-0.00140453
-0.00118654
-0.00100117
-0.000843752
-0.000710243
-0.000597158
-0.000501496
-0.000420677
-0.000352488
-0.00029503
-0.000246679
-0.000206047
-0.000171951
-0.000143383
-0.000119487
-9.95353e-05
-8.29142e-05
-6.91044e-05
-5.76689e-05
-4.82417e-05
-4.05176e-05
-3.42435e-05
-2.9212e-05
-2.52551e-05
-2.22398e-05
-2.00638e-05
-1.86531e-05
-1.79592e-05
-21.7157
-20.3585
-19.0523
-17.7988
-16.5988
-15.4537
-14.363
-13.3267
-12.3452
-11.4175
-10.5421
-9.71792
-8.94382
-8.21839
-7.53998
-6.90677
-6.31688
-5.76838
-5.25935
-4.78785
-4.35193
-3.94965
-3.57911
-3.23842
-2.92575
-2.63929
-2.37732
-2.13815
-1.92019
-1.7219
-1.5418
-1.3785
-1.2307
-1.09714
-0.976643
-0.868122
-0.770543
-0.682947
-0.604439
-0.534191
-0.471434
-0.415458
-0.365611
-0.321291
-0.281947
-0.247075
-0.216214
-0.188945
-0.164888
-0.143696
-0.125055
-0.108685
-0.094329
-0.0817588
-0.0707684
-0.0611733
-0.0528087
-0.0455274
-0.0391983
-0.0337047
-0.0289432
-0.024822
-0.0212601
-0.0181859
-0.0155364
-0.013256
-0.0112959
-0.00961362
-0.00817161
-0.00693725
-0.00588207
-0.00498126
-0.00421324
-0.00355932
-0.00300327
-0.00253105
-0.00213056
-0.00179133
-0.00150437
-0.00126193
-0.00105738
-0.000885019
-0.000739977
-0.000618091
-0.000515811
-0.000430114
-0.000358431
-0.000298582
-0.000248723
-0.000207297
-0.000172993
-0.000144714
-0.000121543
-0.000102722
-8.76291e-05
-7.57595e-05
-6.67142e-05
-6.01869e-05
-5.59551e-05
-5.38739e-05
-36.187
-33.9254
-31.7486
-29.6598
-27.6602
-25.7517
-23.9343
-22.2077
-20.5721
-19.026
-17.5672
-16.1938
-14.9039
-13.6951
-12.5646
-11.5094
-10.5264
-9.61239
-8.76414
-7.97843
-7.25201
-6.58167
-5.9642
-5.39649
-4.87545
-4.3981
-3.96155
-3.563
-3.19979
-2.86935
-2.56924
-2.29713
-2.05083
-1.82826
-1.62747
-1.44663
-1.28403
-1.13806
-1.00723
-0.890172
-0.785594
-0.692317
-0.609251
-0.535397
-0.469834
-0.411723
-0.360297
-0.314857
-0.274768
-0.239453
-0.208391
-0.181112
-0.157189
-0.136242
-0.117928
-0.101939
-0.0880001
-0.0758666
-0.0653197
-0.0561652
-0.0482307
-0.0413632
-0.0354277
-0.0303049
-0.0258897
-0.0220896
-0.0188235
-0.0160201
-0.0136171
-0.0115602
-0.00980185
-0.00830073
-0.00702092
-0.00593123
-0.00500463
-0.00421773
-0.00355035
-0.00298506
-0.00250687
-0.00210288
-0.00176201
-0.00147479
-0.00123309
-0.00102998
-0.000859546
-0.000716741
-0.000597289
-0.000497557
-0.000414471
-0.000345439
-0.000288275
-0.000241151
-0.000202539
-0.000171177
-0.000146025
-0.000126246
-0.000111173
-0.000100296
-9.3244e-05
-8.97763e-05
-50.6492
-47.484
-44.4372
-41.5134
-38.7147
-36.0434
-33.4997
-31.0832
-28.7939
-26.6297
-24.5879
-22.6657
-20.8603
-19.1684
-17.5861
-16.1092
-14.7333
-13.454
-12.2668
-11.167
-10.1503
-9.21205
-8.34782
-7.55321
-6.82394
-6.15581
-5.54479
-4.98697
-4.47861
-4.0161
-3.59605
-3.21519
-2.87045
-2.55893
-2.2779
-2.02478
-1.79719
-1.59289
-1.40978
-1.24593
-1.09956
-0.969004
-0.852742
-0.749371
-0.657606
-0.576271
-0.504292
-0.440692
-0.38458
-0.335152
-0.291676
-0.253494
-0.220011
-0.190692
-0.165058
-0.142679
-0.12317
-0.106187
-0.0914251
-0.078612
-0.0675063
-0.0578942
-0.0495866
-0.0424165
-0.0362367
-0.0309179
-0.0263464
-0.0224226
-0.0190593
-0.0161803
-0.0137192
-0.0116182
-0.00982688
-0.00830169
-0.00700476
-0.00590338
-0.00496927
-0.00417806
-0.00350876
-0.00294331
-0.00246621
-0.0020642
-0.00172591
-0.00144163
-0.00120307
-0.00100319
-0.000836001
-0.00069641
-0.000580119
-0.000483497
-0.000403488
-0.00033753
-0.000283487
-0.000239589
-0.000204386
-0.000176701
-0.000155604
-0.00014038
-0.000130511
-0.000125658
-65.0988
-61.0306
-57.1148
-53.3567
-49.7597
-46.3263
-43.0569
-39.951
-37.0086
-34.2269
-31.6025
-29.1319
-26.8116
-24.6371
-22.6034
-20.7051
-18.9367
-17.2923
-15.7664
-14.3529
-13.0461
-11.8402
-10.7294
-9.70808
-8.77075
-7.91201
-7.12667
-6.40971
-5.75631
-5.16186
-4.62197
-4.13245
-3.68936
-3.28897
-2.92776
-2.60244
-2.30992
-2.04732
-1.81198
-1.60139
-1.41325
-1.24545
-1.09602
-0.963159
-0.845215
-0.740676
-0.648162
-0.566417
-0.494298
-0.430768
-0.374889
-0.325813
-0.282778
-0.245095
-0.212148
-0.183384
-0.158309
-0.136481
-0.117508
-0.101039
-0.0867653
-0.074411
-0.0637333
-0.0545176
-0.0465748
-0.0397385
-0.0338628
-0.0288196
-0.0244968
-0.0207964
-0.0176332
-0.0149328
-0.0126304
-0.0106701
-0.00900317
-0.00758758
-0.00638698
-0.00537004
-0.00450979
-0.00378302
-0.00316981
-0.00265311
-0.00221831
-0.00185292
-0.0015463
-0.0012894
-0.00107451
-0.000895094
-0.000745626
-0.000621438
-0.000518602
-0.000433827
-0.000364365
-0.000307944
-0.000262697
-0.000227115
-0.000199999
-0.000180432
-0.000167746
-0.000161509
-79.5324
-74.5622
-69.7782
-65.187
-60.7924
-56.5977
-52.6035
-48.809
-45.2141
-41.8156
-38.6093
-35.591
-32.7563
-30.0996
-27.615
-25.2958
-23.1353
-21.1264
-19.2621
-17.5352
-15.9387
-14.4654
-13.1083
-11.8605
-10.7154
-9.66626
-8.7068
-7.83087
-7.0326
-6.30635
-5.64675
-5.0487
-4.50737
-4.0182
-3.5769
-3.17945
-2.82207
-2.50126
-2.21373
-1.95645
-1.7266
-1.52159
-1.33903
-1.17671
-1.03262
-0.904898
-0.791873
-0.692003
-0.603893
-0.526277
-0.458009
-0.398053
-0.345475
-0.299438
-0.259186
-0.224044
-0.193409
-0.166742
-0.143562
-0.123442
-0.106003
-0.0909095
-0.0778643
-0.0666052
-0.0569014
-0.0485494
-0.0413709
-0.0352095
-0.0299282
-0.0254075
-0.0215429
-0.0182437
-0.0154309
-0.0130359
-0.0109994
-0.00926992
-0.00780312
-0.00656071
-0.00550972
-0.0046218
-0.00387264
-0.00324137
-0.00271016
-0.00226376
-0.00188916
-0.0015753
-0.00131276
-0.00109356
-0.000910952
-0.000759228
-0.000633591
-0.000530018
-0.000445156
-0.000376225
-0.000320945
-0.000277473
-0.000244345
-0.000220439
-0.000204942
-0.000197322
-93.9464
-88.0754
-82.4245
-77.0011
-71.8101
-66.8552
-62.1371
-57.655
-53.4085
-49.394
-45.6066
-42.0414
-38.6929
-35.5548
-32.6198
-29.8803
-27.3282
-24.9552
-22.753
-20.7132
-18.8273
-17.087
-15.484
-14.0101
-12.6574
-11.4181
-10.2848
-9.2501
-8.30715
-7.44928
-6.67013
-5.96369
-5.32426
-4.74644
-4.22516
-3.75568
-3.33353
-2.95457
-2.61493
-2.31102
-2.03952
-1.79736
-1.58171
-1.38997
-1.21976
-1.0689
-0.935388
-0.817418
-0.71334
-0.621657
-0.541016
-0.470194
-0.408088
-0.353706
-0.306159
-0.264649
-0.228462
-0.196962
-0.16958
-0.145814
-0.125215
-0.107386
-0.0919761
-0.0786765
-0.067214
-0.0573483
-0.0488689
-0.0415908
-0.0353523
-0.0300122
-0.0254473
-0.0215501
-0.0182275
-0.0153985
-0.0129929
-0.01095
-0.00921734
-0.00774976
-0.00650829
-0.00545946
-0.00457452
-0.00382884
-0.00320135
-0.00267404
-0.00223155
-0.0018608
-0.00155068
-0.00129176
-0.00107606
-0.000896833
-0.000748426
-0.000626081
-0.000525838
-0.000444414
-0.000379116
-0.000327764
-0.000288632
-0.000260394
-0.000242088
-0.000233087
-108.337
-101.567
-95.0504
-88.7963
-82.8101
-77.0962
-71.6553
-66.4867
-61.5897
-56.9601
-52.5926
-48.4813
-44.62
-41.0011
-37.6166
-34.4575
-31.5144
-28.7779
-26.2384
-23.886
-21.7113
-19.7044
-17.8558
-16.1562
-14.5963
-13.1672
-11.8602
-10.667
-9.57965
-8.59037
-7.69187
-6.87722
-6.13983
-5.4735
-4.87238
-4.33098
-3.84417
-3.40716
-3.01549
-2.66503
-2.35194
-2.07268
-1.824
-1.60289
-1.40661
-1.23263
-1.07867
-0.942632
-0.822611
-0.716884
-0.62389
-0.542219
-0.470599
-0.407888
-0.353057
-0.305189
-0.263458
-0.227133
-0.195557
-0.16815
-0.144395
-0.123835
-0.106065
-0.0907284
-0.07751
-0.0661331
-0.0563548
-0.0479618
-0.0407677
-0.0346096
-0.0293454
-0.0248513
-0.0210197
-0.0177573
-0.0149832
-0.0126274
-0.0106293
-0.00893692
-0.00750527
-0.00629577
-0.00527527
-0.00441537
-0.00369176
-0.00308367
-0.0025734
-0.00214586
-0.00178823
-0.00148964
-0.0012409
-0.00103422
-0.000863078
-0.000721992
-0.000606392
-0.000512495
-0.000437194
-0.000377976
-0.00033285
-0.000300286
-0.000279176
-0.000268796
-122.701
-115.033
-107.653
-100.569
-93.7897
-87.3182
-81.1558
-75.3019
-69.7557
-64.5123
-59.5657
-54.9093
-50.536
-46.4374
-42.6041
-39.0261
-35.6928
-32.5935
-29.7172
-27.053
-24.5899
-22.3169
-20.2232
-18.2983
-16.5315
-14.913
-13.4327
-12.0813
-10.8498
-9.72934
-8.71171
-7.78905
-6.9539
-6.19922
-5.51839
-4.90521
-4.35385
-3.8589
-3.4153
-3.01838
-2.66377
-2.34749
-2.06584
-1.81541
-1.5931
-1.39606
-1.22169
-1.06761
-0.931679
-0.811934
-0.70661
-0.61411
-0.532995
-0.461969
-0.399869
-0.345653
-0.29839
-0.257248
-0.221486
-0.190445
-0.16354
-0.140254
-0.120128
-0.102758
-0.087787
-0.0749017
-0.0638268
-0.054321
-0.0461731
-0.0391985
-0.0332363
-0.0281463
-0.0238067
-0.0201118
-0.0169698
-0.0143016
-0.0120387
-0.0101219
-0.00850041
-0.00713054
-0.00597473
-0.00500082
-0.00418126
-0.00349255
-0.00291462
-0.00243039
-0.00202534
-0.00168716
-0.00140543
-0.00117135
-0.000977519
-0.000817726
-0.000686799
-0.000580451
-0.000495166
-0.000428096
-0.000376986
-0.000340105
-0.000316195
-0.00030444
-137.035
-128.471
-120.229
-112.318
-104.746
-97.5186
-90.6363
-84.0987
-77.9044
-72.0485
-66.524
-61.3238
-56.4396
-51.8622
-47.5811
-43.5851
-39.8624
-36.401
-33.1887
-30.2133
-27.4625
-24.9239
-22.5857
-20.4358
-18.4627
-16.6551
-15.0019
-13.4927
-12.1172
-10.8659
-9.72941
-8.69896
-7.76624
-6.9234
-6.16304
-5.47823
-4.86246
-4.30969
-3.81428
-3.37098
-2.97495
-2.62173
-2.30717
-2.02749
-1.77921
-1.55915
-1.36441
-1.19233
-1.04052
-0.906783
-0.789156
-0.685851
-0.595259
-0.515936
-0.446581
-0.386032
-0.333248
-0.287299
-0.24736
-0.212693
-0.182645
-0.156639
-0.134162
-0.114762
-0.0980423
-0.0836518
-0.0712831
-0.0606669
-0.0515671
-0.0437777
-0.037119
-0.0314344
-0.0265879
-0.0224613
-0.0189523
-0.0159724
-0.0134451
-0.0113044
-0.00949346
-0.00796356
-0.00667273
-0.00558504
-0.00466974
-0.00390057
-0.00325512
-0.00271432
-0.00226196
-0.00188427
-0.00156963
-0.0013082
-0.00109172
-0.000913261
-0.000767038
-0.000648266
-0.000553017
-0.000478112
-0.000421031
-0.000379841
-0.000353139
-0.00034001
-151.335
-141.878
-132.775
-124.039
-115.677
-107.695
-100.094
-92.8746
-86.034
-79.5669
-73.466
-67.7231
-62.3293
-57.2742
-52.5464
-48.1334
-44.0222
-40.1996
-36.6521
-33.3662
-30.3282
-27.5248
-24.9426
-22.5684
-20.3894
-18.3931
-16.5674
-14.9007
-13.3817
-11.9998
-10.7447
-9.60672
-8.57667
-7.64588
-6.80617
-6.0499
-5.36988
-4.75942
-4.21231
-3.72275
-3.2854
-2.89531
-2.54793
-2.23906
-1.96488
-1.72185
-1.50679
-1.31675
-1.1491
-1.00141
-0.871507
-0.757421
-0.657377
-0.569775
-0.493183
-0.426316
-0.368023
-0.31728
-0.273173
-0.234888
-0.201705
-0.172985
-0.148162
-0.126738
-0.108274
-0.0923812
-0.0787219
-0.0669978
-0.0569484
-0.0483462
-0.0409926
-0.0347148
-0.0293625
-0.0248053
-0.0209301
-0.0176392
-0.0148482
-0.012484
-0.0104842
-0.00879463
-0.00736909
-0.00616789
-0.00515707
-0.00430763
-0.00359483
-0.00299759
-0.00249802
-0.00208092
-0.00173344
-0.00144473
-0.00120566
-0.00100857
-0.00084709
-0.000715923
-0.000610734
-0.000528011
-0.000464973
-0.000419485
-0.000389996
-0.000375497
-165.598
-155.249
-145.288
-135.729
-126.579
-117.845
-109.528
-101.628
-94.1423
-87.0658
-80.3898
-74.1057
-68.2036
-62.6721
-57.4987
-52.6697
-48.1711
-43.9882
-40.1064
-36.5108
-33.1865
-30.1189
-27.2933
-24.6953
-22.311
-20.1265
-18.1288
-16.305
-14.6429
-13.1307
-11.7573
-10.5121
-9.38499
-8.36647
-7.44763
-6.62007
-5.87596
-5.20798
-4.6093
-4.0736
-3.59503
-3.16818
-2.78806
-2.45008
-2.15006
-1.88413
-1.6488
-1.44085
-1.2574
-1.09579
-0.953643
-0.828806
-0.719332
-0.623475
-0.539664
-0.466495
-0.402708
-0.347183
-0.298918
-0.257025
-0.220715
-0.189288
-0.162126
-0.138683
-0.118478
-0.101088
-0.0861413
-0.0733122
-0.0623157
-0.0529028
-0.0448561
-0.0379866
-0.0321299
-0.0271432
-0.0229028
-0.0193017
-0.0162476
-0.0136607
-0.0114723
-0.00962353
-0.00806364
-0.00674922
-0.00564314
-0.00471364
-0.00393365
-0.00328012
-0.00273347
-0.00227705
-0.00189682
-0.0015809
-0.0013193
-0.00110364
-0.000926935
-0.000783405
-0.000668301
-0.000577782
-0.000508802
-0.000459026
-0.000426758
-0.000410893
-179.82
-168.582
-157.766
-147.385
-137.45
-127.965
-118.934
-110.356
-102.227
-94.5431
-87.2938
-80.4701
-74.061
-68.0545
-62.4368
-57.1931
-52.3081
-47.766
-43.5508
-39.6464
-36.0366
-32.7056
-29.6373
-26.8162
-24.2271
-21.855
-19.6857
-17.7053
-15.9004
-14.2584
-12.7671
-11.4149
-10.191
-9.085
-8.08724
-7.18862
-6.3806
-5.65525
-5.00515
-4.42345
-3.90378
-3.44027
-3.0275
-2.6605
-2.33471
-2.04594
-1.7904
-1.5646
-1.36538
-1.1899
-1.03554
-0.899985
-0.78111
-0.67702
-0.586012
-0.506558
-0.437294
-0.377
-0.32459
-0.2791
-0.239671
-0.205545
-0.17605
-0.150594
-0.128653
-0.10977
-0.0935394
-0.0796086
-0.0676677
-0.0574463
-0.0487086
-0.0412491
-0.0348894
-0.0294744
-0.0248698
-0.0209595
-0.017643
-0.0148339
-0.0124576
-0.0104501
-0.0087562
-0.0073289
-0.00612782
-0.00511849
-0.00427151
-0.00356185
-0.00296824
-0.00247263
-0.00205974
-0.00171669
-0.00143262
-0.00119843
-0.00100655
-0.000850695
-0.000725705
-0.000627411
-0.000552507
-0.000498456
-0.000463416
-0.000446189
-193.997
-181.874
-170.205
-159.006
-148.286
-138.054
-128.311
-119.056
-110.287
-101.997
-94.1763
-86.8145
-79.9002
-73.4202
-67.3595
-61.7024
-56.4322
-51.532
-46.9844
-42.7722
-38.8778
-35.2842
-31.974
-28.9305
-26.1372
-23.5781
-21.2378
-19.1012
-17.1541
-15.3826
-13.7737
-12.3149
-10.9945
-9.80128
-8.72486
-7.75539
-6.88367
-6.10112
-5.39977
-4.77221
-4.21157
-3.71151
-3.2662
-2.87026
-2.51878
-2.20725
-1.93156
-1.68795
-1.47303
-1.28371
-1.11719
-0.970943
-0.842695
-0.730399
-0.632215
-0.546497
-0.471772
-0.406724
-0.350182
-0.301105
-0.258567
-0.221751
-0.189931
-0.162467
-0.138797
-0.118425
-0.100915
-0.0858853
-0.0730029
-0.0619757
-0.052549
-0.0445014
-0.0376403
-0.0317983
-0.0268307
-0.0226121
-0.0190341
-0.0160036
-0.0134399
-0.011274
-0.00944662
-0.00790677
-0.00661099
-0.00552208
-0.00460832
-0.00384271
-0.00320229
-0.0026676
-0.00222216
-0.00185205
-0.00154558
-0.00129293
-0.00108592
-0.000917777
-0.000782932
-0.000676887
-0.000596077
-0.000537764
-0.000499961
-0.000481375
-208.127
-195.12
-182.601
-170.587
-159.087
-148.11
-137.657
-127.728
-118.32
-109.426
-101.036
-93.1376
-85.7197
-78.7677
-72.2656
-66.1964
-60.5424
-55.2852
-50.4065
-45.8874
-41.7095
-37.854
-34.3027
-31.0376
-28.0409
-25.2954
-22.7846
-20.4924
-18.4035
-16.5029
-14.7769
-13.2118
-11.7952
-10.5151
-9.36033
-8.32024
-7.38503
-6.54549
-5.79306
-5.11979
-4.51831
-3.98184
-3.50409
-3.07932
-2.70224
-2.36802
-2.07224
-1.8109
-1.58032
-1.37721
-1.19856
-1.04166
-0.904073
-0.783597
-0.678262
-0.586301
-0.506133
-0.436348
-0.375688
-0.323036
-0.2774
-0.237902
-0.203764
-0.1743
-0.148906
-0.12705
-0.108265
-0.0921409
-0.0783202
-0.0664898
-0.0563766
-0.0477428
-0.0403819
-0.0341144
-0.028785
-0.0242591
-0.0204206
-0.0171693
-0.0144189
-0.0120952
-0.0101347
-0.00848271
-0.00709254
-0.00592431
-0.00494399
-0.00412262
-0.00343555
-0.00286192
-0.00238403
-0.00198697
-0.00165817
-0.00138712
-0.00116503
-0.000984634
-0.000839966
-0.000726197
-0.000639501
-0.00057694
-0.000536384
-0.000516444
-222.205
-208.319
-194.953
-182.126
-169.848
-158.128
-146.968
-136.368
-126.323
-116.828
-107.87
-99.4377
-91.5181
-84.0958
-77.1538
-70.6741
-64.6376
-59.0249
-53.8161
-48.9914
-44.5308
-40.4146
-36.6231
-33.137
-29.9376
-27.0065
-24.3258
-21.8786
-19.6483
-17.6192
-15.7764
-14.1055
-12.5931
-11.2264
-9.99348
-8.88304
-7.88457
-6.98825
-6.18492
-5.4661
-4.82394
-4.25118
-3.74112
-3.28761
-2.88502
-2.5282
-2.21241
-1.93339
-1.68722
-1.47037
-1.27963
-1.11212
-0.965227
-0.836602
-0.724142
-0.625961
-0.54037
-0.465864
-0.401101
-0.344887
-0.296165
-0.253995
-0.217548
-0.186091
-0.158979
-0.135644
-0.115588
-0.0983738
-0.0836182
-0.0709875
-0.0601902
-0.0509724
-0.0431136
-0.0364222
-0.0307322
-0.0259001
-0.021802
-0.0183307
-0.0153943
-0.0129135
-0.0108203
-0.00905655
-0.00757234
-0.00632509
-0.00527846
-0.00440152
-0.00366797
-0.00305553
-0.00254531
-0.00212139
-0.00177035
-0.00148096
-0.00124385
-0.00105125
-0.000896795
-0.00077533
-0.000682768
-0.000615975
-0.000572676
-0.000551387
-236.229
-221.466
-207.257
-193.619
-180.567
-168.108
-156.244
-144.974
-134.296
-124.201
-114.678
-105.713
-97.2938
-89.4031
-82.0231
-75.1344
-68.7169
-62.7499
-57.2124
-52.0832
-47.3411
-42.9651
-38.9344
-35.2283
-31.827
-28.7108
-25.861
-23.2594
-20.8883
-18.7312
-16.772
-14.9957
-13.3878
-11.9349
-10.6242
-9.44366
-8.38217
-7.42928
-6.57525
-5.81107
-5.12838
-4.51947
-3.97722
-3.49509
-3.0671
-2.68775
-2.35204
-2.05541
-1.7937
-1.56317
-1.36039
-1.18231
-1.02614
-0.889401
-0.769844
-0.665466
-0.574473
-0.495265
-0.426415
-0.366654
-0.314856
-0.270025
-0.231278
-0.197836
-0.169013
-0.144205
-0.122883
-0.104582
-0.0888956
-0.0754678
-0.063989
-0.0541895
-0.0458346
-0.0387209
-0.0326718
-0.0275348
-0.023178
-0.0194877
-0.0163659
-0.0137285
-0.0115032
-0.00962817
-0.00805029
-0.00672431
-0.00561162
-0.00467933
-0.00389949
-0.00324839
-0.00270597
-0.00225529
-0.0018821
-0.00157444
-0.00132236
-0.00111761
-0.000953404
-0.000824272
-0.000725868
-0.000654859
-0.000608827
-0.000586194
-250.194
-234.558
-219.509
-205.066
-191.241
-178.046
-165.48
-153.544
-142.235
-131.543
-121.457
-111.963
-103.046
-94.6884
-86.872
-79.5761
-72.7793
-66.4595
-60.5946
-55.1622
-50.1398
-45.5051
-41.236
-37.3109
-33.7085
-30.4081
-27.3899
-24.6344
-22.1232
-19.8385
-17.7636
-15.8822
-14.1793
-12.6405
-11.2522
-10.0019
-8.8777
-7.86847
-6.96396
-6.15461
-5.43156
-4.78665
-4.21234
-3.70171
-3.24842
-2.84664
-2.49109
-2.17692
-1.89974
-1.65558
-1.44082
-1.25221
-1.08681
-0.941981
-0.815355
-0.704807
-0.608435
-0.524544
-0.451624
-0.38833
-0.33347
-0.285988
-0.24495
-0.209531
-0.179005
-0.152731
-0.130148
-0.110765
-0.0941511
-0.0799294
-0.067772
-0.0573932
-0.0485444
-0.0410101
-0.0346034
-0.0291627
-0.0245483
-0.0206398
-0.0173335
-0.0145402
-0.0121833
-0.0101974
-0.00852625
-0.00712188
-0.0059434
-0.004956
-0.00413005
-0.00344046
-0.00286597
-0.00238864
-0.00199338
-0.00166754
-0.00140055
-0.00118369
-0.00100978
-0.000873012
-0.00076879
-0.000693583
-0.000644829
-0.000620858
-264.097
-247.593
-231.707
-216.461
-201.869
-187.94
-174.676
-162.077
-150.139
-138.853
-128.206
-118.185
-108.772
-99.9503
-91.6996
-83.9982
-76.8237
-70.1527
-63.9619
-58.2276
-52.9261
-48.0338
-43.5275
-39.3843
-35.5817
-32.0979
-28.9119
-26.0033
-23.3526
-20.941
-18.7507
-16.7648
-14.9672
-13.3429
-11.8775
-10.5577
-9.37104
-8.30573
-7.35095
-6.49662
-5.7334
-5.05265
-4.44642
-3.90742
-3.42894
-3.00483
-2.62952
-2.29789
-2.00531
-1.74758
-1.52088
-1.32179
-1.1472
-0.994328
-0.860666
-0.743974
-0.642247
-0.553694
-0.476721
-0.40991
-0.352002
-0.301881
-0.258563
-0.221176
-0.188952
-0.161218
-0.137381
-0.116921
-0.0993834
-0.0843714
-0.0715384
-0.0605827
-0.0512422
-0.0432892
-0.0365265
-0.0307834
-0.0259126
-0.0217869
-0.0182968
-0.0153482
-0.0128605
-0.0107642
-0.00900011
-0.00751769
-0.00627373
-0.00523144
-0.00435959
-0.00363167
-0.00302526
-0.0025214
-0.00210417
-0.00176022
-0.0014784
-0.00124948
-0.00106591
-0.000921538
-0.000811523
-0.000732136
-0.000680673
-0.00065537
-277.935
-260.566
-243.848
-227.804
-212.446
-197.787
-183.829
-170.569
-158.006
-146.129
-134.924
-124.377
-114.471
-105.188
-96.5045
-88.3996
-80.8491
-73.8286
-67.3134
-61.2786
-55.6993
-50.5507
-45.8083
-41.4479
-37.4461
-33.7798
-30.4269
-27.3659
-24.5762
-22.0382
-19.7332
-17.6432
-15.7515
-14.0421
-12.4999
-11.111
-9.86207
-8.74094
-7.73613
-6.83703
-6.03382
-5.3174
-4.67941
-4.11216
-3.60861
-3.16228
-2.7673
-2.4183
-2.11039
-1.83915
-1.60058
-1.39105
-1.20731
-1.04643
-0.905764
-0.782958
-0.6759
-0.582708
-0.501701
-0.431389
-0.370447
-0.3177
-0.272112
-0.232765
-0.198853
-0.169666
-0.14458
-0.123048
-0.104591
-0.0887925
-0.0752871
-0.0637574
-0.0539274
-0.0455577
-0.0384406
-0.0323966
-0.0272705
-0.0229286
-0.0192556
-0.0161526
-0.0135344
-0.0113282
-0.00947176
-0.00791166
-0.0066025
-0.0055056
-0.00458806
-0.003822
-0.0031838
-0.00265354
-0.00221445
-0.00185247
-0.00155588
-0.00131497
-0.00112177
-0.000969837
-0.000854057
-0.00077051
-0.000716349
-0.000689721
-291.705
-273.475
-255.929
-239.09
-222.972
-207.586
-192.936
-179.02
-165.834
-153.368
-141.609
-130.539
-120.143
-110.399
-101.286
-92.7792
-84.8546
-77.4862
-70.6483
-64.3145
-58.4588
-53.0551
-48.0778
-43.5014
-39.3013
-35.4533
-31.9343
-28.7216
-25.7938
-23.1301
-20.7108
-18.5173
-16.5319
-14.7377
-13.1192
-11.6614
-10.3507
-9.17399
-8.1194
-7.17576
-6.33275
-5.58084
-4.91124
-4.31589
-3.78739
-3.31895
-2.9044
-2.53811
-2.21494
-1.93027
-1.67987
-1.45997
-1.26713
-1.09827
-0.950639
-0.821748
-0.709387
-0.611577
-0.526558
-0.452762
-0.3888
-0.33344
-0.285593
-0.244297
-0.208706
-0.178072
-0.151743
-0.129144
-0.109773
-0.0931918
-0.0790172
-0.0669163
-0.0565993
-0.0478149
-0.0403452
-0.0340017
-0.0286217
-0.0240646
-0.0202097
-0.0169529
-0.014205
-0.0118895
-0.00994107
-0.00830368
-0.00692965
-0.0057784
-0.0048154
-0.00401138
-0.00334156
-0.00278503
-0.00232418
-0.00194427
-0.00163298
-0.00138013
-0.00117736
-0.0010179
-0.000896381
-0.000808694
-0.00075185
-0.000723902
-305.403
-286.317
-267.947
-250.317
-233.442
-217.334
-201.996
-187.426
-173.621
-160.57
-148.258
-136.669
-125.784
-115.583
-106.042
-97.1358
-88.8391
-81.1248
-73.9657
-67.3345
-61.2039
-55.5464
-50.3353
-45.5441
-41.1467
-37.1181
-33.4338
-30.0703
-27.005
-24.2162
-21.6834
-19.3869
-17.3082
-15.4298
-13.7352
-12.209
-10.8367
-9.60477
-8.50067
-7.51272
-6.63012
-5.8429
-5.14186
-4.51856
-3.96524
-3.4748
-3.04079
-2.65729
-2.31895
-2.02091
-1.75876
-1.52853
-1.32663
-1.14985
-0.995279
-0.860336
-0.742699
-0.640296
-0.551284
-0.474023
-0.407058
-0.349098
-0.299004
-0.255769
-0.218506
-0.186434
-0.158869
-0.135209
-0.114928
-0.0975681
-0.0827279
-0.0700587
-0.0592572
-0.0500603
-0.0422398
-0.0355985
-0.0299658
-0.0251947
-0.0211588
-0.017749
-0.0148721
-0.0124479
-0.0104079
-0.00869365
-0.0072551
-0.00604978
-0.00504156
-0.00419978
-0.0034985
-0.00291583
-0.00243334
-0.00203558
-0.00170968
-0.00144495
-0.00123266
-0.00106571
-0.000938485
-0.00084668
-0.000787166
-0.000757905
-319.025
-299.088
-279.899
-261.482
-243.854
-227.028
-211.006
-195.786
-181.366
-167.732
-154.871
-142.765
-131.395
-120.738
-110.772
-101.469
-92.8017
-84.7433
-77.2649
-70.3379
-63.9338
-58.0241
-52.5805
-47.5755
-42.9821
-38.7738
-34.9251
-31.4116
-28.2095
-25.2963
-22.6505
-20.2516
-18.0802
-16.118
-14.3479
-12.7536
-11.3201
-10.0332
-8.87984
-7.84782
-6.92585
-6.10352
-5.37121
-4.72011
-4.1421
-3.6298
-3.17642
-2.77582
-2.42239
-2.11105
-1.83721
-1.59671
-1.38581
-1.20114
-1.03967
-0.898712
-0.775827
-0.668857
-0.575874
-0.495167
-0.425215
-0.36467
-0.312342
-0.267178
-0.228253
-0.194751
-0.165955
-0.14124
-0.120055
-0.10192
-0.0864182
-0.0731838
-0.0619006
-0.0522934
-0.0441241
-0.0371865
-0.0313025
-0.0263186
-0.0221026
-0.0185408
-0.0155355
-0.0130032
-0.0108722
-0.00908148
-0.00757876
-0.00631967
-0.00526647
-0.00438714
-0.00365458
-0.00304592
-0.0025419
-0.0021264
-0.00178595
-0.00150942
-0.00128766
-0.00111326
-0.000980358
-0.000884457
-0.000822288
-0.000791722
-332.569
-311.785
-291.781
-272.583
-254.207
-236.666
-219.964
-204.098
-189.065
-174.853
-161.446
-148.826
-136.973
-125.864
-115.474
-105.776
-96.7414
-88.3409
-80.545
-73.324
-66.648
-60.4874
-54.8127
-49.5953
-44.8068
-40.4198
-36.4078
-32.7451
-29.4071
-26.3703
-23.6121
-21.1113
-18.8478
-16.8023
-14.957
-13.295
-11.8006
-10.4591
-9.25681
-8.18098
-7.21988
-6.36263
-5.59924
-4.92049
-4.31795
-3.78389
-3.31127
-2.89366
-2.52523
-2.20067
-1.9152
-1.66449
-1.44464
-1.25213
-1.08381
-0.936866
-0.808764
-0.697252
-0.600323
-0.516189
-0.443267
-0.380152
-0.325602
-0.278521
-0.237943
-0.203019
-0.173001
-0.147236
-0.125152
-0.106247
-0.0900871
-0.0762909
-0.0645286
-0.0545136
-0.0459974
-0.0387653
-0.0326315
-0.0274361
-0.0230411
-0.019328
-0.0161952
-0.0135553
-0.0113339
-0.00946707
-0.00790055
-0.006588
-0.00549009
-0.00457342
-0.00380976
-0.00317525
-0.00264983
-0.00221669
-0.00186179
-0.00157352
-0.00134234
-0.00116053
-0.00102199
-0.000922017
-0.000857208
-0.000825345
-346.03
-324.406
-303.592
-283.616
-264.496
-246.246
-228.867
-212.359
-196.718
-181.931
-167.981
-154.85
-142.517
-130.959
-120.148
-110.058
-100.657
-91.9167
-83.8053
-76.292
-69.3457
-62.9357
-57.0314
-51.6028
-46.6205
-42.0559
-37.8815
-34.0705
-30.5974
-27.4377
-24.5679
-21.9659
-19.6107
-17.4824
-15.5624
-13.8332
-12.2783
-10.8825
-9.63151
-8.51213
-7.51212
-6.62018
-5.82588
-5.11966
-4.49273
-3.93706
-3.44531
-3.01079
-2.62744
-2.28975
-1.99273
-1.73187
-1.50311
-1.30281
-1.12768
-0.974789
-0.841502
-0.725476
-0.624623
-0.537084
-0.46121
-0.39554
-0.338782
-0.289796
-0.247575
-0.211237
-0.180004
-0.153196
-0.130218
-0.110548
-0.0937339
-0.0793792
-0.0671408
-0.0567204
-0.0478595
-0.0403346
-0.0339525
-0.0285467
-0.0239738
-0.0201104
-0.0168508
-0.0141041
-0.0117927
-0.00985033
-0.00822039
-0.00685471
-0.00571235
-0.00475857
-0.003964
-0.0033038
-0.00275712
-0.00230644
-0.00193717
-0.00163723
-0.00139669
-0.00120752
-0.00106337
-0.000959349
-0.000891917
-0.000858764
-359.406
-336.946
-315.327
-294.58
-274.721
-255.765
-237.715
-220.568
-204.322
-188.964
-174.474
-160.836
-148.026
-136.021
-124.793
-114.312
-104.548
-95.4699
-87.0449
-79.2411
-72.0264
-65.3686
-59.236
-53.5975
-48.4226
-43.6816
-39.3459
-35.3876
-31.7802
-28.4983
-25.5176
-22.815
-20.3687
-18.1582
-16.164
-14.3679
-12.7529
-11.3032
-10.0038
-8.84118
-7.80251
-6.87609
-6.05109
-5.31757
-4.6664
-4.08925
-3.57849
-3.12718
-2.72901
-2.37827
-2.06976
-1.79882
-1.56122
-1.35318
-1.17128
-1.01247
-0.874032
-0.753521
-0.648769
-0.557846
-0.479039
-0.410831
-0.351879
-0.300999
-0.257146
-0.219403
-0.186963
-0.159119
-0.135252
-0.114822
-0.0973575
-0.082448
-0.0697364
-0.0589131
-0.0497097
-0.0418939
-0.0352651
-0.0296503
-0.0249007
-0.0208879
-0.0175022
-0.0146494
-0.0122486
-0.0102312
-0.00853821
-0.00711973
-0.00593321
-0.00494256
-0.00411726
-0.00343154
-0.00286372
-0.00239562
-0.00201207
-0.00170053
-0.00145069
-0.00125421
-0.00110449
-0.000996446
-0.000926407
-0.000891972
-372.694
-349.403
-326.985
-305.47
-284.878
-265.221
-246.503
-228.723
-211.876
-195.95
-180.925
-166.782
-153.499
-141.05
-129.407
-118.538
-108.414
-98.9995
-90.263
-82.1707
-74.6892
-67.7853
-61.426
-55.5791
-50.2128
-45.2966
-40.8005
-36.6959
-32.9551
-29.5519
-26.461
-23.6585
-21.1218
-18.8295
-16.7616
-14.8991
-13.2244
-11.7211
-10.3737
-9.16804
-8.09098
-7.13031
-6.27481
-5.51417
-4.83893
-4.24043
-3.71079
-3.24279
-2.82991
-2.46619
-2.14628
-1.86532
-1.61894
-1.4032
-1.21458
-1.0499
-0.906346
-0.78138
-0.672755
-0.578471
-0.49675
-0.42602
-0.364889
-0.312127
-0.266653
-0.227515
-0.193875
-0.165002
-0.140253
-0.119067
-0.100957
-0.0854963
-0.0723148
-0.0610914
-0.0515477
-0.0434429
-0.036569
-0.0307467
-0.0258213
-0.0216603
-0.0181494
-0.015191
-0.0127015
-0.0106095
-0.00885392
-0.007383
-0.0061526
-0.00512532
-0.00426951
-0.00355843
-0.00296962
-0.0024842
-0.00208648
-0.00176342
-0.00150434
-0.0013006
-0.00114533
-0.0010333
-0.000960668
-0.00092496
-385.89
-361.774
-338.563
-316.286
-294.964
-274.611
-255.231
-236.821
-219.378
-202.887
-187.331
-172.687
-158.934
-146.044
-133.988
-122.735
-112.252
-102.505
-93.4588
-85.08
-77.3337
-70.1853
-63.6008
-57.5469
-51.9907
-46.9003
-42.2451
-37.9951
-34.1219
-30.5982
-27.3978
-24.4961
-21.8696
-19.4962
-17.355
-15.4266
-13.6926
-12.1361
-10.741
-9.49265
-8.37745
-7.38276
-6.49697
-5.7094
-5.01025
-4.39057
-3.84217
-3.35761
-2.9301
-2.55351
-2.22227
-1.93137
-1.67626
-1.45289
-1.25758
-1.08708
-0.938437
-0.809046
-0.696576
-0.598953
-0.514339
-0.441104
-0.377808
-0.323179
-0.276095
-0.235571
-0.20074
-0.170844
-0.145219
-0.123283
-0.104532
-0.0885236
-0.0748754
-0.0632545
-0.0533729
-0.0449811
-0.0378639
-0.0318354
-0.0267357
-0.0224273
-0.0187921
-0.0157289
-0.0131513
-0.0109852
-0.00916745
-0.00764444
-0.00637048
-0.00530682
-0.0044207
-0.00368445
-0.00307478
-0.00257218
-0.00216037
-0.00182587
-0.00155762
-0.00134666
-0.0011859
-0.00106989
-0.000994693
-0.00095772
-398.99
-374.056
-350.056
-327.023
-304.977
-283.934
-263.895
-244.861
-226.826
-209.775
-193.69
-178.55
-164.329
-151.002
-138.537
-126.902
-116.063
-105.984
-96.6316
-87.9683
-79.959
-72.5679
-65.76
-59.5005
-53.7557
-48.4925
-43.6792
-39.285
-35.2803
-31.637
-28.328
-25.3277
-22.6121
-20.1581
-17.9442
-15.9503
-14.1575
-12.5481
-11.1056
-9.81491
-8.66185
-7.6334
-6.71754
-5.90323
-5.18035
-4.53963
-3.97261
-3.4716
-3.02958
-2.6402
-2.29772
-1.99693
-1.73317
-1.50221
-1.30028
-1.12398
-0.970296
-0.836513
-0.720224
-0.619287
-0.5318
-0.45608
-0.390635
-0.334151
-0.285468
-0.243568
-0.207555
-0.176644
-0.150149
-0.127469
-0.108081
-0.0915291
-0.0774175
-0.0654021
-0.055185
-0.0465083
-0.0391494
-0.0329163
-0.0276434
-0.0231887
-0.0194301
-0.016263
-0.0135978
-0.0113582
-0.00947872
-0.007904
-0.00658678
-0.00548701
-0.00457081
-0.00380956
-0.00317919
-0.00265952
-0.00223373
-0.00188787
-0.00161051
-0.00139239
-0.00122617
-0.00110623