/*--------------------------------*- C++ -*----------------------------------*\
| =========                 |                                                 |
| \\      /  F ield         | OpenFOAM: The Open Source CFD Toolbox           |
|  \\    /   O peration     | Version:  2406                                  |
|   \\  /    A nd           | Website:  www.openfoam.com                      |
|    \\/     M anipulation  |                                                 |
\*---------------------------------------------------------------------------*/
FoamFile
{
    version     2.0;
    format      ascii;
    arch        "LSB;label=32;scalar=64";
    class       volScalarField;
    location    "200";
    object      gradTy;
}
// * * * * * * * * * * * * * * * * * * * * * * * * * * * * * * * * * * * * * //

dimensions      [0 -1 0 1 0 0 0];

internalField   nonuniform List<scalar> 
20000
(
-180.22
-179.742
-178.822
-177.493
-175.787
-173.736
-171.369
-168.715
-165.799
-162.649
-159.289
-155.74
-152.026
-148.169
-144.186
-140.098
-135.92
-131.672
-127.367
-123.021
-118.647
-114.259
-109.868
-105.486
-101.122
-96.7874
-92.4905
-88.2396
-84.0423
-79.9056
-75.8358
-71.8388
-67.9196
-64.0831
-60.3334
-56.6743
-53.1091
-49.6406
-46.2713
-43.0032
-39.8381
-36.7775
-33.8222
-30.9732
-28.2308
-25.5954
-23.0669
-20.645
-18.3293
-16.1192
-14.0137
-12.012
-10.1128
-8.31477
-6.61657
-5.01661
-3.51324
-2.10468
-0.789098
0.435432
1.57091
2.61938
3.58298
4.46384
5.26418
5.98623
6.63225
7.20454
7.70538
8.13711
8.50206
8.80255
9.04093
9.21953
9.3407
9.40675
9.42001
9.3828
9.2974
9.16611
8.99121
8.77495
8.51957
8.22732
7.90039
7.54099
7.15129
6.73347
6.28968
5.82205
5.3327
4.82375
4.29729
3.75541
3.20018
2.63368
2.05796
1.47508
0.887093
0.296038
-180.176
-179.697
-178.778
-177.449
-175.744
-173.693
-171.327
-168.673
-165.759
-162.609
-159.249
-155.702
-151.989
-148.132
-144.151
-140.063
-135.887
-131.639
-127.335
-122.991
-118.618
-114.231
-109.841
-105.459
-101.097
-96.7635
-92.4676
-88.2178
-84.0216
-79.8859
-75.8171
-71.8211
-67.9029
-64.0673
-60.3185
-56.6603
-53.096
-49.6283
-46.2598
-42.9926
-39.8283
-36.7684
-33.8139
-30.9655
-28.2239
-25.5891
-23.0612
-20.6399
-18.3248
-16.1152
-14.0103
-12.009
-10.1103
-8.31272
-6.61494
-5.01538
-3.51237
-2.10416
-0.788904
0.435324
1.57052
2.61874
3.58209
4.46274
5.26288
5.98476
6.63062
7.20276
7.70348
8.13511
8.49996
8.80038
9.0387
9.21726
9.33839
9.40443
9.41769
9.38048
9.29511
9.16385
8.98899
8.77278
8.51747
8.22529
7.89844
7.53913
7.14953
6.73181
6.28813
5.82061
5.33138
4.82256
4.29623
3.75448
3.19939
2.63303
2.05745
1.47472
0.886874
0.295965
-180.087
-179.609
-178.689
-177.361
-175.657
-173.608
-171.242
-168.59
-165.677
-162.529
-159.17
-155.625
-151.914
-148.059
-144.079
-139.994
-135.82
-131.574
-127.273
-122.93
-118.56
-114.174
-109.787
-105.407
-101.047
-96.7157
-92.422
-88.1743
-83.9801
-79.8465
-75.7797
-71.7856
-67.8694
-64.0357
-60.2888
-56.6324
-53.0698
-49.6038
-46.237
-42.9714
-39.8087
-36.7502
-33.7972
-30.9502
-28.2099
-25.5765
-23.0498
-20.6297
-18.3158
-16.1072
-14.0034
-12.0031
-10.1053
-8.30862
-6.61167
-5.0129
-3.51063
-2.10312
-0.788514
0.43511
1.56974
2.61745
3.58033
4.46054
5.26029
5.9818
6.62735
7.1992
7.69968
8.13109
8.49576
8.79603
9.03424
9.21271
9.33379
9.39979
9.41304
9.37585
9.29052
9.15933
8.98455
8.76845
8.51327
8.22123
7.89454
7.53541
7.146
6.72849
6.28502
5.81774
5.32875
4.82018
4.29411
3.75263
3.19781
2.63173
2.05644
1.47399
0.886437
0.295819
-179.954
-179.477
-178.557
-177.23
-175.527
-173.479
-171.116
-168.465
-165.554
-162.408
-159.053
-155.51
-151.802
-147.949
-143.973
-139.89
-135.719
-131.477
-127.178
-122.839
-118.472
-114.09
-109.705
-105.329
-100.972
-96.6441
-92.3536
-88.109
-83.918
-79.7874
-75.7236
-71.7325
-67.8191
-63.9883
-60.2441
-56.5904
-53.0305
-49.5671
-46.2028
-42.9395
-39.7792
-36.723
-33.7721
-30.9273
-28.189
-25.5575
-23.0327
-20.6144
-18.3022
-16.0953
-13.993
-11.9942
-10.0978
-8.30246
-6.60678
-5.00919
-3.50803
-2.10156
-0.787929
0.434789
1.56858
2.61551
3.57767
4.45724
5.25639
5.97737
6.62244
7.19387
7.69398
8.12507
8.48947
8.78952
9.02755
9.20589
9.32687
9.39283
9.40607
9.36891
9.28364
9.15255
8.9779
8.76196
8.50696
8.21514
7.88869
7.52983
7.14071
6.72351
6.28037
5.81343
5.32481
4.81661
4.29093
3.74985
3.19544
2.62978
2.05491
1.4729
0.88578
0.2956
-179.775
-179.299
-178.381
-177.055
-175.354
-173.308
-170.947
-168.299
-165.39
-162.248
-158.896
-155.356
-151.652
-147.803
-143.83
-139.752
-135.585
-131.347
-127.053
-122.718
-118.355
-113.977
-109.597
-105.225
-100.873
-96.5487
-92.2624
-88.022
-83.8351
-79.7086
-75.6488
-71.6616
-67.7521
-63.9251
-60.1846
-56.5345
-52.9781
-49.5181
-46.1571
-42.8971
-39.7399
-36.6867
-33.7388
-30.8968
-28.1612
-25.5323
-23.01
-20.5941
-18.2841
-16.0794
-13.9792
-11.9824
-10.0878
-8.29426
-6.60025
-5.00424
-3.50457
-2.09949
-0.78715
0.43436
1.56703
2.61293
3.57414
4.45283
5.2512
5.97147
6.6159
7.18677
7.68638
8.11704
8.48109
8.78084
9.01863
9.1968
9.31766
9.38355
9.39678
9.35965
9.27447
9.1435
8.96903
8.7533
8.49856
8.20702
7.8809
7.52239
7.13365
6.71687
6.27417
5.80769
5.31955
4.81185
4.28669
3.74614
3.19229
2.62718
2.05288
1.47144
0.884905
0.295308
-179.553
-179.077
-178.16
-176.836
-175.137
-173.094
-170.735
-168.091
-165.186
-162.048
-158.699
-155.164
-151.464
-147.621
-143.653
-139.579
-135.418
-131.185
-126.896
-122.566
-118.208
-113.836
-109.461
-105.095
-100.748
-96.4294
-92.1484
-87.9132
-83.7315
-79.6101
-75.5554
-71.5731
-67.6684
-63.8461
-60.1103
-56.4647
-52.9126
-49.4569
-46.1001
-42.8441
-39.6908
-36.6414
-33.6971
-30.8586
-28.1264
-25.5007
-22.9815
-20.5686
-18.2615
-16.0596
-13.9619
-11.9675
-10.0754
-8.28401
-6.59209
-4.99805
-3.50024
-2.09689
-0.786177
0.433824
1.5651
2.6097
3.56973
4.44733
5.24471
5.96409
6.60772
7.17789
7.67688
8.10701
8.47061
8.76999
9.00749
9.18543
9.30615
9.37196
9.38517
9.34809
9.26301
9.13221
8.95795
8.74249
8.48806
8.19688
7.87116
7.51309
7.12484
6.70857
6.26641
5.80051
5.31297
4.8059
4.28139
3.74151
3.18834
2.62393
2.05035
1.46963
0.883812
0.294943
-179.287
-178.812
-177.896
-176.574
-174.877
-172.837
-170.482
-167.841
-164.941
-161.807
-158.464
-154.934
-151.24
-147.402
-143.439
-139.372
-135.217
-130.99
-126.708
-122.384
-118.033
-113.667
-109.299
-104.939
-100.598
-96.2863
-92.0117
-87.7828
-83.6073
-79.492
-75.4433
-71.4669
-67.568
-63.7513
-60.0211
-56.3809
-52.8341
-49.3836
-46.0317
-42.7806
-39.6319
-36.587
-33.6471
-30.8128
-28.0847
-25.4629
-22.9474
-20.5381
-18.2344
-16.0357
-13.9412
-11.9498
-10.0604
-8.27172
-6.58231
-4.99064
-3.49504
-2.09378
-0.785009
0.433181
1.56278
2.60583
3.56443
4.44073
5.23693
5.95524
6.59792
7.16724
7.66549
8.09499
8.45804
8.75698
8.99412
9.1718
9.29234
9.35805
9.37124
9.33422
9.24926
9.11866
8.94466
8.72952
8.47547
8.18472
7.85948
7.50194
7.11427
6.69861
6.25712
5.7919
5.30509
4.79877
4.27504
3.73596
3.18361
2.62004
2.04731
1.46745
0.8825
0.294505
-178.976
-178.502
-177.588
-176.268
-174.574
-172.537
-170.187
-167.55
-164.655
-161.527
-158.189
-154.665
-150.977
-147.146
-143.191
-139.131
-134.982
-130.763
-126.488
-122.172
-117.828
-113.47
-109.11
-104.757
-100.424
-96.1195
-91.8523
-87.6307
-83.4624
-79.3543
-75.3126
-71.3431
-67.4509
-63.6409
-59.9171
-56.2832
-52.7426
-49.298
-45.9519
-42.7064
-39.5632
-36.5236
-33.5888
-30.7594
-28.036
-25.4188
-22.9077
-20.5025
-18.2028
-16.0079
-13.917
-11.9291
-10.043
-8.25738
-6.5709
-4.98199
-3.48898
-2.09015
-0.783648
0.432431
1.56007
2.60131
3.55825
4.43304
5.22786
5.94492
6.58649
7.15482
7.65221
8.08096
8.44338
8.7418
8.97854
9.15591
9.27624
9.34183
9.35501
9.31804
9.23324
9.10286
8.92916
8.71439
8.46078
8.17054
7.84587
7.48894
7.10194
6.687
6.24627
5.78187
5.2959
4.79046
4.26763
3.72949
3.17809
2.6155
2.04376
1.4649
0.880971
0.293995
-178.621
-178.148
-177.236
-175.918
-174.228
-172.195
-169.849
-167.218
-164.329
-161.207
-157.876
-154.359
-150.678
-146.854
-142.907
-138.855
-134.715
-130.504
-126.237
-121.93
-117.595
-113.245
-108.893
-104.55
-100.225
-95.9289
-91.6702
-87.457
-83.297
-79.197
-75.1633
-71.2016
-67.3172
-63.5147
-59.7983
-56.1716
-52.638
-49.2003
-45.8608
-42.6218
-39.4848
-36.4512
-33.5222
-30.6984
-27.9804
-25.3684
-22.8623
-20.4619
-18.1667
-15.9762
-13.8894
-11.9054
-10.0231
-8.24101
-6.55788
-4.97211
-3.48207
-2.086
-0.782094
0.431574
1.55698
2.59615
3.5512
4.42425
5.21749
5.93314
6.57343
7.14064
7.63704
8.06494
8.42665
8.72447
8.96074
9.13776
9.25785
9.32331
9.33646
9.29957
9.21493
9.08481
8.91146
8.69711
8.44401
8.15434
7.83031
7.4741
7.08786
6.67375
6.23389
5.77041
5.2854
4.78096
4.25917
3.72209
3.17179
2.61032
2.03971
1.462
0.879224
0.293412
-178.223
-177.75
-176.84
-175.526
-173.839
-171.811
-169.47
-166.845
-163.962
-160.847
-157.523
-154.014
-150.342
-146.526
-142.588
-138.545
-134.414
-130.212
-125.955
-121.657
-117.332
-112.993
-108.65
-104.316
-100.001
-95.7147
-91.4655
-87.2617
-83.111
-79.0201
-74.9954
-71.0426
-67.1669
-63.3729
-59.6648
-56.0462
-52.5205
-49.0904
-45.7584
-42.5266
-39.3966
-36.3698
-33.4473
-30.6299
-27.9179
-25.3117
-22.8112
-20.4162
-18.1262
-15.9405
-13.8584
-11.8788
-10.0007
-8.22261
-6.54323
-4.96101
-3.47429
-2.08135
-0.780347
0.430611
1.5535
2.59036
3.54327
4.41437
5.20584
5.91989
6.55875
7.12469
7.61998
8.04693
8.40783
8.70499
8.94073
9.11735
9.23717
9.30249
9.31561
9.2788
9.19435
9.06452
8.89156
8.67769
8.42515
8.13613
7.81282
7.45741
7.07203
6.65884
6.21997
5.75752
5.27359
4.77028
4.24966
3.71378
3.16471
2.60449
2.03515
1.45873
0.877261
0.292757
-177.78
-177.308
-176.401
-175.089
-173.407
-171.384
-169.049
-166.43
-163.554
-160.447
-157.132
-153.631
-149.968
-146.162
-142.234
-138.2
-134.08
-129.889
-125.642
-121.355
-117.041
-112.712
-108.38
-104.057
-99.7528
-95.4769
-91.2382
-87.0449
-82.9045
-78.8238
-74.8091
-70.8661
-67
-63.2154
-59.5165
-55.9069
-52.39
-48.9684
-45.6447
-42.4209
-39.2987
-36.2795
-33.3642
-30.5538
-27.8486
-25.2488
-22.7545
-20.3654
-18.0811
-15.9009
-13.824
-11.8493
-9.97582
-8.20218
-6.52697
-4.94868
-3.46566
-2.07617
-0.778407
0.429542
1.54964
2.58392
3.53447
4.4034
5.19291
5.90518
6.54245
7.10699
7.60105
8.02693
8.38694
8.68336
8.91851
9.0947
9.21422
9.27938
9.29246
9.25575
9.17151
9.042
8.86946
8.65613
8.40421
8.11591
7.79341
7.43888
7.05446
6.6423
6.20451
5.74321
5.26049
4.75843
4.2391
3.70455
3.15685
2.59801
2.03009
1.45511
0.875081
0.29203
-177.293
-176.823
-175.918
-174.61
-172.932
-170.915
-168.586
-165.975
-163.107
-160.008
-156.701
-153.211
-149.558
-145.762
-141.844
-137.822
-133.713
-129.533
-125.298
-121.023
-116.72
-112.403
-108.083
-103.772
-99.4797
-95.2155
-90.9884
-86.8066
-82.6775
-78.608
-74.6043
-70.6721
-66.8166
-63.0423
-59.3535
-55.7539
-52.2465
-48.8343
-45.5197
-42.3048
-39.1911
-36.1801
-33.2729
-30.4701
-27.7723
-25.1797
-22.6922
-20.3097
-18.0316
-15.8574
-13.7861
-11.8169
-9.94851
-8.17972
-6.5091
-4.93513
-3.45617
-2.07049
-0.776275
0.428367
1.5454
2.57685
3.52479
4.39135
5.17869
5.88901
6.52454
7.08753
7.58024
8.00496
8.36397
8.65959
8.89409
9.0698
9.18899
9.25397
9.26702
9.23041
9.1464
9.01724
8.84518
8.63243
8.3812
8.09369
7.77207
7.41851
7.03514
6.62411
6.18752
5.72749
5.24609
4.7454
4.22749
3.69441
3.1482
2.5909
2.02454
1.45112
0.872685
0.29123
-176.762
-176.294
-175.391
-174.088
-172.415
-170.403
-168.082
-165.478
-162.619
-159.529
-156.233
-152.752
-149.11
-145.326
-141.42
-137.41
-133.313
-129.146
-124.923
-120.661
-116.371
-112.067
-107.76
-103.462
-99.1821
-94.9306
-90.7162
-86.5469
-82.4301
-78.3728
-74.381
-70.4606
-66.6166
-62.8537
-59.176
-55.587
-52.0902
-48.6882
-45.3835
-42.1782
-39.0738
-36.0719
-33.1733
-30.3789
-27.6892
-25.1043
-22.6243
-20.2489
-17.9777
-15.8099
-13.7449
-11.7815
-9.91874
-8.15524
-6.48962
-4.92036
-3.44582
-2.06429
-0.773951
0.427086
1.54078
2.56914
3.51424
4.37821
5.1632
5.87139
6.50502
7.06632
7.55756
7.98101
8.33895
8.63368
8.86748
9.04266
9.1615
9.22628
9.23929
9.20279
9.11903
8.99026
8.81871
8.6066
8.35612
8.06947
7.74882
7.39631
7.01409
6.60429
6.16901
5.71035
5.23039
4.7312
4.21484
3.68336
3.13878
2.58315
2.01848
1.44678
0.870074
0.290359
-176.188
-175.721
-174.822
-173.522
-171.855
-169.85
-167.536
-164.941
-162.091
-159.011
-155.725
-152.256
-148.626
-144.854
-140.961
-136.963
-132.88
-128.726
-124.518
-120.269
-115.993
-111.703
-107.41
-103.126
-98.86
-94.6223
-90.4216
-86.2658
-82.1624
-78.1182
-74.1395
-70.2318
-66.4003
-62.6496
-58.9838
-55.4065
-51.921
-48.5301
-45.2361
-42.0412
-38.9469
-35.9547
-33.0656
-30.2803
-27.5993
-25.0228
-22.5508
-20.1832
-17.9193
-15.7586
-13.7002
-11.7433
-9.88653
-8.12875
-6.46855
-4.90438
-3.43463
-2.05759
-0.771437
0.425699
1.53577
2.56079
3.50283
4.36399
5.14643
5.85232
6.48389
7.04337
7.53301
7.95509
8.31186
8.60563
8.83868
9.01329
9.13174
9.19632
9.20928
9.1729
9.08941
8.96106
8.79007
8.57865
8.32899
8.04327
7.72365
7.37229
6.99131
6.58284
6.14897
5.6918
5.2134
4.71584
4.20115
3.67139
3.12859
2.57476
2.01192
1.44208
0.867248
0.289416
-175.571
-175.105
-174.209
-172.914
-171.252
-169.254
-166.949
-164.362
-161.522
-158.453
-155.179
-151.723
-148.105
-144.346
-140.466
-136.483
-132.414
-128.275
-124.081
-119.847
-115.587
-111.311
-107.034
-102.764
-98.5135
-94.2907
-90.1046
-85.9634
-81.8744
-77.8444
-73.8796
-69.9856
-66.1676
-62.43
-58.777
-55.2123
-51.739
-48.36
-45.0776
-41.8938
-38.8104
-35.8287
-32.9497
-30.1741
-27.5025
-24.9351
-22.4718
-20.1124
-17.8565
-15.7033
-13.6522
-11.7021
-9.85187
-8.10026
-6.44587
-4.88719
-3.42259
-2.05037
-0.768732
0.424208
1.53039
2.55182
3.49055
4.34869
5.12839
5.83181
6.46117
7.01868
7.50661
7.9272
8.28273
8.57547
8.8077
8.9817
9.09974
9.16408
9.177
9.14075
9.05755
8.92965
8.75926
8.54858
8.29979
8.01507
7.69658
7.34645
6.96681
6.55977
6.12742
5.67185
5.19513
4.69931
4.18643
3.65852
3.11762
2.56573
2.00487
1.43703
0.864208
0.288401
-174.91
-174.446
-173.553
-172.263
-170.608
-168.617
-166.32
-163.744
-160.914
-157.857
-154.595
-151.151
-147.547
-143.803
-139.938
-135.97
-131.916
-127.792
-123.614
-119.396
-115.151
-110.892
-106.631
-102.377
-98.1427
-93.9358
-89.7655
-85.6399
-81.5662
-77.5514
-73.6015
-69.7222
-65.9185
-62.195
-58.5558
-55.0045
-51.5443
-48.178
-44.9079
-41.7361
-38.6643
-35.6938
-32.8257
-30.0606
-27.399
-24.8412
-22.3872
-20.0367
-17.7893
-15.6442
-13.6008
-11.658
-9.81479
-8.06977
-6.42161
-4.86879
-3.40971
-2.04266
-0.765838
0.422611
1.52463
2.54221
3.47741
4.33233
5.10908
5.80986
6.43685
6.99226
7.47835
7.89736
8.25155
8.54319
8.77455
8.94789
9.06548
9.12959
9.14246
9.10634
9.02346
8.89604
8.72629
8.5164
8.26855
7.9849
7.66761
7.31879
6.94058
6.53507
6.10436
5.6505
5.17557
4.68162
4.17067
3.64475
3.10589
2.55608
1.99732
1.43162
0.860955
0.287315
-174.206
-173.744
-172.855
-171.57
-169.921
-167.939
-165.651
-163.085
-160.267
-157.222
-153.973
-150.543
-146.953
-143.224
-139.374
-135.422
-131.385
-127.278
-123.117
-118.916
-114.688
-110.446
-106.202
-101.965
-97.7476
-93.5577
-89.4042
-85.2951
-81.2379
-77.2393
-73.3053
-69.4416
-65.6532
-61.9447
-58.3201
-54.7831
-51.3368
-47.984
-44.7271
-41.5681
-38.5087
-35.5502
-32.6935
-29.9396
-27.2887
-24.7413
-22.2971
-19.9561
-17.7176
-15.5813
-13.5461
-11.6111
-9.77528
-8.03729
-6.39576
-4.84919
-3.39598
-2.03443
-0.762755
0.420911
1.51849
2.53198
3.46342
4.31489
5.08852
5.78647
6.41094
6.96412
7.44825
7.86557
8.21834
8.5088
8.73923
8.91187
9.02899
9.09284
9.10566
9.06968
8.98714
8.86023
8.69116
8.48212
8.23527
7.95276
7.63674
7.28933
6.91265
6.50877
6.07978
5.62776
5.15474
4.66277
4.15388
3.63008
3.09338
2.54579
1.98928
1.42586
0.857489
0.286159
-173.459
-172.999
-172.113
-170.834
-169.193
-167.218
-164.94
-162.385
-159.579
-156.547
-153.313
-149.898
-146.323
-142.61
-138.777
-134.842
-130.821
-126.732
-122.589
-118.406
-114.196
-109.972
-105.746
-101.528
-97.3285
-93.1565
-89.0208
-84.9294
-80.8896
-76.908
-72.9909
-69.1438
-65.3716
-61.679
-58.07
-54.5482
-51.1167
-47.7783
-44.5353
-41.3899
-38.3436
-35.3977
-32.5533
-29.8112
-27.1717
-24.6352
-22.2015
-19.8705
-17.6417
-15.5144
-13.488
-11.5613
-9.73336
-8.00282
-6.36833
-4.8284
-3.38142
-2.02571
-0.759484
0.419106
1.51198
2.52112
3.44857
4.29638
5.0667
5.76166
6.38345
6.93426
7.41631
7.83184
8.1831
8.47232
8.70175
8.87366
8.99027
9.05385
9.06661
9.03079
8.9486
8.82224
8.65389
8.44575
8.19995
7.91866
7.60399
7.25808
6.883
6.48086
6.05371
5.60362
5.13264
4.64278
4.13607
3.61451
3.08012
2.53487
1.98075
1.41974
0.853812
0.284932
-172.669
-172.211
-171.33
-170.056
-168.422
-166.457
-164.189
-161.646
-158.853
-155.835
-152.615
-149.215
-145.657
-141.961
-138.145
-134.228
-130.226
-126.155
-122.031
-117.867
-113.676
-109.472
-105.265
-101.066
-96.8853
-92.7323
-88.6155
-84.5427
-80.5213
-76.5579
-72.6586
-68.8289
-65.074
-61.3982
-57.8056
-54.2998
-50.8839
-47.5607
-44.3326
-41.2014
-38.169
-35.2365
-32.4051
-29.6754
-27.048
-24.523
-22.1004
-19.78
-17.5613
-15.4438
-13.4266
-11.5087
-9.68904
-7.96638
-6.33933
-4.80641
-3.36602
-2.01648
-0.756025
0.417198
1.5051
2.50965
3.43286
4.27682
5.04363
5.73543
6.35438
6.90268
7.38254
7.79618
8.14584
8.43374
8.66213
8.83325
8.94934
9.01262
9.02533
8.98967
8.90785
8.78206
8.61449
8.40729
8.16261
7.8826
7.56937
7.22503
6.85166
6.45135
6.02615
5.57811
5.10926
4.62164
4.11723
3.59806
3.06609
2.52333
1.97173
1.41328
0.849924
0.283634
-171.837
-171.381
-170.504
-169.236
-167.61
-165.655
-163.398
-160.867
-158.087
-155.083
-151.879
-148.496
-144.955
-141.276
-137.479
-133.581
-129.598
-125.547
-121.442
-117.298
-113.128
-108.944
-104.757
-100.579
-96.4183
-92.2853
-88.1883
-84.1351
-80.1331
-76.1888
-72.3083
-68.4971
-64.7603
-61.1022
-57.5269
-54.038
-50.6386
-47.3314
-44.1188
-41.0028
-37.985
-35.0667
-32.2489
-29.5324
-26.9176
-24.4048
-21.9939
-19.6846
-17.4767
-15.3693
-13.3618
-11.4532
-9.64233
-7.92798
-6.30877
-4.78324
-3.3498
-2.00676
-0.75238
0.415187
1.49784
2.49755
3.41631
4.2562
5.01931
5.70778
6.32375
6.8694
7.34695
7.7586
8.10657
8.39308
8.62037
8.79067
8.90619
8.96917
8.98182
8.94633
8.86491
8.73973
8.57296
8.36676
8.12326
7.8446
7.53288
7.1902
6.81863
6.42025
5.9971
5.55122
5.08463
4.59936
4.09738
3.58071
3.05131
2.51116
1.96223
1.40646
0.845827
0.282267
-170.962
-170.509
-169.636
-168.375
-166.757
-164.811
-162.566
-160.048
-157.282
-154.294
-151.106
-147.74
-144.217
-140.557
-136.779
-132.9
-128.938
-124.908
-120.824
-116.701
-112.552
-108.389
-104.224
-100.067
-95.9274
-91.8155
-87.7393
-83.7068
-79.7251
-75.8009
-71.9402
-68.1484
-64.4306
-60.7911
-57.234
-53.7629
-50.3808
-47.0905
-43.8942
-40.7941
-37.7916
-34.8881
-32.0847
-29.382
-26.7806
-24.2805
-21.8819
-19.5844
-17.3877
-15.2911
-13.2938
-11.3949
-9.59324
-7.88761
-6.27665
-4.75889
-3.33274
-1.99655
-0.748549
0.413074
1.49022
2.48483
3.39892
4.23454
4.99376
5.67872
6.29155
6.83443
7.30955
7.7191
8.0653
8.35035
8.57648
8.74591
8.86085
8.92351
8.93609
8.90078
8.81978
8.69523
8.52931
8.32416
8.08191
7.80466
7.49453
7.15359
6.78392
6.38756
5.96656
5.52296
5.05875
4.57594
4.07652
3.56248
3.03578
2.49838
1.95224
1.3993
0.841521
0.28083
-170.045
-169.594
-168.726
-167.472
-165.862
-163.927
-161.694
-159.189
-156.439
-153.466
-150.295
-146.947
-143.443
-139.803
-136.045
-132.188
-128.246
-124.238
-120.176
-116.075
-111.949
-107.808
-103.665
-99.5299
-95.4129
-91.323
-87.2687
-83.2578
-79.2975
-75.3943
-71.5543
-67.7829
-64.085
-60.4651
-56.9271
-53.4745
-50.1106
-46.8379
-43.6588
-40.5752
-37.5889
-34.701
-31.9126
-29.2244
-26.6369
-24.1503
-21.7645
-19.4794
-17.2944
-15.2091
-13.2225
-11.3338
-9.54178
-7.84531
-6.24299
-4.73336
-3.31486
-1.98584
-0.744534
0.410858
1.48222
2.4715
3.38069
4.21182
4.96698
5.64826
6.2578
6.79777
7.27034
7.6777
8.02203
8.30556
8.53048
8.699
8.81332
8.87565
8.88816
8.85304
8.77247
8.64859
8.48356
8.27951
8.03856
7.7628
7.45433
7.11522
6.74753
6.3533
5.93456
5.49333
5.03161
4.55139
4.05466
3.54337
3.01949
2.48498
1.94177
1.3918
0.837007
0.279324
-169.086
-168.638
-167.774
-166.527
-164.927
-163.003
-160.782
-158.292
-155.556
-152.601
-149.448
-146.119
-142.634
-139.015
-135.278
-131.442
-127.523
-123.537
-119.498
-115.421
-111.317
-107.2
-103.08
-98.9686
-94.8748
-90.808
-86.7766
-82.7883
-78.8503
-74.9692
-71.1508
-67.4006
-63.7236
-60.1241
-56.606
-53.173
-49.828
-46.5737
-43.4126
-40.3464
-37.3769
-34.5053
-31.7326
-29.0596
-26.4867
-24.0141
-21.6418
-19.3695
-17.1969
-15.1233
-13.1479
-11.2699
-9.48797
-7.80106
-6.20778
-4.70667
-3.29617
-1.97464
-0.740335
0.408541
1.47386
2.45757
3.36163
4.18807
4.93896
5.6164
6.22251
6.75944
7.22934
7.6344
7.97679
8.25872
8.48237
8.64994
8.76362
8.82559
8.83803
8.80312
8.72299
8.59982
8.43572
8.23282
7.99322
7.71902
7.41229
7.07509
6.70947
6.31747
5.90109
5.46235
5.00324
4.52573
4.03179
3.52339
3.00247
2.47096
1.93082
1.38395
0.832287
0.277748
-168.085
-167.64
-166.781
-165.542
-163.951
-162.038
-159.831
-157.355
-154.636
-151.698
-148.563
-145.254
-141.79
-138.192
-134.478
-130.664
-126.769
-122.806
-118.791
-114.738
-110.658
-106.566
-102.47
-98.3829
-94.3133
-90.2706
-86.263
-82.2983
-78.3837
-74.5255
-70.7297
-67.0017
-63.3465
-59.7682
-56.271
-52.8583
-49.5331
-46.2981
-43.1557
-40.1076
-37.1557
-34.3011
-31.5448
-28.8876
-26.3299
-23.872
-21.5137
-19.2549
-17.0951
-15.0338
-13.0701
-11.2032
-9.43182
-7.75489
-6.17104
-4.67881
-3.27666
-1.96295
-0.735954
0.406123
1.46514
2.44302
3.34173
4.16328
4.90973
5.58316
6.18569
6.71943
7.18656
7.58921
7.92959
8.20984
8.43217
8.59875
8.71176
8.77336
8.78573
8.75102
8.67137
8.54892
8.3858
8.1841
7.94592
7.67334
7.36842
7.03322
6.66977
6.28008
5.86617
5.43002
4.97363
4.49894
4.00793
3.50254
2.9847
2.45634
1.91939
1.37576
0.827361
0.276105
-167.043
-166.6
-165.747
-164.515
-162.935
-161.033
-158.84
-156.379
-153.677
-150.757
-147.642
-144.353
-140.911
-137.335
-133.644
-129.854
-125.983
-122.045
-118.055
-114.026
-109.972
-105.905
-101.835
-97.7729
-93.7286
-89.7109
-85.7282
-81.7881
-77.8977
-74.0634
-70.2912
-66.5863
-62.9537
-59.3977
-55.9221
-52.5306
-49.226
-46.0111
-42.8881
-39.859
-36.9253
-34.0884
-31.3493
-28.7085
-26.1667
-23.724
-21.3803
-19.1355
-16.9891
-14.9406
-12.9891
-11.1337
-9.37334
-7.70681
-6.13278
-4.6498
-3.25635
-1.95078
-0.731391
0.403605
1.45606
2.42787
3.32101
4.13747
4.87929
5.54855
6.14733
6.67777
7.142
7.54216
7.88042
8.15894
8.37989
8.54544
8.65774
8.71896
8.73126
8.69676
8.61761
8.49592
8.3338
8.13335
7.89665
7.62576
7.32274
6.98961
6.62841
6.24114
5.8298
5.39636
4.94279
4.47105
3.98308
3.48082
2.96619
2.44111
1.90749
1.36723
0.822231
0.274393
-165.96
-165.52
-164.672
-163.448
-161.878
-159.989
-157.809
-155.365
-152.68
-149.779
-146.685
-143.417
-139.997
-136.445
-132.777
-129.012
-125.166
-121.253
-117.289
-113.287
-109.259
-105.218
-101.174
-97.1388
-93.1207
-89.1291
-85.1722
-81.2576
-77.3925
-73.5831
-69.8353
-66.1545
-62.5454
-59.0124
-55.5595
-52.1899
-48.9067
-45.7127
-42.6099
-39.6005
-36.6858
-33.8673
-31.1459
-28.5223
-25.997
-23.5701
-21.2416
-19.0114
-16.879
-14.8437
-12.9049
-11.0615
-9.31255
-7.65683
-6.09301
-4.61965
-3.23523
-1.93813
-0.726648
0.400987
1.44661
2.41213
3.29947
4.11064
4.84765
5.51256
6.10746
6.63446
7.09568
7.49324
7.82931
8.10603
8.32554
8.49001
8.60159
8.66242
8.67463
8.64035
8.56172
8.44082
8.27975
8.0806
7.84544
7.5763
7.27524
6.94428
6.58542
6.20066
5.79199
5.36136
4.91073
4.44205
3.95725
3.45824
2.94695
2.42528
1.89512
1.35836
0.816898
0.272613
-164.835
-164.399
-163.557
-162.341
-160.781
-158.905
-156.74
-154.312
-151.646
-148.765
-145.691
-142.445
-139.049
-135.52
-131.878
-128.138
-124.318
-120.432
-116.494
-112.519
-108.519
-104.505
-100.489
-96.4807
-92.4898
-88.5253
-84.5952
-80.7072
-76.8682
-73.0846
-69.3622
-65.7063
-62.1217
-58.6127
-55.1831
-51.8363
-48.5754
-45.403
-42.3213
-39.3322
-36.4373
-33.6379
-30.9349
-28.3291
-25.8209
-23.4104
-21.0977
-18.8826
-16.7646
-14.7431
-12.8174
-10.9866
-9.24946
-7.60496
-6.05173
-4.58835
-3.21331
-1.925
-0.721726
0.39827
1.43681
2.39579
3.27712
4.08279
4.81481
5.47522
6.06609
6.58952
7.04761
7.44248
7.77627
8.05111
8.26914
8.4325
8.54332
8.60373
8.61586
8.58182
8.50371
8.38363
8.22366
8.02586
7.79229
7.52498
7.22596
6.89724
6.54081
6.15866
5.75275
5.32504
4.87746
4.41196
3.93044
3.43482
2.92699
2.40885
1.88228
1.34916
0.811364
0.270766
-163.671
-163.237
-162.401
-161.194
-159.645
-157.782
-155.633
-153.222
-150.574
-147.713
-144.661
-141.439
-138.066
-134.562
-130.946
-127.232
-123.439
-119.58
-115.671
-111.724
-107.752
-103.767
-99.7788
-95.7989
-91.8362
-87.8996
-83.9973
-80.1368
-76.3249
-72.5681
-68.872
-65.2419
-61.6826
-58.1984
-54.793
-51.4699
-48.2321
-45.0821
-42.0222
-39.0542
-36.1798
-33.4002
-30.7163
-28.1289
-25.6384
-23.245
-20.9486
-18.7492
-16.6461
-14.6389
-12.7268
-10.9089
-9.18409
-7.55121
-6.00896
-4.55592
-3.1906
-1.91139
-0.716625
0.395455
1.42666
2.37885
3.25396
4.05393
4.78078
5.43652
6.02321
6.54294
6.99779
7.38988
7.72131
7.99421
8.2107
8.3729
8.48294
8.54292
8.55497
8.52117
8.44361
8.32438
8.16554
7.96913
7.73721
7.47179
7.17489
6.84849
6.49458
6.11513
5.71209
5.2874
4.84299
4.38078
3.90266
3.41054
2.9063
2.39182
1.86897
1.33962
0.80563
0.268853
-162.465
-162.034
-161.205
-160.007
-158.469
-156.62
-154.486
-152.093
-149.465
-146.626
-143.596
-140.397
-137.049
-133.572
-129.981
-126.295
-122.53
-118.7
-114.819
-110.901
-106.958
-103.002
-99.044
-95.0933
-91.1598
-87.2523
-83.3787
-79.5466
-75.7628
-72.0336
-68.3648
-64.7615
-61.2284
-57.7698
-54.3895
-51.0909
-47.8769
-44.7501
-41.7127
-38.7666
-35.9133
-33.1542
-30.4901
-27.9217
-25.4496
-23.0738
-20.7943
-18.6111
-16.5235
-14.5311
-12.6331
-10.8286
-9.11646
-7.4956
-5.9647
-4.52237
-3.1671
-1.89732
-0.711348
0.392542
1.41615
2.36133
3.22999
4.02408
4.74557
5.39648
5.97886
6.49476
6.94626
7.33545
7.66444
7.93533
8.15023
8.31123
8.42046
8.48001
8.49196
8.45841
8.38143
8.26307
8.1054
7.91044
7.68023
7.41676
7.12204
6.79805
6.44675
6.07009
5.67002
5.24846
4.80732
4.34851
3.87392
3.38542
2.8849
2.37421
1.85521
1.32976
0.799696
0.266872
-161.22
-160.792
-159.969
-158.78
-157.254
-155.42
-153.302
-150.928
-148.32
-145.501
-142.495
-139.321
-135.999
-132.548
-128.985
-125.327
-121.591
-117.79
-113.939
-110.051
-106.139
-102.213
-98.2848
-94.3644
-90.461
-86.5834
-82.7395
-78.9368
-75.182
-71.4814
-67.8407
-64.265
-60.759
-57.3269
-53.9726
-50.6992
-47.5099
-44.407
-41.3929
-38.4694
-35.638
-32.9
-30.2564
-27.7077
-25.2545
-22.8969
-20.6349
-18.4684
-16.3969
-14.4197
-12.5363
-10.7456
-9.04657
-7.43814
-5.91898
-4.4877
-3.14283
-1.88277
-0.705895
0.389532
1.40529
2.34323
3.20523
3.99323
4.70919
5.35511
5.93302
6.44497
6.89301
7.27922
7.60569
7.8745
8.08775
8.24752
8.35591
8.415
8.42686
8.39357
8.31717
8.19973
8.04326
7.8498
7.62135
7.35991
7.06745
6.74594
6.39733
6.02356
5.62655
5.20823
4.77047
4.31518
3.84422
3.35947
2.86278
2.35601
1.84099
1.31956
0.793566
0.264827
-159.934
-159.511
-158.694
-157.514
-156.001
-154.181
-152.08
-149.724
-147.137
-144.342
-141.359
-138.21
-134.915
-131.491
-127.957
-124.328
-120.621
-116.851
-113.031
-109.174
-105.292
-101.398
-97.5012
-93.6121
-89.7399
-85.8932
-82.0799
-78.3075
-74.5827
-70.9116
-67.2999
-63.7527
-60.2746
-56.8699
-53.5423
-50.2951
-47.1311
-44.053
-41.0629
-38.1627
-35.3539
-32.6378
-30.0151
-27.4868
-25.0531
-22.7144
-20.4704
-18.3212
-16.2661
-14.3048
-12.4363
-10.6599
-8.97445
-7.37884
-5.87179
-4.45193
-3.11777
-1.86777
-0.700269
0.386426
1.39409
2.32455
3.17968
3.96139
4.67164
5.31242
5.88572
6.39359
6.83806
7.22119
7.54505
7.81172
8.02327
8.18177
8.28929
8.34791
8.35968
8.32665
8.25087
8.13436
7.97914
7.78722
7.56059
7.30123
7.0111
6.69216
6.34633
5.97554
5.5817
5.1667
4.73244
4.28077
3.81357
3.33269
2.83996
2.33722
1.82631
1.30904
0.78724
0.262715
-158.61
-158.189
-157.379
-156.21
-154.709
-152.904
-150.82
-148.484
-145.919
-143.146
-140.188
-137.065
-133.797
-130.402
-126.897
-123.298
-119.622
-115.883
-112.094
-108.27
-104.42
-100.558
-96.6937
-92.8367
-88.9966
-85.1817
-81.4001
-77.6589
-73.9649
-70.3242
-66.7424
-63.2246
-59.7754
-56.3989
-53.0988
-49.8785
-46.7407
-43.6881
-40.7228
-37.8466
-35.0611
-32.3674
-29.7665
-27.2591
-24.8456
-22.5262
-20.3009
-18.1694
-16.1314
-14.1863
-12.3333
-10.5716
-8.90012
-7.31773
-5.82316
-4.41505
-3.09195
-1.8523
-0.694469
0.383225
1.38254
2.30529
3.15334
3.92858
4.63295
5.26842
5.83697
6.34063
6.78142
7.16138
7.48256
7.74702
7.95681
8.114
8.22064
8.27877
8.29044
8.25768
8.18253
8.06698
7.91305
7.72272
7.49797
7.24076
6.95303
6.63673
6.29376
5.92604
5.53547
5.12391
4.69324
4.24532
3.78199
3.30508
2.81644
2.31787
1.81118
1.2982
0.780719
0.260539
-157.246
-156.829
-156.026
-154.866
-153.378
-151.589
-149.524
-147.207
-144.664
-141.915
-138.983
-135.887
-132.647
-129.281
-125.806
-122.238
-118.594
-114.887
-111.131
-107.339
-103.522
-99.6935
-95.8622
-92.0385
-88.2313
-84.4493
-80.7002
-76.9912
-73.3289
-69.7195
-66.1686
-62.681
-59.2614
-55.914
-52.6423
-49.4496
-46.3388
-43.3125
-40.3727
-37.5212
-34.7596
-32.0891
-29.5106
-27.0247
-24.632
-22.3325
-20.1263
-18.0132
-15.9927
-14.0643
-12.2273
-10.4807
-8.82359
-7.2548
-5.77309
-4.37709
-3.06536
-1.83637
-0.688499
0.379928
1.37065
2.28547
3.12622
3.8948
4.59311
5.22311
5.78678
6.28611
6.7231
7.0998
7.41822
7.6804
7.88839
8.04423
8.14995
8.20758
8.21915
8.18668
8.11217
7.99762
7.84501
7.65632
7.4335
7.1785
6.89324
6.57966
6.23964
5.87509
5.48787
5.07985
4.65288
4.20881
3.74947
3.27666
2.79222
2.29793
1.79561
1.28704
0.774006
0.258299
-155.843
-155.43
-154.634
-153.485
-152.01
-150.237
-148.19
-145.894
-143.373
-140.649
-137.743
-134.675
-131.463
-128.127
-124.683
-121.148
-117.536
-113.862
-110.139
-106.381
-102.599
-98.8042
-95.0072
-91.2175
-87.4443
-83.696
-79.9803
-76.3044
-72.6748
-69.0977
-65.5783
-62.1219
-58.7328
-55.4152
-52.1727
-49.0085
-45.9255
-42.9261
-40.0125
-37.1865
-34.4496
-31.8029
-29.2474
-26.7837
-24.4123
-22.1333
-19.9468
-17.8525
-15.8501
-13.9389
-12.1182
-10.3872
-8.74488
-7.19009
-5.72159
-4.33805
-3.03802
-1.81999
-0.682358
0.376538
1.35843
2.26508
3.09834
3.86006
4.55214
5.17652
5.73516
6.23003
6.66313
7.03647
7.35205
7.61189
7.81803
7.97248
8.07725
8.13437
8.14583
8.11365
8.03981
7.92628
7.77503
7.58802
7.36719
7.11446
6.83176
6.52097
6.18399
5.82268
5.43892
5.03454
4.61138
4.17127
3.71602
3.24744
2.76731
2.27744
1.77959
1.27556
0.767102
0.255995
-154.402
-153.993
-153.205
-152.066
-150.605
-148.847
-146.82
-144.545
-142.048
-139.349