/*--------------------------------*- C++ -*----------------------------------*\
| =========                 |                                                 |
| \\      /  F ield         | OpenFOAM: The Open Source CFD Toolbox           |
|  \\    /   O peration     | Version:  2406                                  |
|   \\  /    A nd           | Website:  www.openfoam.com                      |
|    \\/     M anipulation  |                                                 |
\*---------------------------------------------------------------------------*/
FoamFile
{
    version     2.0;
    format      ascii;
    arch        "LSB;label=32;scalar=64";
    class       volScalarField;
    location    "200";
    object      gradTx;
}
// * * * * * * * * * * * * * * * * * * * * * * * * * * * * * * * * * * * * * //

dimensions      [0 -1 0 1 0 0 0];

internalField   nonuniform List<scalar> 
20000
(
0.119463
0.34943
0.562397
0.758888
0.939206
1.10433
1.25537
1.39284
1.51645
1.62755
1.72743
1.8158
1.89303
1.96011
2.01783
2.06657
2.10666
2.13855
2.16282
2.18
2.19058
2.19495
2.19351
2.18662
2.17467
2.15804
2.13709
2.11217
2.08362
2.05174
2.01683
1.97918
1.93904
1.89667
1.85231
1.8062
1.75855
1.70956
1.65945
1.60838
1.55653
1.50408
1.45116
1.39793
1.34453
1.29107
1.23768
1.18446
1.13153
1.07896
1.02686
0.975303
0.924361
0.874102
0.82459
0.775882
0.728028
0.681076
0.635067
0.590038
0.546022
0.503049
0.461143
0.420328
0.380621
0.342039
0.304595
0.268298
0.233159
0.199181
0.16637
0.134727
0.104253
0.0749469
0.046807
0.0198298
-0.00598924
-0.0306552
-0.0541741
-0.0765524
-0.0977973
-0.117916
-0.136916
-0.154806
-0.171593
-0.187285
-0.201891
-0.215417
-0.227871
-0.23926
-0.249591
-0.258869
-0.267102
-0.274294
-0.280449
-0.285572
-0.289667
-0.292735
-0.294779
-0.295801
0.358457
1.0483
1.68683
2.27613
2.81754
3.31344
3.76584
4.17747
4.54901
4.88283
5.18186
5.4466
5.67848
5.88
6.05317
6.19924
6.31938
6.41505
6.48789
6.53949
6.57123
6.58434
6.57999
6.55931
6.52346
6.47357
6.41073
6.33599
6.25034
6.15472
6.05
5.93704
5.81663
5.68953
5.55648
5.41815
5.27521
5.12827
4.97793
4.82473
4.66921
4.51185
4.35312
4.19345
4.03324
3.87288
3.71272
3.55309
3.3943
3.23662
3.08033
2.92567
2.77285
2.62209
2.47357
2.32745
2.18391
2.04306
1.90504
1.76997
1.63793
1.50902
1.38332
1.26088
1.14177
1.02603
0.913709
0.804829
0.699418
0.597494
0.499067
0.404147
0.312732
0.224822
0.14041
0.0594844
-0.0179662
-0.0919581
-0.162509
-0.229638
-0.293368
-0.353719
-0.410715
-0.46438
-0.514737
-0.56181
-0.605622
-0.646197
-0.683556
-0.71772
-0.74871
-0.776544
-0.80124
-0.822814
-0.841278
-0.856646
-0.868928
-0.878132
-0.884265
-0.88733
0.597653
1.74721
2.81067
3.79255
4.69492
5.52163
6.27551
6.961
7.58052
8.13711
8.63494
9.07584
9.46249
9.79858
10.0871
10.3304
10.5305
10.6899
10.8113
10.8974
10.9503
10.9721
10.9649
10.9304
10.8706
10.7875
10.6828
10.5582
10.4155
10.2562
10.0817
9.89344
9.69279
9.481
9.25927
9.02876
8.79056
8.54571
8.29518
8.0399
7.78074
7.51852
7.25401
6.98793
6.72097
6.45374
6.18685
5.92085
5.65623
5.39349
5.13305
4.87531
4.62066
4.36943
4.12193
3.87845
3.63924
3.40454
3.17455
2.94946
2.72944
2.51462
2.30515
2.10112
1.90264
1.70977
1.5226
1.34116
1.1655
0.995659
0.831642
0.673467
0.521135
0.374642
0.233977
0.0991244
-0.0299388
-0.153238
-0.270804
-0.382668
-0.488866
-0.589434
-0.684412
-0.773839
-0.857753
-0.936196
-1.0092
-1.07682
-1.13907
-1.196
-1.24764
-1.29403
-1.33518
-1.37113
-1.4019
-1.42751
-1.44798
-1.46331
-1.47353
-1.47864
0.836604
2.44607
3.93438
5.30824
6.57107
7.72813
8.78364
9.74305
10.6102
11.3892
12.0858
12.7029
13.2443
13.7148
14.1186
14.4589
14.7389
14.9621
15.1321
15.2526
15.3267
15.3572
15.347
15.2987
15.2151
15.0987
14.9522
14.7779
14.5781
14.3551
14.1109
13.8474
13.5666
13.2701
12.9598
12.6371
12.3038
11.961
11.6104
11.2531
10.8904
10.5233
10.1531
9.78069
9.40703
9.03301
8.65946
8.28714
7.91677
7.54902
7.18449
6.82375
6.46733
6.1157
5.76928
5.42849
5.09368
4.76518
4.44327
4.12823
3.82027
3.5196
3.22641
2.94084
2.66303
2.39309
2.13111
1.87716
1.6313
1.39358
1.16401
0.942621
0.729409
0.524369
0.327487
0.13874
-0.0419041
-0.214481
-0.379032
-0.535603
-0.684243
-0.825005
-0.957941
-1.08311
-1.20056
-1.31035
-1.41254
-1.50717
-1.59431
-1.67399
-1.74627
-1.81119
-1.86879
-1.91911
-1.96218
-1.99802
-2.02667
-2.04813
-2.06244
-2.06959
1.07481
3.14388
5.05725
6.82267
8.44574
9.93283
11.2896
12.5227
13.6371
14.6385
15.5337
16.3268
17.0228
17.6277
18.1466
18.5839
18.9437
19.2305
19.4492
19.6041
19.6993
19.7386
19.7254
19.6633
19.5558
19.4062
19.2179
18.9939
18.7371
18.4505
18.1366
17.798
17.437
17.056
16.6571
16.2424
15.8139
15.3734
14.9227
14.4635
13.9973
13.5255
13.0497
12.571
12.0908
11.61
11.1299
10.6514
10.1754
9.70269
9.23416
8.77051
8.3124
7.86045
7.41521
6.9772
6.54687
6.12464
5.7109
5.30597
4.91016
4.52371
4.14687
3.77984
3.42277
3.07582
2.7391
2.4127
2.0967
1.79115
1.49609
1.21154
0.937502
0.673967
0.420917
0.178321
-0.053859
-0.27567
-0.487166
-0.688405
-0.879452
-1.06037
-1.23123
-1.39211
-1.54307
-1.68418
-1.81552
-1.93716
-2.04915
-2.15157
-2.24447
-2.32791
-2.40194
-2.46661
-2.52197
-2.56804
-2.60486
-2.63245
-2.65083
-2.66002
1.31254
3.84046
6.17865
8.33544
10.3184
12.1351
13.7928
15.2992
16.6607
17.8842
18.9778
19.9467
20.7971
21.5361
22.17
22.7042
23.1437
23.4943
23.7615
23.9508
24.0671
24.115
24.0989
24.023
23.8917
23.7089
23.4788
23.2052
22.8915
22.5413
22.1578
21.7441
21.3031
20.8376
20.3503
19.8437
19.3202
18.782
18.2314
17.6703
17.1007
16.5244
15.9431
15.3583
14.7715
14.1842
13.5976
13.013
12.4314
11.854
11.2816
10.7151
10.1554
9.60327
9.05931
8.52418
7.99844
7.4826
6.97712
6.48241
5.99883
5.52671
5.06632
4.6179
4.18167
3.75779
3.34641
2.94764
2.56158
2.18829
1.82781
1.48016
1.14536
0.823399
0.514242
0.217858
-0.0658006
-0.336792
-0.59518
-0.841038
-1.07444
-1.29548
-1.50422
-1.70077
-1.8852
-2.0576
-2.21806
-2.36666
-2.50349
-2.62861
-2.74211
-2.84405
-2.9345
-3.01351
-3.08114
-3.13742
-3.1824
-3.21611
-3.23857
-3.2498
1.55015
4.53618
7.2984
9.84614
12.1885
14.3345
16.2925
18.0719
19.6802
21.1255
22.4172
23.5618
24.5664
25.4393
26.188
26.8189
27.3381
27.7523
28.068
28.2916
28.429
28.4855
28.4664
28.3768
28.2216
28.0058
27.734
27.4108
27.0403
26.6266
26.1736
25.6849
25.164
24.6141
24.0385
23.44
22.8216
22.186
21.5356
20.8728
20.2
19.5192
18.8325
18.1417
17.4487
16.7549
16.062
15.3714
14.6844
14.0023
13.3262
12.6571
11.9959
11.3437
10.7012
10.0691
9.44803
8.8387
8.24162
7.65725
7.08603
6.52834
5.98451
5.45483
4.93953
4.43883
3.95289
3.48186
3.02583
2.58488
2.15907
1.74842
1.35294
0.972627
0.607441
0.257342
-0.0777261
-0.39783
-0.703048
-0.993464
-1.26917
-1.53026
-1.77684
-2.009
-2.22686
-2.43051
-2.62005
-2.79558
-2.9572
-3.10501
-3.23908
-3.35949
-3.46633
-3.55966
-3.63954
-3.70603
-3.75916
-3.79898
-3.82551
-3.83878
1.78755
5.23097
8.41636
11.3544
14.0555
16.5302
18.7882
20.8401
22.6948
24.3615
25.8511
27.171
28.3295
29.3361
30.1995
30.927
31.5258
32.0034
32.3675
32.6254
32.7838
32.849
32.8269
32.7236
32.5446
32.2957
31.9823
31.6096
31.1824
30.7053
30.1829
29.6194
29.0187
28.3846
27.7207
27.0306
26.3175
25.5844
24.8344
24.0701
23.2943
22.5092
21.7173
20.9207
20.1215
19.3214
18.5224
17.726
16.9338
16.1472
15.3675
14.5959
13.8335
13.0814
12.3404
11.6114
10.8953
10.1926
9.50408
8.8302
8.17148
7.52836
6.90123
6.2904
5.69618
5.11878
4.5584
4.01521
3.48933
2.98084
2.4898
2.01625
1.56019
1.12162
0.700489
0.296761
-0.0896324
-0.45877
-0.810742
-1.14564
-1.46358
-1.76467
-2.04902
-2.31675
-2.56797
-2.80281
-3.02139
-3.22381
-3.41019
-3.58064
-3.73524
-3.87411
-3.99731
-4.10494
-4.19706
-4.27373
-4.335
-4.38092
-4.41151
-4.4268
2.02457
5.92453
9.53225
12.8598
15.9191
18.7219
21.2793
23.6032
25.7038
27.5916
29.2786
30.7735
32.0856
33.2258
34.2036
35.0275
35.7056
36.2466
36.6591
36.9512
37.1306
37.2043
37.1793
37.0623
36.8596
36.5777
36.2228
35.8006
35.3167
34.7765
34.1848
33.5465
32.8662
32.148
31.3962
30.6145
29.8069
28.9766
28.1271
27.2615
26.3828
25.4936
24.5967
23.6945
22.7893
21.8832
20.9782
20.0763
19.179
18.2881
17.405
16.5311
15.6676
14.8158
13.9766
13.151
12.3399
11.544
10.7642
10.001
9.25491
8.52652
7.81624
7.12443
6.45141
5.79746
5.16279
4.54758
3.95197
3.37606
2.81991
2.28358
1.76705
1.27033
0.793365
0.336108
-0.101517
-0.519598
-0.918236
-1.29754
-1.65764
-1.99864
-2.32069
-2.62392
-2.90845
-3.17443
-3.42199
-3.65125
-3.86234
-4.05538
-4.23049
-4.38776
-4.5273
-4.6492
-4.75353
-4.84037
-4.90976
-4.96177
-4.99642
-5.01374
2.26108
6.61664
10.6458
14.3621
17.7787
20.909
23.7651
26.3605
28.7065
30.8149
32.6989
34.3684
35.8338
37.1072
38.1992
39.1193
39.8767
40.4809
40.9416
41.2678
41.4681
41.5505
41.5226
41.3918
41.1655
40.8507
40.4543
39.9828
39.4424
38.839
38.1783
37.4654
36.7056
35.9035
35.0638
34.1909
33.2889
32.3616
31.4129
30.4462
29.4648
28.4718
27.4701
26.4625
25.4515
24.4396
23.4289
22.4216
21.4195
20.4245
19.4383
18.4623
17.4979
16.5465
15.6093
14.6873
13.7814
12.8926
12.0217
11.1693
10.3361
9.52258
8.72932
7.9567
7.20506
6.47471
5.7659
5.07882
4.41363
3.77044
3.14933
2.55034
1.97348
1.41873
0.886045
0.375372
-0.113376
-0.580297
-1.0255
-1.44912
-1.85128
-2.23212
-2.59179
-2.93044
-3.24821
-3.54527
-3.82174
-4.07778
-4.31353
-4.52913
-4.72469
-4.90033
-5.05618
-5.19231
-5.30883
-5.40581
-5.48332
-5.5414
-5.5801
-5.59944
2.49703
7.3071
11.7567
15.8608
19.634
23.0909
26.2451
29.1113
31.7021
34.0305
36.1111
37.9548
39.5732
40.9794
42.1854
43.2015
44.0379
44.7052
45.214
45.5743
45.7955
45.8864
45.8556
45.7111
45.4612
45.1135
44.6758
44.1551
43.5584
42.892
42.1623
41.3751
40.5359
39.6501
38.7229
37.7588
36.7627
35.7387
34.6909
33.6233
32.5395
31.4429
30.3367
29.2239
28.1075
26.9899
25.8738
24.7613
23.6547
22.5559
21.4667
20.3888
19.3239
18.2732
17.2382
16.2199
15.2195
14.238
13.2762
12.3348
11.4147
10.5163
9.64025
8.787
7.95693
7.15037
6.36759
5.60881
4.87421
4.1639
3.47797
2.81648
2.17941
1.56677
0.978506
0.414543
-0.125207
-0.640852
-1.13252
-1.60034
-2.04447
-2.46505
-2.86225
-3.23624
-3.58718
-3.91522
-4.22055
-4.50331
-4.76367
-5.00176
-5.21772
-5.4117
-5.5838
-5.73415
-5.86283
-5.96993
-6.05552
-6.11966
-6.1624
-6.18376
2.73236
7.99576
12.8647
17.3556
21.4844
25.2671
28.7186
31.8549
34.6899
37.2378
39.5144
41.5318
43.3028
44.8416
46.1612
47.273
48.1883
48.9185
49.4753
49.8695
50.1115
50.211
50.1772
50.0192
49.7457
49.3653
48.8863
48.3165
47.6635
46.9344
46.1359
45.2745
44.3563
43.387
42.3723
41.3174
40.2274
39.1069
37.9604
36.7922
35.6062
34.4062
33.1958
31.9782
30.7565
29.5336
28.3123
27.095
25.884
24.6817
23.4898
22.3104
21.1451
19.9954
18.8628
17.7486
16.6539
15.5799
14.5274
13.4973
12.4904
11.5074
10.5488
9.61514
8.70684
7.82426
6.96771
6.13742
5.33358
4.55633
3.80576
3.08192
2.38481
1.71443
1.07073
0.453611
-0.137008
-0.70125
-1.23925
-1.75116
-2.23715
-2.69737
-3.13201
-3.54124
-3.92525
-4.28422
-4.61832
-4.92773
-5.21262
-5.47315
-5.70947
-5.92173
-6.11005
-6.27457
-6.41537
-6.53256
-6.62622
-6.69641
-6.74318
-6.76655
2.96702
8.68245
13.9696
18.8461
23.3296
27.4371
31.185
34.5907
37.6691
40.4358
42.908
45.0986
47.0217
48.6927
50.1256
51.3329
52.3268
53.1198
53.7243
54.1524
54.4152
54.5232
54.4865
54.3149
54.0179
53.6048
53.0847
52.4661
51.757
50.9652
50.0982
49.1628
48.1657
47.1132
46.0113
44.8659
43.6822
42.4655
41.2205
39.952
38.6641
37.3611
36.0467
34.7245
33.3979
32.07
30.7438
29.4219
28.107
26.8014
25.5072
24.2265
22.961
21.7126
20.4828
19.2728
18.0842
16.9179
15.775
14.6565
13.5631
12.4957
11.4548
10.4409
9.45459
8.49622
7.5661
6.66451
5.79164
4.94764
4.1326
3.3466
2.58963
1.86167
1.16268
0.492568
-0.148774
-0.761475
-1.34568
-1.90156
-2.42928
-2.92903
-3.40099
-3.84537
-4.26236
-4.65215
-5.01495
-5.35093
-5.66029
-5.94319
-6.19981
-6.4303
-6.63479
-6.81344
-6.96633
-7.09359
-7.19529
-7.27151
-7.32229
-7.34767
3.20095
9.367
15.071
20.332
25.1689
29.6003
33.6437
37.3179
40.639
43.6239
46.291
48.6543
50.7291
52.5318
54.0776
55.3801
56.4524
57.3079
57.9601
58.4219
58.7054
58.822
58.7823
58.5972
58.2768
57.8312
57.27
56.6026
55.8377
54.9835
54.0481
53.0389
51.9632
50.8277
49.639
48.4032
47.1262
45.8135
44.4705
43.1019
41.7125
40.3068
38.8887
37.4623
36.0311
34.5985
33.1677
31.7416
30.323
28.9145
27.5182
26.1365
24.7714
23.4245
22.0977
20.7924
19.51
18.2517
17.0187
15.812
14.6325
13.4809
12.3579
11.2641
10.2
9.16608
8.16264
7.18996
6.24826
5.33772
4.45843
3.61045
2.7938
2.00845
1.25435
0.531403
-0.160504
-0.821512
-1.45178
-2.05148
-2.62081
-3.15996
-3.66913
-4.14855
-4.59841
-5.01894
-5.41034
-5.77281
-6.10656
-6.41177
-6.68862
-6.93728
-7.1579
-7.35062
-7.51558
-7.65287
-7.76259
-7.84481
-7.8996
-7.92698
3.43409
10.0492
16.1687
21.8129
27.0021
31.7562
36.0941
40.0359
43.5989
46.8012
49.6625
52.198
54.4239
56.3579
58.0163
59.4137
60.564
61.4818
62.1816
62.6771
62.9812
63.1062
63.0637
62.865
62.5213
62.0432
61.4413
60.7252
59.9045
58.9882
57.9846
56.9019
55.7479
54.5297
53.2544
51.9286
50.5586
49.1503
47.7094
46.2412
44.7506
43.2425
41.7211
40.1908
38.6554
37.1184
35.5834
34.0535
32.5316
31.0204
29.5225
28.0402
26.5755
25.1306
23.7071
22.3068
20.931
19.5811
18.2583
16.9637
15.6982
14.4627
13.258
12.0845
10.9429
9.83369
8.75715
7.71363
6.70335
5.72649
4.78315
3.87341
2.99728
2.15473
1.34571
0.570107
-0.172195
-0.881346
-1.55752
-2.2009
-2.81169
-3.39011
-3.93637
-4.4507
-4.93334
-5.38449
-5.8044
-6.19327
-6.55133
-6.87876
-7.17578
-7.44255
-7.67924
-7.886
-8.06297
-8.21026
-8.32797
-8.41618
-8.47496
-8.50434
3.66638
10.729
17.2623
23.2884
28.8286
33.9043
38.5356
42.744
46.5481
49.967
53.0218
55.7288
58.1052
60.1701
61.9407
63.4326
64.6607
65.6406
66.3877
66.9167
67.2414
67.3748
67.3294
67.1173
66.7504
66.24
65.5973
64.8328
63.9567
62.9783
61.9069
60.751
59.5188
58.2182
56.8567
55.4412
53.9785
52.475
50.9366
49.3691
47.7777
46.1675
44.5433
42.9094
41.2701
39.6292
37.9904
36.357
34.7321
33.1187
31.5195
29.9369
28.3732
26.8305
25.3107
23.8156
22.3468
20.9056
19.4933
18.1112
16.7601
15.441
14.1548
12.9019
11.6831
10.4989
9.34951
8.2354
7.15678
6.11384
5.1067
4.13542
3.20003
2.30049
1.43674
0.60867
-0.183842
-0.940963
-1.66287
-2.34977
-3.00188
-3.61943
-4.20264
-4.75176
-5.26704
-5.74871
-6.19702
-6.6122
-6.99447
-7.34406
-7.66117
-7.94598
-8.19868
-8.41943
-8.60837
-8.76562
-8.8913
-8.98548
-9.04823
-9.07959
3.89777
11.4061
18.3518
24.7581
30.6479
36.044
40.9676
45.4416
49.4857
53.1205
56.368
59.2458
61.7723
63.9675
65.8498
67.4358
68.7415
69.7832
70.5775
71.1399
71.485
71.6269
71.5786
71.3531
70.963
70.4204
69.7372
68.9245
67.993
66.9529
65.8138
64.585
63.2751
61.8924
60.4449
58.9401
57.3851
55.7867
54.1512
52.4847
50.7929
49.0811
47.3544
45.6175
43.8747
42.1302
40.388
38.6515
36.9241
35.2088
33.5087
31.8262
30.1638
28.5238
26.9081
25.3187
23.7571
22.2249
20.7236
19.2542
17.8178
16.4155
15.0481
13.7162
12.4205
11.1614
9.93956
8.75514
7.60845
6.49969
5.42898
4.39641
3.40198
2.44567
1.52741
0.647083
-0.195445
-1.00035
-1.76782
-2.49807
-3.19133
-3.84785
-4.46787
-5.05165
-5.59944
-6.11151
-6.58812
-7.0295
-7.4359
-7.80755
-8.14466
-8.44745
-8.7161
-8.95078
-9.15164
-9.31882
-9.45243
-9.55255
-9.61926
-9.65261
4.12819
12.0804
19.4367
26.2217
32.4598
38.1748
43.3895
48.128
52.4112
56.2608
59.7003
62.7482
65.4241
67.7491
69.7427
71.4224
72.8052
73.9086
74.7498
75.3454
75.711
75.8612
75.8101
75.5713
75.1581
74.5834
73.8598
72.9991
72.0125
70.911
69.7046
68.4031
67.0157
65.5513
64.0183
62.4245
60.7776
59.0847
57.3525
55.5875
53.7957
51.9827
50.1539
48.3142
46.4684
44.6209
42.7756
40.9364
39.1069
37.2903
35.4896
33.7077
31.947
30.21
28.4988
26.8154
25.1615
23.5388
21.9487
20.3924
18.8712
17.386
15.9377
14.527
13.1547
11.8213
10.5272
9.27271
8.05824
6.88393
5.74993
4.65631
3.60309
2.59025
1.6177
0.685337
-0.207
-1.05949
-1.87233
-2.64575
-3.38
-4.07532
-4.732
-5.35029
-5.93047
-6.47281
-6.97759
-7.44506
-7.87549
-8.26911
-8.62615
-8.94684
-9.23137
-9.47992
-9.69266
-9.86972
-10.0112
-10.1173
-10.1879
-10.2232
4.3576
12.7517
20.5168
27.6789
34.2636
40.2962
45.8007
50.8025
55.3237
59.3873
63.0179
66.2352
69.0598
71.5139
73.6183
75.3914
76.8511
78.0158
78.9037
79.5324
79.9183
80.0769
80.0229
79.7708
79.3346
78.7281
77.9643
77.0557
76.0143
74.8515
73.5781
72.2043
70.7398
69.194
67.5758
65.8935
64.155
62.368
60.5396
58.6765
56.7851
54.8714
52.9409
50.9991
49.0507
47.1005
45.1526
43.2113
41.2801
39.3625
37.4618
35.5808
33.7223
31.8888
30.0825
28.3056
26.5598
24.8469
23.1684
21.5256
19.9199
18.3521
16.8233
15.3343
13.8857
12.4782
11.1122
9.788
8.50604
7.26647
6.06945
4.91506
3.80332
2.73419
1.7076
0.723421
-0.218503
-1.11836
-1.97637
-2.79277
-3.56782
-4.30179
-4.99496
-5.6476
-6.26002
-6.83251
-7.36533
-7.85879
-8.31313
-8.72862
-9.10551
-9.44402
-9.74436
-10.0067
-10.2313
-10.4182
-10.5676
-10.6795
-10.7541
-10.7914
4.58593
13.4199
21.5918
29.1292
36.0589
42.4076
48.2006
53.4644
58.2226
62.4991
66.3199
69.7058
72.6784
75.2612
77.4758
79.3417
80.8779
82.1036
83.0381
83.6998
84.1059
84.2728
84.2159
83.9506
83.4916
82.8533
82.0495
81.0933
79.9974
78.7736
77.4335
75.9877
74.4465
72.8197
71.1167
69.3462
67.5166
65.636
63.7118
61.7511
59.7606
57.7466
55.715
53.6713
51.6209
49.5684
47.5186
45.4755
43.4431
41.4251
39.4247
37.4452
35.4893
33.5597
31.6588
29.7887
27.9515
26.1488
24.3824
22.6535
20.9636
19.3137
17.7048
16.1378
14.6133
13.132
11.6944
10.3009
8.95174
7.64722
6.38748
5.1726
4.00261
2.87746
1.79707
0.761327
-0.229952
-1.17696
-2.07993
-2.93911
-3.75477
-4.5272
-5.25668
-5.94353
-6.58804
-7.19052
-7.75127
-8.27057
-8.74872
-9.18599
-9.58263
-9.93887
-10.255
-10.5311
-10.7674
-10.9641
-11.1213
-11.2391
-11.3176
-11.3568
4.81313
14.0847
22.6615
30.5723
37.8454
44.5086
50.5886
56.1132
61.1071
65.5955
69.6056
73.1592
76.2791
78.9898
81.3142
83.2725
84.8848
86.1713
87.1521
87.8465
88.2728
88.4479
88.3882
88.1097
87.628
86.9581
86.1144
85.1109
83.9607
82.6763
81.2698
79.7523
78.1348
76.4274
74.64
72.7818
70.8616
68.8878
66.8682
64.8104
62.7213
60.6075
58.4752
56.3304
54.1783
52.0242
49.8728
47.7285
45.5954
43.4774
41.3779
39.3003
37.2476
35.2224
33.2273
31.2645
29.3363
27.4443
25.5903
23.7759
22.0022
20.2706
18.582
16.9373
15.3373
13.7826
12.2738
10.8112
9.39523
8.02609
6.70394
5.42887
4.20091
3.02002
1.88611
0.799044
-0.241345
-1.23527
-2.18298
-3.08472
-3.94079
-4.75149
-5.51711
-6.23799
-6.91443
-7.54676
-8.13528
-8.68032
-9.18216
-9.64109
-10.0574
-10.4313
-10.763
-11.0528
-11.3008
-11.5073
-11.6723
-11.7959
-11.8783
-11.9194
5.03914
14.7461
23.7257
32.0079
39.6225
46.5986
52.9641
58.7481
63.9765
68.6757
72.8741
76.5945
79.861
82.699
85.1325
87.1828
88.8708
90.2177
91.2445
91.9716
92.4178
92.6011
92.5387
92.2471
91.7428
91.0414
90.1581
89.1075
87.9032
86.5586
85.086
83.4973
81.8038
80.0162
78.1449
76.1994
74.1891
72.1226
70.0082
67.8537
65.6665
63.4534
61.2211
58.9755
56.7224
54.4671
52.2147
49.9697
47.7364
45.5189
43.3209
41.1458
38.9966
36.8763
34.7875
32.7326
30.7138
28.733
26.792
24.8923
23.0354
21.2224
19.4545
17.7326
16.0575
14.4298
12.8501
11.3189
9.83641
8.40297
7.01873
5.68379
4.39817
3.16183
1.97467
0.836565
-0.252678
-1.29328
-2.28548
-3.22957
-4.12584
-4.9746
-5.77618
-6.53091
-7.23911
-7.90113
-8.5173
-9.08792
-9.61333
-10.0938
-10.5296
-10.9211
-11.2684
-11.5718
-11.8315
-12.0476
-12.2204
-12.3498
-12.436
-12.4792
5.26391
15.4039
24.7839
33.4356
41.3898
48.6771
55.3265
61.3685
66.8301
71.7389
76.1246
80.011
83.4231
86.3878
88.9297
91.0715
92.8348
94.2418
95.3144
96.0739
96.5401
96.7315
96.6663
96.3618
95.8349
95.1022
94.1796
93.0821
91.8241
90.4195
88.8812
87.2216
85.4526
83.5853
81.6305
79.5983
77.4982
75.3396
73.1309
70.8803
68.5955
66.2838
63.9518
61.6061
59.2525
56.8966
54.5437
52.1985
49.8657
47.5493
45.2532
42.9811
40.736
38.5212
36.3392
34.1927
32.0838
30.0146
27.987
26.0026
24.0629
22.169
20.3223
18.5236
16.7737
15.0735
13.4233
11.8237
10.2752
8.77778
7.3318
5.93731
4.59435
3.30286
2.06275
0.873879
-0.263949
-1.35096
-2.38743
-3.37363
-4.30987
-5.19649
-6.03383
-6.82221
-7.56201
-8.25356
-8.8972
-9.49329
-10.0421
-10.544
-10.9993
-11.4082
-11.771
-12.088
-12.3592
-12.585
-12.7654
-12.9007
-12.9907
-13.0358
5.48738
16.0578
25.8361
34.8551
43.147
50.7436
57.6753
63.9738
69.6673
74.7845
79.3563
83.4077
86.9647
90.0552
92.7051
94.9378
96.7759
98.2426
99.3609
100.153
100.639
100.838
100.77
100.453
99.9034
99.1396
98.1778
97.0337
95.7224
94.2581
92.6545
90.9245
89.0803
87.1338
85.096
82.9775
80.7883
78.538
76.2355
73.8894
71.5076
69.0977
66.6668
64.2214
61.7679
59.312
56.8592
54.4145
51.9826
49.5679
47.1744
44.8057
42.4654
40.1565
37.8819
35.6443
33.4458
31.2888
29.1752
27.1065
25.0844
23.1102
21.185
19.31
17.4858
15.7134
13.9932
12.3257
10.7114
9.15042
7.64306
6.18937
4.78939
3.44307
2.15032
0.910978
-0.275155
-1.40832
-2.48878
-3.51685
-4.49284
-5.4171
-6.28998
-7.11184
-7.88304
-8.60395
-9.27492
-9.89631
-10.4684
-10.9917
-11.4663
-11.8925
-12.2708
-12.6011
-12.8839
-13.1193
-13.3074
-13.4483
-13.5422
-13.5892
5.7095
16.7078
26.8819
36.2659
44.8935
52.7976
60.0099
66.5633
72.4872
77.8116
82.5685
86.7838
90.4848
93.7004
96.4576
98.7806
100.693
102.219
103.383
104.207
104.712
104.92
104.849
104.519
103.947
103.153
102.152
100.961
99.597
98.0735
96.4049
94.6049
92.6861
90.6608
88.5405
86.3362
84.0584
81.717
79.3213
76.8803
74.4021
71.8946
69.3653
66.821
64.2681
61.7128
59.1607
56.6171
54.0868
51.5743
49.0839
46.6194
44.1843
41.782
39.4153
37.087
34.7996
32.5553
30.3561
28.2037
26.0998
24.0456
22.0426
20.0916
18.1936
16.3494
14.5596
12.8246
11.1449
9.52081
7.95243
6.4399
4.98325
3.58244
2.23736
0.947852
-0.286293
-1.46532
-2.58952
-3.6592
-4.6747
-5.63637
-6.54458
-7.39971
-8.20213
-8.95221
-9.65034
-10.2969
-10.8922
-11.4366
-11.9304
-12.3739
-12.7674
-13.1112
-13.4054
-13.6503
-13.846
-13.9927
-14.0904
-14.1392
5.9302
17.3536
27.921
37.6678
46.6289
54.8385
62.3296
69.1364
75.2893
80.8195
85.7602
90.1385
93.9826
97.3225
100.186
102.599
104.586
106.171
107.379
108.235
108.76
108.976
108.902
108.559
107.965
107.14
106.101
104.864
103.447
101.865
100.132
98.262
96.269
94.1654
91.9631
89.6736
87.3078
84.8759
82.3876
79.8522
77.2782
74.6738
72.0467
69.404
66.7525
64.0984
61.4477
58.8057
56.1776
53.568
50.9813
48.4215
45.8923
43.3971
40.9389
38.5207
36.1449
33.8138
31.5295
29.294
27.1087
24.9751
22.8946
20.8683
18.8969
16.9814
15.1224
13.3204
11.5758
9.88885
8.25984
6.68884
5.17589
3.72092
2.32385
0.984492
-0.29736
-1.52197
-2.68962
-3.80065
-4.85541
-5.85425
-6.79757
-7.68575
-8.51919
-9.29827
-10.0234
-10.6949
-11.3132
-11.8787
-12.3916
-12.8522
-13.261
-13.618
-13.9236
-14.178
-14.3812
-14.5336
-14.6351
-14.6858
6.14945
17.9952
28.9533
39.0604
48.3528
56.866
64.634
71.6924
78.0728
83.8075
88.9309
93.471
97.4572
100.921
103.89
106.392
108.452
110.096
111.349
112.236
112.781
113.004
112.928
112.572
111.957
111.101
110.023
108.741
107.272
105.631
103.834
101.895
99.8281
97.6467
95.363
92.9889
90.5356
88.0138
85.4335
82.8043
80.1352
77.4345
74.7103
71.9699
69.2204
66.4682
63.7194
60.9798
58.2545
55.5484
52.8661
50.2117
47.589
45.0015
42.4525
39.9448
37.4812
35.0639
32.6952
30.377
28.1109
25.8985
23.7411
21.6398
19.5955
17.6092
15.6815
13.8128
12.0037
10.2544
8.56521
6.93613
5.36724
3.85849
2.40976
1.02089
-0.308354
-1.57823
-2.78906
-3.94117
-5.03491
-6.07069
-7.04888
-7.9699
-8.83415
-9.64203
-10.394
-11.0903
-11.7315
-12.3178
-12.8497
-13.3274
-13.7512
-14.1215
-14.4384
-14.7021
-14.9129
-15.0709
-15.1761
-15.2288
6.36717
18.6324
29.9784
40.4434
50.0647
58.8793
66.9224
74.2307
80.837
86.7747
92.0795
96.7804
100.908
104.494
107.569
110.159
112.292
113.994
115.291
116.21
116.774
117.005
116.927
116.558
115.921
115.035
113.919
112.591
111.07
109.371
107.51
105.502
103.363
101.104
98.7394
96.2813
93.7411
91.13
88.4584
85.7361
82.9724
80.1762
77.3555
74.5181
71.6712
68.8215
65.9755
63.1388
60.317
57.5151
54.7379
51.9894
49.2739
46.5948
43.9555
41.3591
38.8082
36.3054
33.8528
31.4525
29.1062
26.8155
24.5816
22.4059
20.2893
18.2327
16.2367
14.3019
12.4287
10.6175
8.86847
7.18171
5.55727
3.9951
2.49508
1.05703
-0.319272
-1.63411
-2.88781
-4.08071
-5.21318
-6.28563
-7.29845
-8.25208
-9.14693
-9.98342
-10.762
-11.483
-12.1469
-12.754
-13.3047
-13.7993
-14.2381
-14.6215
-14.9496
-15.2227
-15.4409
-15.6045
-15.7135
-15.7679
6.58333
19.2649
30.9961
41.8164
51.7644
60.8782
69.1944
76.7508
83.5813
89.7206
95.2055
100.066
104.333
108.041
111.22
113.899
116.104
117.864
119.205
120.155
120.738
120.978
120.896
120.515
119.856
118.94
117.786
116.413
114.84
113.084
111.16
109.084
106.872
104.536
102.092
99.5499
96.9235
94.2237
91.4614
88.6467
85.7892
82.898
79.9816
77.0478
74.1043
71.1579
68.2152
65.2823
62.3647
59.4677
56.5961
53.7544
50.9467
48.1766
45.4478
42.7632
40.1257
37.5379
35.0021
32.5203
30.0943
27.7258
25.4162
23.1666
20.9781
18.8517
16.7879
14.7874
12.8507
10.978
9.16954
7.42552
5.74593
4.13073
2.57979
1.09292
-0.33011
-1.68959
-2.98585
-4.21924
-5.39016
-6.49901
-7.54623
-8.53223
-9.45745
-10.3223
-11.1273
-11.8728
-12.5592
-13.1869
-13.7563
-14.2677
-14.7215
-15.1179
-15.4571
-15.7395
-15.9651
-16.1342
-16.2469
-16.3032
6.79786
19.8927
32.0062
43.1791
53.4512
62.862
71.4492
79.2518
86.305
92.6443
98.3079
103.327
107.733
111.562
114.845
117.61
119.888
121.705
123.09
124.071
124.673
124.92
124.836
124.442
123.762
122.816
121.624
120.207
118.583
116.769
114.782
112.639
110.354
107.943
105.418
102.794
100.082
97.2942
94.4419
91.5354
88.5848
85.5994
82.5879
79.5586
76.5191
73.4768
70.4382
67.4096
64.397
61.4056
58.4404
55.5061
52.6069
49.7466
46.9288
44.1567
41.4333
38.7611
36.1427
33.58
31.075
28.6293
26.2444
23.9215
21.6617
19.466
17.335
15.2693
13.2694
11.3357
9.46835
7.6675
5.93318
4.26534
2.66385
1.12853
-0.340868
-1.74465
-3.08315
-4.35673
-5.56581
-6.7108
-7.79213
-8.81027
-9.76564
-10.6587
-11.4899
-12.2597
-12.9685
-13.6167
-14.2046
-14.7327
-15.2012
-15.6105
-15.9608
-16.2524
-16.4854
-16.66
-16.7764
-16.8345
7.01071
20.5156
33.0084
44.5311
55.1249
64.8304
73.6864
81.7334
89.0074
95.5452
101.386
106.562
111.107
115.055
118.441
121.293
123.641
125.515
126.944
127.956
128.576
128.831
128.744
128.339
127.637
126.661
125.433
123.971
122.296
120.425
118.376
116.166
113.81
111.323
108.719
106.013
103.216
100.341
97.399
94.4016
91.3586
88.2797
85.1739
82.0497
78.9151
75.7774
72.6437
69.5204
66.4134
63.3283
60.2703
57.2441
54.2541
51.3042
48.3982
45.5393
42.7306
39.9748
37.2744
34.6314
32.048
29.5257
27.0661
24.6705
22.34
20.0755
17.8778
15.7474
13.6849
11.6906
9.76482
7.90758
6.11896
4.39889
2.74726
1.16387
-0.351541
-1.79928
-3.17968
-4.49315
-5.74008
-6.92092
-8.03612
-9.08613
-10.0714
-10.9925
-11.8497
-12.6436
-13.3746
-14.043
-14.6494
-15.194
-15.6772
-16.0993
-16.4606
-16.7613
-17.0016
-17.1817
-17.3017
-17.3616
7.22184
21.1334
34.0024
45.8721
56.7849
66.7827
75.9054
84.1947
91.6878
98.4225
104.439
109.771
114.453
118.52
122.007
124.946
127.365
129.295
130.767
131.809
132.448
132.711
132.622
132.204
131.481
130.476
129.21
127.704
125.979
124.051
121.941
119.664
117.237
114.675
111.993
109.205
106.324
103.362
100.332
97.2444
94.1098
90.9382
87.7389
84.5206
81.2916
78.0594
74.8313
71.6139
68.4134
65.2354
62.0853
58.968
55.8879
52.8492
49.8557
46.9107
44.0174
41.1786
38.3969
35.6743
33.0131
30.4149
27.8812
25.4135
23.0128
20.6801
18.4161
16.2216
14.097
12.0427
10.0589
8.14571
6.30322
4.53136
2.83
1.19892
-0.362128
-1.85346
-3.27544
-4.62846
-5.91294
-7.12934
-8.27812
-9.35976
-10.3747
-11.3235
-12.2065
-13.0243
-13.7773
-14.4659
-15.0905
-15.6515
-16.1493
-16.5841
-16.9563
-17.266
-17.5136
-17.6991
-17.8227
-17.8845
7.43118
21.746
34.9881
47.2018
58.431
68.7186
78.1057
86.6353
94.3456
101.276
107.467
112.953
117.77
121.956
125.544
128.568
131.057
133.043
134.558
135.63
136.288
136.558
136.466
136.036
135.292
134.258
132.955
131.406
129.63
127.647
125.476
123.133
120.635
117.999
115.24
112.371
109.406
106.359
103.241
100.063
96.8378
93.5743
90.2822
86.9706
83.648
80.3222
77.0005
73.6898
70.3965
67.1264
63.885
60.6773
57.508
54.3812
51.3009
48.2705
45.2934
42.3723
39.5099
36.7085
33.9701
31.2965
28.6894
26.1502
23.6799
21.2795
18.95
16.6918
14.5057
12.3918
10.3505
8.38183
6.48594
4.66271
2.91203
1.23367
-0.372625
-1.90719
-3.37039
-4.76262
-6.08434
-7.33601
-8.51808
-9.63107
-10.6755
-11.6517
-12.5604
-13.4019
-14.1767
-14.8852
-15.528
-16.1052
-16.6174
-17.0648
-17.4478
-17.7665
-18.0212
-18.2121
-18.3393
-18.4029
7.63869
22.3532
35.9651
48.5199
60.0626
70.6375
80.2868
89.0545
96.9801
104.104
110.468
116.107
121.059
125.361
129.05
132.158
134.716
136.758
138.315
139.417
140.094
140.371
140.277
139.835
139.07
138.007
136.668
135.076
133.25
131.212
128.98
126.571
124.004
121.294
118.458
115.509
112.461
109.329
106.123
102.857
99.5419
96.1872
92.8032
89.3992
85.9838
82.5651
79.1507
75.7475
72.3622
69.0008
65.6689
62.3717
59.1138
55.8997
52.7334
49.6184
46.5582
43.5555
40.6132
37.7335
34.9186
32.1705
29.4906
26.8804
24.3411
21.8737
19.4791
17.1579
14.9107
12.7378
10.6395
8.61589
6.66705
4.79292
2.99334
1.26812
-0.38303
-1.96044
-3.4645
-4.89562
-6.25424
-7.54086
-8.75594
-9.90001
-10.9736
-11.9771
-12.9111
-13.7761
-14.5726
-15.3009
-15.9616
-16.555
-17.0814
-17.5414
-17.935
-18.2626
-18.5245
-18.7207
-18.8514
-18.9168
7.84431
22.9549
36.9332
49.826
61.6794
72.5389
82.448
91.4517
99.5906
106.906
113.441
119.233
124.318
128.736
132.524
135.715
138.343
140.44
142.038
143.17
143.865
144.15
144.053
143.599
142.814
141.722
140.347
138.712
136.837
134.744
132.451
129.978
127.342
124.559
121.646
118.618
115.488
112.272
108.98
105.626
102.221
98.7765
95.3014
91.8057
88.2984
84.7877
81.2813
77.7866
74.3101
70.8582
67.4366
64.0506
60.7051
57.4045
54.1529
50.9541
47.8114
44.728
41.7064
38.7492
35.8586
33.0364
30.2844
27.604
24.9963
22.4625
20.0035
17.6198
15.3121
13.0807
10.9259
8.84782
6.84652
4.92194
3.07392
1.30226
-0.393341
-2.01322
-3.55776
-5.0274
-6.4226
-7.74385
-8.99164
-10.1665
-11.2689
-12.2995
-13.2587
-14.1469
-14.9648
-15.7128
-16.3912
-17.0006
-17.5413
-18.0136
-18.4178
-18.7542
-19.0231
-19.2246
-19.3589
-19.426
8.048
23.551
37.8922
51.1198
63.281
74.4225
84.5889
93.8264
102.177
109.682
116.387
122.329
127.546
132.079
135.965
139.239
141.935
144.086
145.727
146.888
147.6
147.893
147.793
147.328
146.522
145.402
143.991
142.313
140.39
138.243
135.891
133.353
130.649
127.794
124.805
121.698
118.487
115.187
111.81
108.369
104.876
101.341
97.776
94.1896
90.5912
86.9893
83.3919
79.8064
76.2397
72.6982
69.1877
65.7138