/*--------------------------------*- C++ -*----------------------------------*\
| =========                 |                                                 |
| \\      /  F ield         | OpenFOAM: The Open Source CFD Toolbox           |
|  \\    /   O peration     | Version:  2406                                  |
|   \\  /    A nd           | Website:  www.openfoam.com                      |
|    \\/     M anipulation  |                                                 |
\*---------------------------------------------------------------------------*/
FoamFile
{
    version     2.0;
    format      ascii;
    arch        "LSB;label=32;scalar=64";
    class       volScalarField;
    location    "65";
    object      gradTx;
}
// * * * * * * * * * * * * * * * * * * * * * * * * * * * * * * * * * * * * * //

dimensions      [0 -1 0 1 0 0 0];

internalField   nonuniform List<scalar> 
20000
(
-6.93493
-6.80608
-6.67149
-6.5321
-6.38828
-6.24083
-6.09125
-5.93892
-5.7841
-5.62855
-5.4726
-5.31608
-5.1593
-5.00289
-4.84738
-4.69308
-4.54019
-4.38889
-4.2394
-4.09195
-3.94679
-3.80409
-3.66403
-3.52674
-3.39234
-3.26091
-3.13255
-3.00732
-2.88528
-2.76646
-2.6509
-2.53863
-2.42966
-2.32398
-2.2216
-2.12249
-2.02665
-1.93403
-1.8446
-1.75833
-1.67517
-1.59507
-1.51798
-1.44383
-1.37258
-1.30415
-1.23848
-1.17551
-1.11517
-1.05738
-1.00208
-0.949197
-0.898658
-0.850392
-0.804326
-0.76039
-0.718513
-0.678624
-0.640654
-0.604535
-0.570198
-0.537578
-0.506609
-0.477227
-0.449371
-0.422979
-0.397992
-0.374353
-0.352006
-0.330895
-0.31097
-0.292178
-0.274472
-0.257804
-0.242128
-0.227402
-0.213583
-0.200632
-0.188511
-0.177182
-0.166613
-0.156769
-0.147621
-0.139138
-0.131295
-0.124064
-0.117421
-0.111346
-0.105816
-0.100813
-0.0963193
-0.0923196
-0.0887997
-0.0857469
-0.0831504
-0.0810008
-0.0792905
-0.0780131
-0.077164
-0.0767402
-20.803
-20.4166
-20.0129
-19.5944
-19.1635
-18.7215
-18.2718
-17.8147
-17.3511
-16.8847
-16.4165
-15.9467
-15.4765
-15.0074
-14.541
-14.0782
-13.6195
-13.1656
-12.7171
-12.2748
-11.8394
-11.4113
-10.9912
-10.5794
-10.1762
-9.78195
-9.39689
-9.02123
-8.65512
-8.2987
-7.95206
-7.61527
-7.28837
-6.97137
-6.66425
-6.36696
-6.07944
-5.80161
-5.53335
-5.27456
-5.0251
-4.78482
-4.55356
-4.33114
-4.11739
-3.91212
-3.71514
-3.52624
-3.34523
-3.17188
-3.006
-2.84736
-2.69575
-2.55097
-2.41278
-2.28098
-2.15536
-2.0357
-1.9218
-1.81346
-1.71045
-1.6126
-1.5197
-1.43156
-1.348
-1.26883
-1.19388
-1.12297
-1.05593
-0.992604
-0.932832
-0.876463
-0.823349
-0.773348
-0.726326
-0.68215
-0.640697
-0.601847
-0.565485
-0.531503
-0.499797
-0.470269
-0.442826
-0.417381
-0.393851
-0.37216
-0.352235
-0.33401
-0.317421
-0.302414
-0.288934
-0.276936
-0.266377
-0.257219
-0.249431
-0.242982
-0.237852
-0.23402
-0.231473
-0.230202
-34.6656
-34.0217
-33.3495
-32.6519
-31.9341
-31.1978
-30.4477
-29.6859
-28.9141
-28.1369
-27.3563
-26.5732
-25.7897
-25.0083
-24.2312
-23.4598
-22.6954
-21.939
-21.1917
-20.4546
-19.729
-19.0157
-18.3156
-17.6294
-16.9575
-16.3006
-15.6589
-15.0329
-14.4228
-13.8289
-13.2513
-12.69
-12.1453
-11.617
-11.1053
-10.6099
-10.1307
-9.66775
-9.22074
-8.7895
-8.37379
-7.97339
-7.58801
-7.21738
-6.86119
-6.51913
-6.19088
-5.8761
-5.57446
-5.2856
-5.00917
-4.74482
-4.49218
-4.25091
-4.02064
-3.80101
-3.59168
-3.39228
-3.20248
-3.02193
-2.85029
-2.68723
-2.53242
-2.38555
-2.2463
-2.11437
-1.98947
-1.8713
-1.75959
-1.65407
-1.55446
-1.46053
-1.37202
-1.2887
-1.21034
-1.13673
-1.06765
-1.00291
-0.94232
-0.885692
-0.832857
-0.783652
-0.737922
-0.695521
-0.656311
-0.620165
-0.586962
-0.556591
-0.528949
-0.50394
-0.481478
-0.461484
-0.443889
-0.428629
-0.415649
-0.404904
-0.396355
-0.389969
-0.385725
-0.383607
-48.52
-47.6183
-46.6775
-45.7015
-44.6966
-43.6662
-42.6162
-41.5499
-40.47
-39.3821
-38.2892
-37.1931
-36.0966
-35.0031
-33.9154
-32.8358
-31.7657
-30.7069
-29.6609
-28.6294
-27.6138
-26.6155
-25.6356
-24.675
-23.7347
-22.8152
-21.9171
-21.0409
-20.187
-19.3557
-18.5472
-17.7617
-16.9992
-16.2598
-15.5435
-14.8501
-14.1795
-13.5315
-12.9059
-12.3023
-11.7204
-11.16
-10.6206
-10.1018
-9.60329
-9.12453
-8.6651
-8.22452
-7.80232
-7.39801
-7.01111
-6.6411
-6.2875
-5.9498
-5.6275
-5.3201
-5.02711
-4.74802
-4.48237
-4.22966
-3.98942
-3.76119
-3.54451
-3.33894
-3.14405
-2.95939
-2.78457
-2.61918
-2.46282
-2.31512
-2.17571
-2.04424
-1.92036
-1.80374
-1.69406
-1.59103
-1.49435
-1.40373
-1.31892
-1.23966
-1.16571
-1.09684
-1.03284
-0.973488
-0.918609
-0.868017
-0.821544
-0.779035
-0.740345
-0.705341
-0.673903
-0.645919
-0.621291
-0.599932
-0.581765
-0.566726
-0.554759
-0.545822
-0.539882
-0.536917
-62.3628
-61.2037
-59.994
-58.7398
-57.448
-56.1238
-54.7742
-53.4037
-52.0158
-50.6175
-49.2127
-47.8038
-46.3946
-44.9892
-43.5913
-42.2036
-40.8282
-39.4673
-38.1229
-36.797
-35.4917
-34.2086
-32.9492
-31.7146
-30.506
-29.3242
-28.1698
-27.0437
-25.9462
-24.8777
-23.8385
-22.8289
-21.8489
-20.8986
-19.9779
-19.0867
-18.2248
-17.3919
-16.5878
-15.812
-15.0642
-14.3438
-13.6506
-12.9838
-12.343
-11.7277
-11.1372
-10.5709
-10.0282
-9.5086
-9.01131
-8.53575
-8.08127
-7.64723
-7.23298
-6.83788
-6.4613
-6.10259
-5.76115
-5.43634
-5.12756
-4.83422
-4.55573
-4.29151
-4.04101
-3.80368
-3.57899
-3.36641
-3.16544
-2.97561
-2.79643
-2.62744
-2.46822
-2.31833
-2.17736
-2.04494
-1.92067
-1.8042
-1.6952
-1.59333
-1.49828
-1.40976
-1.32749
-1.25122
-1.18068
-1.11565
-1.05592
-1.00129
-0.951559
-0.906569
-0.866161
-0.830194
-0.79854
-0.771087
-0.747738
-0.728408
-0.713028
-0.701541
-0.693906
-0.690095
-76.1901
-74.774
-73.2957
-71.7635
-70.1853
-68.5677
-66.9187
-65.2443
-63.5488
-61.8405
-60.124
-58.4027
-56.6812
-54.9643
-53.2565
-51.561
-49.8807
-48.2179
-46.5754
-44.9556
-43.3609
-41.7933
-40.2547
-38.7464
-37.2698
-35.8259
-34.4157
-33.0398
-31.6989
-30.3935
-29.124
-27.8905
-26.6933
-25.5323
-24.4074
-23.3186
-22.2656
-21.2481
-20.2656
-19.3178
-18.4042
-17.5241
-16.6771
-15.8626
-15.0797
-14.3279
-13.6065
-12.9147
-12.2517
-11.6168
-11.0093
-10.4283
-9.87305
-9.34277
-8.83667
-8.35397
-7.89389
-7.45566
-7.03851
-6.64168
-6.26444
-5.90606
-5.56582
-5.24303
-4.93699
-4.64703
-4.37252
-4.11281
-3.86729
-3.63536
-3.41645
-3.21
-3.01547
-2.83235
-2.66013
-2.49834
-2.34652
-2.20423
-2.07106
-1.9466
-1.83048
-1.72233
-1.62183
-1.52864
-1.44246
-1.36302
-1.29004
-1.22329
-1.16254
-1.10757
-1.05821
-1.01426
-0.975592
-0.942052
-0.913526
-0.889911
-0.87112
-0.857086
-0.847759
-0.843103
-89.9985
-88.3257
-86.5795
-84.7696
-82.9053
-80.9945
-79.0468
-77.0688
-75.0661
-73.0481
-71.0205
-68.9873
-66.9538
-64.9258
-62.9085
-60.9057
-58.9207
-56.9566
-55.0164
-53.1031
-51.2194
-49.3677
-47.5502
-45.7686
-44.0244
-42.3188
-40.653
-39.0278
-37.4439
-35.9019
-34.4023
-32.9453
-31.531
-30.1596
-28.8309
-27.5448
-26.3009
-25.099
-23.9384
-22.8189
-21.7396
-20.7001
-19.6996
-18.7374
-17.8127
-16.9247
-16.0725
-15.2553
-14.4721
-13.7222
-13.0046
-12.3183
-11.6624
-11.036
-10.4382
-9.868
-9.32454
-8.80688
-8.31413
-7.84538
-7.39978
-6.97645
-6.57454
-6.19325
-5.83174
-5.48924
-5.16497
-4.85819
-4.56817
-4.29421
-4.03563
-3.79176
-3.56198
-3.34566
-3.14224
-2.95112
-2.77179
-2.60372
-2.44641
-2.29939
-2.16222
-2.03448
-1.91576
-1.80568
-1.70388
-1.61004
-1.52384
-1.44499
-1.37323
-1.3083
-1.24999
-1.19808
-1.1524
-1.11279
-1.07909
-1.05119
-1.029
-1.01242
-1.0014
-0.995903
-103.785
-101.856
-99.8419
-97.7547
-95.6049
-93.4014
-91.1552
-88.8742
-86.5649
-84.2378
-81.8994
-79.5548
-77.2099
-74.8713
-72.545
-70.2354
-67.9463
-65.6813
-63.4439
-61.2375
-59.0652
-56.93
-54.8341
-52.7795
-50.7681
-48.8013
-46.8803
-45.0061
-43.1796
-41.4014
-39.6721
-37.9919
-36.361
-34.7795
-33.2473
-31.7641
-30.3297
-28.9436
-27.6054
-26.3143
-25.0697
-23.871
-22.7172
-21.6076
-20.5413
-19.5172
-18.5345
-17.5921
-16.689
-15.8242
-14.9966
-14.2052
-13.4488
-12.7265
-12.0371
-11.3796
-10.7529
-10.1559
-9.5877
-9.04715
-8.53329
-8.04511
-7.58164
-7.14194
-6.72505
-6.33009
-5.95615
-5.60237
-5.26793
-4.952
-4.65381
-4.37259
-4.10761
-3.85816
-3.62357
-3.40318
-3.19638
-3.00256
-2.82115
-2.65162
-2.49344
-2.34612
-2.20922
-2.08227
-1.96489
-1.85667
-1.75727
-1.66634
-1.58358
-1.50871
-1.44147
-1.38161
-1.32893
-1.28324
-1.24439
-1.21222
-1.18662
-1.1675
-1.1548
-1.14846
-117.545
-115.36
-113.08
-110.716
-108.281
-105.785
-103.241
-100.658
-98.0423
-95.4066
-92.7582
-90.1027
-87.4469
-84.7984
-82.1636
-79.5477
-76.955
-74.3897
-71.8557
-69.3567
-66.8965
-64.4782
-62.1044
-59.7774
-57.4994
-55.2717
-53.096
-50.9733
-48.9046
-46.8907
-44.9321
-43.0291
-41.182
-39.3908
-37.6554
-35.9756
-34.3511
-32.7812
-31.2655
-29.8032
-28.3937
-27.036
-25.7293
-24.4725
-23.2648
-22.1049
-20.9919
-19.9246
-18.9018
-17.9223
-16.985
-16.0886
-15.232
-14.4139
-13.6331
-12.8884
-12.1786
-11.5025
-10.8589
-10.2467
-9.66469
-9.11179
-8.58687
-8.08886
-7.61671
-7.16937
-6.74585
-6.34518
-5.96639
-5.60858
-5.27084
-4.95234
-4.65222
-4.3697
-4.10401
-3.8544
-3.62017
-3.40066
-3.1952
-3.00319
-2.82403
-2.65719
-2.50213
-2.35836
-2.22541
-2.10284
-1.99026
-1.88728
-1.79355
-1.70875
-1.63258
-1.56479
-1.50513
-1.45338
-1.40938
-1.37294
-1.34395
-1.3223
-1.30791
-1.30073
-131.277
-128.837
-126.29
-123.649
-120.93
-118.143
-115.302
-112.416
-109.496
-106.552
-103.594
-100.628
-97.6624
-94.7045
-91.7619
-88.8404
-85.9448
-83.0798
-80.2497
-77.4589
-74.7113
-72.0105
-69.3594
-66.7606
-64.2164
-61.7285
-59.2986
-56.928
-54.6176
-52.3684
-50.181
-48.0557
-45.9928
-43.9924
-42.0543
-40.1783
-38.3639
-36.6107
-34.9179
-33.2848
-31.7106
-30.1943
-28.7349
-27.3314
-25.9825
-24.6872
-23.4442
-22.2521
-21.1098
-20.0159
-18.9691
-17.9681
-17.0114
-16.0977
-15.2257
-14.394
-13.6013
-12.8462
-12.1274
-11.4437
-10.7937
-10.1762
-9.58998
-9.03379
-8.50648
-8.00689
-7.5339
-7.08641
-6.66338
-6.26376
-5.88658
-5.53086
-5.19569
-4.88016
-4.58343
-4.30467
-4.04308
-3.79792
-3.56846
-3.35401
-3.15393
-2.9676
-2.79442
-2.63386
-2.48537
-2.34849
-2.22276
-2.10775
-2.00307
-1.90836
-1.8233
-1.74759
-1.68096
-1.62317
-1.57402
-1.53333
-1.50095
-1.47677
-1.4607
-1.45268
-144.976
-142.281
-139.468
-136.553
-133.549
-130.472
-127.334
-124.147
-120.922
-117.671
-114.404
-111.129
-107.854
-104.587
-101.338
-98.1111
-94.9134
-91.7494
-88.624
-85.542
-82.5077
-79.525
-76.5972
-73.7273
-70.9176
-68.1701
-65.4866
-62.8686
-60.3172
-57.8332
-55.4175
-53.0705
-50.7923
-48.5831
-46.4428
-44.371
-42.3673
-40.4311
-38.5617
-36.7582
-35.0197
-33.3452
-31.7335
-30.1835
-28.6939
-27.2634
-25.8906
-24.5742
-23.3127
-22.1047
-20.9486
-19.8431
-18.7866
-17.7775
-16.8145
-15.896
-15.0206
-14.1867
-13.393
-12.6379
-11.9201
-11.2381
-10.5907
-9.9765
-9.39416
-8.84243
-8.32008
-7.8259
-7.35872
-6.9174
-6.50086
-6.10802
-5.73787
-5.38942
-5.06173
-4.75387
-4.46499
-4.19424
-3.94084
-3.70402
-3.48306
-3.27728
-3.08603
-2.90871
-2.74473
-2.59357
-2.45471
-2.3277
-2.21209
-2.10751
-2.01357
-1.92996
-1.85637
-1.79255
-1.73827
-1.69333
-1.65758
-1.63088
-1.61313
-1.60427
-158.639
-155.691
-152.612
-149.422
-146.136
-142.768
-139.335
-135.848
-132.318
-128.761
-125.187
-121.603
-118.019
-114.444
-110.888
-107.358
-103.859
-100.396
-96.9764
-93.6039
-90.2837
-87.0199
-83.8162
-80.6758
-77.6013
-74.5949
-71.6585
-68.7937
-66.0018
-63.2838
-60.6404
-58.0721
-55.5793
-53.1619
-50.8198
-48.5528
-46.3602
-44.2415
-42.1959
-40.2225
-38.3201
-36.4878
-34.7242
-33.0281
-31.3982
-29.8328
-28.3307
-26.8902
-25.5098
-24.1879
-22.9229
-21.7132
-20.5571
-19.453
-18.3992
-17.3942
-16.4362
-15.5238
-14.6552
-13.8289
-13.0435
-12.2973
-11.5888
-10.9167
-10.2795
-9.67579
-9.10421
-8.56346
-8.05225
-7.56934
-7.11354
-6.68368
-6.27864
-5.89735
-5.53877
-5.2019
-4.88579
-4.58953
-4.31224
-4.0531
-3.81132
-3.58615
-3.37688
-3.18284
-3.00341
-2.838
-2.68606
-2.54707
-2.42057
-2.30613
-2.20334
-2.11185
-2.03132
-1.96149
-1.9021
-1.85292
-1.8138
-1.78458
-1.76516
-1.75547
-172.263
-169.061
-165.719
-162.255
-158.686
-155.029
-151.301
-147.515
-143.682
-139.819
-135.938
-132.046
-128.154
-124.273
-120.411
-116.578
-112.778
-109.019
-105.305
-101.643
-98.0374
-94.4933
-91.0145
-87.6044
-84.2658
-81.0012
-77.8127
-74.7018
-71.6701
-68.7187
-65.8483
-63.0594
-60.3525
-57.7275
-55.1843
-52.7226
-50.3417
-48.0411
-45.8198
-43.6768
-41.6111
-39.6214
-37.7064
-35.8647
-34.0947
-32.3949
-30.7638
-29.1996
-27.7006
-26.2652
-24.8916
-23.578
-22.3226
-21.1237
-19.9794
-18.888
-17.8478
-16.857
-15.9138
-15.0166
-14.1637
-13.3534
-12.5841
-11.8543
-11.1623
-10.5068
-9.8861
-9.2989
-8.74379
-8.21941
-7.72446
-7.25768
-6.81786
-6.40383
-6.01445
-5.64865
-5.30539
-4.98369
-4.68259
-4.40119
-4.13864
-3.89413
-3.66689
-3.45619
-3.26135
-3.08173
-2.91674
-2.76582
-2.62846
-2.50418
-2.39257
-2.29321
-2.20578
-2.12995
-2.06545
-2.01206
-1.96957
-1.93784
-1.91675
-1.90623
-185.845
-182.391
-178.785
-175.047
-171.198
-167.252
-163.23
-159.145
-155.01
-150.843
-146.655
-142.457
-138.258
-134.071
-129.905
-125.769
-121.67
-117.614
-113.607
-109.657
-105.767
-101.943
-98.1904
-94.5114
-90.9096
-87.3876
-83.9476
-80.5915
-77.3208
-74.1367
-71.0399
-68.0312
-65.1109
-62.2789
-59.5352
-56.8794
-54.3108
-51.8288
-49.4323
-47.1204
-44.8919
-42.7453
-40.6793
-38.6923
-36.7828
-34.949
-33.1893
-31.5018
-29.8846
-28.3361
-26.8541
-25.4369
-24.0826
-22.7891
-21.5546
-20.3772
-19.255
-18.186
-17.1685
-16.2005
-15.2804
-14.4062
-13.5763
-12.7889
-12.0424
-11.3351
-10.6655
-10.032
-9.43317
-8.86745
-8.33348
-7.8299
-7.3554
-6.90872
-6.48864
-6.094
-5.72368
-5.37661
-5.05177
-4.74819
-4.46494
-4.20116
-3.956
-3.72868
-3.51848
-3.3247
-3.1467
-2.98388
-2.83569
-2.70162
-2.5812
-2.47402
-2.37969
-2.29788
-2.2283
-2.17069
-2.12486
-2.09063
-2.06788
-2.05652
-199.381
-195.675
-191.806
-187.797
-183.667
-179.434
-175.118
-170.736
-166.3
-161.83
-157.337
-152.833
-148.328
-143.836
-139.367
-134.929
-130.531
-126.18
-121.882
-117.643
-113.47
-109.368
-105.342
-101.395
-97.5309
-93.7524
-90.0619
-86.4613
-82.9524
-79.5363
-76.214
-72.9862
-69.8531
-66.8149
-63.8714
-61.0221
-58.2665
-55.6037
-53.0327
-50.5524
-48.1615
-45.8586
-43.6421
-41.5104
-39.4618
-37.4945
-35.6066
-33.7962
-32.0613
-30.3999
-28.81
-27.2896
-25.8366
-24.4489
-23.1245
-21.8614
-20.6574
-19.5106
-18.4189
-17.3805
-16.3933
-15.4555
-14.5651
-13.7204
-12.9195
-12.1607
-11.4424
-10.7627
-10.1202
-9.5133
-8.94044
-8.40018
-7.89112
-7.41191
-6.96124
-6.53785
-6.14056
-5.76821
-5.41971
-5.09402
-4.79014
-4.50714
-4.24413
-4.00026
-3.77475
-3.56685
-3.37589
-3.20121
-3.04223
-2.89839
-2.7692
-2.65421
-2.55301
-2.46524
-2.39059
-2.32879
-2.27962
-2.2429
-2.21849
-2.20631
-212.868
-208.911
-204.781
-200.5
-196.09
-191.571
-186.964
-182.285
-177.549
-172.776
-167.98
-163.171
-158.361
-153.565
-148.794
-144.056
-139.361
-134.715
-130.126
-125.601
-121.146
-116.766
-112.468
-108.254
-104.128
-100.094
-96.1539
-92.3098
-88.5635
-84.9164
-81.3694
-77.9232
-74.5782
-71.3345
-68.1918
-65.1498
-62.2078
-59.3648
-56.62
-53.9719
-51.4193
-48.9606
-46.5942
-44.3183
-42.1311
-40.0307
-38.0151
-36.0822
-34.23
-32.4562
-30.7588
-29.1355
-27.5842
-26.1027
-24.6887
-23.3401
-22.0547
-20.8303
-19.6648
-18.5561
-17.5022
-16.5009
-15.5503
-14.6485
-13.7934
-12.9833
-12.2163
-11.4907
-10.8048
-10.1568
-9.54519
-8.96839
-8.4249
-7.91327
-7.43211
-6.98009
-6.55593
-6.15839
-5.78632
-5.43859
-5.11416
-4.81202
-4.53121
-4.27085
-4.03008
-3.80812
-3.60424
-3.41775
-3.24801
-3.09444
-2.95652
-2.83375
-2.7257
-2.632
-2.5523
-2.48632
-2.43382
-2.39461
-2.36855
-2.35555
-226.302
-222.095
-217.705
-213.153
-208.466
-203.661
-198.763
-193.789
-188.755
-183.68
-178.581
-173.468
-168.356
-163.257
-158.184
-153.148
-148.156
-143.217
-138.339
-133.528
-128.791
-124.136
-119.566
-115.086
-110.7
-106.411
-102.222
-98.1355
-94.1528
-90.2755
-86.5046
-82.8409
-79.2848
-75.8364
-72.4954
-69.2614
-66.1337
-63.1114
-60.1933
-57.3781
-54.6644
-52.0505
-49.5347
-47.1152
-44.79
-42.5571
-40.4142
-38.3594
-36.3902
-34.5045
-32.7
-30.9743
-29.3251
-27.75
-26.2468
-24.8131
-23.4466
-22.1449
-20.9059
-19.7272
-18.6067
-17.5423
-16.5317
-15.5729
-14.6639
-13.8027
-12.9873
-12.2159
-11.4867
-10.7978
-10.1476
-9.53439
-8.9566
-8.41268
-7.90116
-7.42061
-6.96967
-6.54705
-6.15149
-5.78183
-5.43692
-5.1157
-4.81718
-4.54038
-4.28442
-4.04846
-3.83171
-3.63344
-3.45299
-3.28974
-3.14311
-3.01259
-2.89772
-2.7981
-2.71338
-2.64323
-2.58742
-2.54574
-2.51803
-2.50421
-239.68
-235.225
-230.575
-225.754
-220.789
-215.701
-210.514
-205.246
-199.913
-194.539
-189.138
-183.723
-178.308
-172.908
-167.536
-162.201
-156.915
-151.684
-146.517
-141.421
-136.405
-131.474
-126.634
-121.889
-117.244
-112.702
-108.265
-103.937
-99.7188
-95.6123
-91.6185
-87.7382
-83.9719
-80.3196
-76.7811
-73.3559
-70.0433
-66.8423
-63.7517
-60.7701
-57.896
-55.1276
-52.4631
-49.9005
-47.4379
-45.0729
-42.8034
-40.6271
-38.5415
-36.5443
-34.6331
-32.8054
-31.0587
-29.3905
-27.7985
-26.28
-24.8327
-23.4541
-22.1418
-20.8934
-19.7067
-18.5793
-17.509
-16.4935
-15.5308
-14.6187
-13.7551
-12.9381
-12.1657
-11.4361
-10.7475
-10.098
-9.48608
-8.91001
-8.36825
-7.85929
-7.3817
-6.93409
-6.51515
-6.12363
-5.75833
-5.41813
-5.10195
-4.80879
-4.5377
-4.28779
-4.05823
-3.84824
-3.65712
-3.48422
-3.32892
-3.19068
-3.06903
-2.96352
-2.87378
-2.79949
-2.74038
-2.69624
-2.66689
-2.65225
-252.999
-248.297
-243.388
-238.3
-233.059
-227.688
-222.212
-216.651
-211.022
-205.349
-199.649
-193.933
-188.217
-182.517
-176.846
-171.215
-165.634
-160.113
-154.659
-149.28
-143.985
-138.78
-133.671
-128.663
-123.759
-118.965
-114.282
-109.713
-105.26
-100.926
-96.7098
-92.6139
-88.6383
-84.783
-81.0479
-77.4324
-73.9357
-70.5568
-67.2944
-64.1471
-61.1133
-58.191
-55.3785
-52.6735
-50.074
-47.5776
-45.182
-42.8847
-40.6833
-38.5751
-36.5577
-34.6284
-32.7846
-31.0238
-29.3432
-27.7404
-26.2126
-24.7574
-23.3722
-22.0545
-20.8018
-19.6118
-18.482
-17.4101
-16.3939
-15.431
-14.5195
-13.6571
-12.8418
-12.0716
-11.3447
-10.6592
-10.0132
-9.40515
-8.83328
-8.29604
-7.7919
-7.31942
-6.8772
-6.46392
-6.07833
-5.71922
-5.38547
-5.07602
-4.78986
-4.52606
-4.28375
-4.06209
-3.86035
-3.67784
-3.51391
-3.36799
-3.23958
-3.12821
-3.03348
-2.95506
-2.89267
-2.84607
-2.8151
-2.79964
-266.256
-261.307
-256.141
-250.786
-245.271
-239.618
-233.855
-228.003
-222.08
-216.109
-210.11
-204.095
-198.079
-192.08
-186.112
-180.186
-174.313
-168.502
-162.763
-157.102
-151.53
-146.052
-140.675
-135.404
-130.244
-125.198
-120.27
-115.462
-110.776
-106.214
-101.777
-97.4667
-93.2828
-89.2255
-85.2947
-81.4897
-77.8098
-74.2538
-70.8205
-67.5083
-64.3155
-61.2401
-58.2802
-55.4335
-52.6978
-50.0706
-47.5495
-45.1318
-42.815
-40.5964
-38.4732
-36.4429
-34.5025
-32.6494
-30.8808
-29.1939
-27.5861
-26.0547
-24.5969
-23.2101
-21.8918
-20.6394
-19.4504
-18.3224
-17.2529
-16.2396
-15.2803
-14.3727
-13.5147
-12.7042
-11.9392
-11.2177
-10.5379
-9.89796
-9.29613
-8.73074
-8.20019
-7.70295
-7.23756
-6.80262
-6.39682
-6.0189
-5.66766
-5.342
-5.04085
-4.76322
-4.50821
-4.27494
-4.06263
-3.87055
-3.69803
-3.54447
-3.40932
-3.29212
-3.19243
-3.1099
-3.04424
-2.9952
-2.9626
-2.94633
-279.447
-274.253
-268.831
-263.211
-257.422
-251.49
-245.441
-239.299
-233.082
-226.816
-220.519
-214.206
-207.893
-201.597
-195.333
-189.113
-182.949
-176.85
-170.826
-164.886
-159.037
-153.288
-147.645
-142.113
-136.697
-131.401
-126.228
-121.182
-116.264
-111.476
-106.82
-102.295
-97.9043
-93.646
-89.5204
-85.5269
-81.6647
-77.9326
-74.3292
-70.8529
-67.5018
-64.2741
-61.1676
-58.1799
-55.3086
-52.5512
-49.9052
-47.3678
-44.9362
-42.6076
-40.3793
-38.2483
-36.2118
-34.2669
-32.4107
-30.6403
-28.9528
-27.3455
-25.8155
-24.36
-22.9764
-21.6619
-20.414
-19.2301
-18.1076
-17.0441
-16.0373
-15.0847
-14.1842
-13.3336
-12.5307
-11.7735
-11.06
-10.3883
-9.75668
-9.16328
-8.60645
-8.08457
-7.59612
-7.13964
-6.71374
-6.31709
-5.94845
-5.60665
-5.29058
-4.99921
-4.73156
-4.48673
-4.2639
-4.06231
-3.88124
-3.72007
-3.57823
-3.45522
-3.35059
-3.26398
-3.19506
-3.14359
-3.10938
-3.0923
-292.569
-287.131
-281.454
-275.571
-269.51
-263.299
-256.967
-250.536
-244.027
-237.467
-230.874
-224.265
-217.655
-211.063
-204.505
-197.994
-191.54
-185.155
-178.848
-172.628
-166.505
-160.486
-154.578
-148.786
-143.116
-137.571
-132.156
-126.872
-121.723
-116.711
-111.836
-107.099
-102.502
-98.0433
-93.724
-89.543
-85.4994
-81.5921
-77.8194
-74.1799
-70.6715
-67.2923
-64.0398
-60.9118
-57.9057
-55.0189
-52.2486
-49.592
-47.0462
-44.6084
-42.2754
-40.0444
-37.9123
-35.876
-33.9326
-32.079
-30.3123
-28.6295
-27.0277
-25.5039
-24.0553
-22.6791
-21.3726
-20.1331
-18.9579
-17.8445
-16.7904
-15.7931
-14.8503
-13.9597
-13.1191
-12.3263
-11.5793
-10.8761
-10.2148
-9.59356
-9.01058
-8.4642
-7.95282
-7.4749
-7.029
-6.61372
-6.22778
-5.86993
-5.53902
-5.23396
-4.95374
-4.69742
-4.46413
-4.25306
-4.06349
-3.89476
-3.74626
-3.61747
-3.50793
-3.41725
-3.34509
-3.2912
-3.25539
-3.23751
-305.619
-299.938
-294.009
-287.862
-281.531
-275.043
-268.428
-261.711
-254.912
-248.059
-241.172
-234.268
-227.363
-220.477
-213.627
-206.825
-200.084
-193.414
-186.825
-180.328
-173.932
-167.644
-161.473
-155.423
-149.499
-143.707
-138.05
-132.531
-127.153
-121.916
-116.824
-111.876
-107.074
-102.417
-97.9045
-93.537
-89.3131
-85.2314
-81.2905
-77.4887
-73.8238
-70.2938
-66.8963
-63.6288
-60.4886
-57.473
-54.5791
-51.804
-49.1447
-46.5981
-44.1611
-41.8305
-39.6033
-37.4762
-35.4461
-33.5099
-31.6644
-29.9065
-28.2332
-26.6415
-25.1283
-23.6907
-22.3259
-21.0311
-19.8035
-18.6404
-17.5393
-16.4975
-15.5127
-14.5823
-13.7042
-12.8761
-12.0958
-11.3613
-10.6705
-10.0215
-9.41249
-8.84174
-8.30755
-7.80832
-7.34252
-6.90873
-6.50556
-6.13175
-5.78608
-5.46742
-5.1747
-4.90694
-4.66325
-4.44277
-4.24475
-4.06848
-3.91336
-3.77882
-3.6644
-3.56967
-3.4943
-3.43801
-3.40059
-3.38192
-318.593
-312.672
-306.49
-300.083
-293.483
-286.72
-279.824
-272.822
-265.734
-258.59
-251.411
-244.213
-237.016
-229.837
-222.696
-215.605
-208.578
-201.625
-194.757
-187.984
-181.316
-174.761
-168.328
-162.021
-155.846
-149.808
-143.911
-138.158
-132.551
-127.092
-121.783
-116.626
-111.619
-106.764
-102.061
-97.508
-93.1047
-88.8498
-84.7416
-80.7783
-76.9579
-73.278
-69.7363
-66.33
-63.0565
-59.9129
-56.8962
-54.0033
-51.2311
-48.5763
-46.0359
-43.6064
-41.2846
-39.0672
-36.9509
-34.9325
-33.0087
-31.1762
-29.4318
-27.7725
-26.195
-24.6965
-23.2737
-21.9239
-20.6442
-19.4318
-18.2839
-17.1979
-16.1712
-15.2014
-14.286
-13.4228
-12.6093
-11.8436
-11.1235
-10.4469
-9.81208
-9.2171
-8.66023
-8.1398
-7.65424
-7.20202
-6.78175
-6.39207
-6.03172
-5.69952
-5.39438
-5.11526
-4.86122
-4.63138
-4.42495
-4.2412
-4.07949
-3.93925
-3.81997
-3.72122
-3.64264
-3.58396
-3.54496
-3.52549
-331.489
-325.328
-318.896
-312.23
-305.363
-298.326
-291.151
-283.865
-276.49
-269.057
-261.587
-254.098
-246.609
-239.141
-231.71
-224.333
-217.021
-209.786
-202.64
-195.593
-188.655
-181.835
-175.141
-168.579
-162.154
-155.872
-149.736
-143.75
-137.916
-132.237
-126.713
-121.346
-116.137
-111.086
-106.192
-101.455
-96.8734
-92.4462
-88.1717
-84.048
-80.0729
-76.2441
-72.559
-69.0149
-65.6089
-62.338
-59.1992
-56.1892
-53.3048
-50.5426
-47.8993
-45.3715
-42.9557
-40.6485
-38.4466
-36.3465
-34.3448
-32.4381
-30.6231
-28.8966
-27.2554
-25.6961
-24.2158
-22.8114
-21.4799
-20.2183
-19.024
-17.894
-16.8258
-15.8167
-14.8643
-13.9661
-13.1197
-12.323
-11.5737
-10.8698
-10.2093
-9.59019
-9.01078
-8.46929
-7.96406
-7.49354
-7.05626
-6.6508
-6.27587
-5.93023
-5.61273
-5.32231
-5.05799
-4.81885
-4.60406
-4.41288
-4.24462
-4.0987
-3.97459
-3.87184
-3.79009
-3.72903
-3.68845
-3.6682
-344.303
-337.904
-331.223
-324.299
-317.167
-309.858
-302.406
-294.838
-287.178
-279.458
-271.699
-263.921
-256.142
-248.385
-240.667
-233.005
-225.41
-217.895
-210.473
-203.154
-195.948
-188.864
-181.911
-175.096
-168.423
-161.898
-155.525
-149.307
-143.247
-137.348
-131.611
-126.037
-120.627
-115.38
-110.297
-105.377
-100.618
-96.0198
-91.5801
-87.297
-83.1682
-79.1914
-75.3639
-71.6827
-68.1451
-64.7478
-61.4876
-58.3612
-55.3653
-52.4964
-49.7509
-47.1253
-44.6162
-42.2199
-39.9328
-37.7515
-35.6724
-33.692
-31.8069
-30.0137
-28.3089
-26.6894
-25.1519
-23.6932
-22.3102
-20.9999
-19.7594
-18.5857
-17.4762
-16.4281
-15.4389
-14.5059
-13.6269
-12.7993
-12.0211
-11.29
-10.6039
-9.96091
-9.3591
-8.79668
-8.27192
-7.78322
-7.32902
-6.9079
-6.51847
-6.15947
-5.8297
-5.52806
-5.25351
-5.00513
-4.78204
-4.58346
-4.4087
-4.25714
-4.12823
-4.02152
-3.9366
-3.87319
-3.83104
-3.81
-357.032
-350.396
-343.469
-336.289
-328.893
-321.313
-313.586
-305.738
-297.795
-289.79
-281.744
-273.678
-265.612
-257.568
-249.565
-241.619
-233.743
-225.951
-218.254
-210.665
-203.192
-195.847
-188.637
-181.569
-174.649
-167.883
-161.274
-154.827
-148.543
-142.426
-136.477
-130.697
-125.086
-119.646
-114.375
-109.273
-104.338
-99.5697
-94.9659
-90.5244
-86.243
-82.1192
-78.1501
-74.3329
-70.6644
-67.1415
-63.7608
-60.5189
-57.4122
-54.4372
-51.5902
-48.8676
-46.2657
-43.7808
-41.4092
-39.1472
-36.9912
-34.9376
-32.9828
-31.1233
-29.3555
-27.6762
-26.0818
-24.5691
-23.135
-21.7763
-20.4899
-19.2729
-18.1223
-17.0355
-16.0097
-15.0422
-14.1307
-13.2725
-12.4655
-11.7074
-10.9959
-10.3292
-9.70511
-9.1219
-8.57774
-8.07097
-7.59999
-7.16329
-6.75946
-6.38719
-6.04523
-5.73243
-5.44774
-5.19017
-4.95883
-4.75292
-4.5717
-4.41453
-4.28086
-4.17019
-4.08214
-4.01638
-3.97267
-3.95086
-369.674
-362.802
-355.63
-348.195
-340.538
-332.69
-324.688
-316.563
-308.339
-300.05
-291.72
-283.368
-275.016
-266.688
-258.401
-250.174
-242.019
-233.951
-225.982
-218.123
-210.386
-202.781
-195.316
-187.998
-180.833
-173.827
-166.984
-160.309
-153.803
-147.469
-141.309
-135.324
-129.515
-123.882
-118.424
-113.141
-108.032
-103.095
-98.3282
-93.7295
-89.2965
-85.0267
-80.9171
-76.9647
-73.1664
-69.5187
-66.0183
-62.6616
-59.4449
-56.3646
-53.4168
-50.5978
-47.9037
-45.3308
-42.8753
-40.5332
-38.3009
-36.1746
-34.1506
-32.2252
-30.3949
-28.656
-27.0052
-25.439
-23.9541
-22.5473
-21.2153
-19.9552
-18.764
-17.6387
-16.5765
-15.5748
-14.631
-13.7425
-12.9069
-12.1219
-11.3853
-10.6949
-10.0487
-9.44487
-8.88145
-8.35673
-7.86907
-7.41691
-6.99879
-6.61334
-6.25927
-5.9354
-5.64062
-5.37393
-5.13441
-4.9212
-4.73356
-4.57083
-4.43243
-4.31785
-4.22667
-4.15859
-4.11333
-4.09074
-382.223
-375.119
-367.703
-360.016
-352.098
-343.984
-335.711
-327.31
-318.807
-310.236
-301.623
-292.988
-284.353
-275.741
-267.173
-258.667
-250.236
-241.894
-233.654
-225.528
-217.529
-209.665
-201.946
-194.38
-186.972
-179.728
-172.653
-165.751
-159.024
-152.475
-146.106
-139.918
-133.912
-128.088
-122.445
-116.982
-111.7
-106.595
-101.666
-96.9114
-92.328
-87.9132
-83.6641
-79.5775
-75.6503
-71.8788
-68.2596
-64.7889
-61.463
-58.2781
-55.2302
-52.3155
-49.53
-46.8698
-44.3308
-41.9093
-39.6012
-37.4027
-35.31
-33.3192
-31.4268
-29.6289
-27.922
-26.3026
-24.7673
-23.3127
-21.9356
-20.6327
-19.401
-18.2375
-17.1393
-16.1036
-15.1277
-14.209
-13.345
-12.5334
-11.7718
-11.058
-10.3899
-9.76551
-9.18296
-8.64043
-8.13621
-7.66871
-7.23639
-6.83785
-6.47176
-6.13689
-5.83211
-5.55637
-5.30871
-5.08827
-4.89426
-4.72601
-4.5829
-4.46443
-4.37016
-4.29976
-4.25297
-4.22962
-394.679
-387.343
-379.685
-371.748
-363.572
-355.194
-346.651
-337.976
-329.196
-320.346
-311.452
-302.535
-293.619
-284.727
-275.88
-267.096
-258.39
-249.776
-241.268
-232.878
-224.617
-216.498
-208.527
-200.714
-193.065
-185.585
-178.28
-171.152
-164.206
-157.444
-150.867
-144.478
-138.276
-132.262
-126.435
-120.795
-115.34
-110.069
-104.979
-100.069
-95.3367
-90.778
-86.3904
-82.1707
-78.1155
-74.2211
-70.4839
-66.9002
-63.4659
-60.1772
-57.03
-54.0203
-51.144
-48.3971
-45.7754
-43.275
-40.8917
-38.6215
-36.4606
-34.405
-32.4509
-30.5944
-28.8319
-27.1598
-25.5744
-24.0724
-22.6504
-21.305
-20.0332
-18.8318
-17.6978
-16.6283
-15.6206
-14.672
-13.7799
-12.9418
-12.1554
-11.4183
-10.7285
-10.0837
-9.4822
-8.922
-8.40135
-7.91861
-7.4722
-7.06068
-6.68266
-6.33688
-6.02217
-5.73744
-5.48171
-5.25408
-5.05375
-4.88002
-4.73225
-4.60992
-4.51258
-4.43988
-4.39157
-4.36745
-407.037
-399.472
-391.574
-383.388
-374.956
-366.315
-357.505
-348.559
-339.503
-330.376
-321.204
-312.008
-302.813
-293.642
-284.518
-275.459
-266.481
-257.597
-248.822
-240.169
-231.651
-223.277
-215.057
-206.999
-199.11
-191.396
-183.862
-176.511
-169.348
-162.374
-155.591
-149.002
-142.605
-136.403
-130.394
-124.577
-118.951
-113.515
-108.266
-103.203
-98.3218
-93.6204
-89.0955
-84.7436
-80.5614
-76.5451
-72.6909
-68.9949
-65.4531
-62.0614
-58.8157
-55.7118
-52.7454
-49.9125
-47.2088
-44.63
-42.1721
-39.8309
-37.6023
-35.4823
-33.467
-31.5524
-29.7347
-28.0102
-26.3752
-24.8262
-23.3596
-21.9721
-20.6605
-19.4214
-18.2519
-17.149
-16.1098
-15.1314
-14.2114
-13.3471
-12.536
-11.7758
-11.0644
-10.3995
-9.77911
-9.20136
-8.66441
-8.16656
-7.70617
-7.28176
-6.89191
-6.5353
-6.21073
-5.91709
-5.65336
-5.4186
-5.212
-5.03282
-4.88043
-4.75426
-4.65388
-4.57891
-4.52908
-4.50421
-419.295
-411.501
-403.366
-394.934
-386.248
-377.347
-368.271
-359.055
-349.727
-340.326
-330.877
-321.404
-311.932
-302.485
-293.086
-283.754
-274.506
-265.354
-256.315
-247.402
-238.627
-230
-221.533
-213.233
-205.106
-197.16
-189.399
-181.827
-174.448
-167.264
-160.277
-153.489
-146.9
-140.511
-134.32
-128.328
-122.533
-116.933
-111.527
-106.311
-101.283
-96.4398
-91.7785
-87.2956
-82.9875
-78.8502
-74.88
-71.0727
-67.4242
-63.9304
-60.5869
-57.3895
-54.3338
-51.4156
-48.6304
-45.974
-43.4421
-41.0303
-38.7347
-36.5508
-34.4748
-32.5025
-30.6301
-28.8537
-27.1695
-25.5738
-24.0631
-22.6338
-21.2826
-20.0063
-18.8016
-17.6654
-16.5949
-15.5871
-14.6394
-13.749
-12.9135
-12.1305
-11.3976
-10.7127
-10.0736
-9.47846
-8.92534
-8.41249
-7.93824
-7.50105
-7.09945
-6.73211
-6.39777
-6.09528
-5.8236
-5.58178
-5.36896
-5.18438
-5.0274
-4.89744
-4.79403
-4.7168
-4.66547
-4.63985
-431.449
-423.43
-415.059
-406.382
-397.444
-388.285
-378.947
-369.463
-359.865
-350.191
-340.468
-330.721
-320.974
-311.253
-301.582
-291.98
-282.463
-273.046
-263.745
-254.574
-245.544
-236.668
-227.955
-219.414
-211.052
-202.875
-194.889
-187.098
-179.504
-172.112
-164.923
-157.938
-151.158
-144.584
-138.214
-132.048
-126.085
-120.323
-114.76
-109.392
-104.219
-99.2353
-94.4389
-89.8261
-85.3931
-81.1359
-77.0505
-73.1329
-69.3786
-65.7835
-62.3432
-59.0531
-55.9088
-52.906
-50.0401
-47.3067
-44.7013