/*--------------------------------*- C++ -*----------------------------------*\
| =========                 |                                                 |
| \\      /  F ield         | OpenFOAM: The Open Source CFD Toolbox           |
|  \\    /   O peration     | Version:  2406                                  |
|   \\  /    A nd           | Website:  www.openfoam.com                      |
|    \\/     M anipulation  |                                                 |
\*---------------------------------------------------------------------------*/
FoamFile
{
    version     2.0;
    format      ascii;
    arch        "LSB;label=32;scalar=64";
    class       volVectorField;
    location    "105";
    object      flux;
}
// * * * * * * * * * * * * * * * * * * * * * * * * * * * * * * * * * * * * * //

dimensions      [0 1 -1 1 0 0 0];

internalField   nonuniform List<vector> 
20000
(
(0.000243311 0.048957 0)
(0.000163168 0.0493605 0)
(8.88515e-05 0.0496096 0)
(2.00996e-05 0.0497159 0)
(-4.32637e-05 0.0496901 0)
(-0.000101565 0.0495428 0)
(-0.000155201 0.0492837 0)
(-0.000204032 0.0489222 0)
(-0.000248323 0.0484678 0)
(-0.000288628 0.0479288 0)
(-0.000325046 0.0473132 0)
(-0.000357629 0.0466287 0)
(-0.000386596 0.0458829 0)
(-0.000412229 0.0450825 0)
(-0.000434755 0.044234 0)
(-0.000454348 0.0433435 0)
(-0.000471162 0.0424167 0)
(-0.000485356 0.041459 0)
(-0.000497099 0.0404754 0)
(-0.00050656 0.0394708 0)
(-0.000513904 0.0384493 0)
(-0.000519287 0.0374153 0)
(-0.000522854 0.0363723 0)
(-0.000524743 0.035324 0)
(-0.000525083 0.0342735 0)
(-0.000524 0.0332238 0)
(-0.000521611 0.0321776 0)
(-0.000518029 0.0311375 0)
(-0.000513362 0.0301056 0)
(-0.000507713 0.0290841 0)
(-0.000501178 0.0280749 0)
(-0.000493849 0.0270795 0)
(-0.000485813 0.0260996 0)
(-0.000477151 0.0251364 0)
(-0.00046794 0.0241911 0)
(-0.000458252 0.0232648 0)
(-0.000448154 0.0223582 0)
(-0.00043771 0.0214723 0)
(-0.000426978 0.0206075 0)
(-0.000416013 0.0197645 0)
(-0.000404866 0.0189436 0)
(-0.000393584 0.0181451 0)
(-0.000382212 0.0173693 0)
(-0.000370789 0.0166163 0)
(-0.000359353 0.0158862 0)
(-0.000347937 0.015179 0)
(-0.000336573 0.0144946 0)
(-0.00032529 0.0138328 0)
(-0.000314112 0.0131935 0)
(-0.000303063 0.0125764 0)
(-0.000292165 0.0119813 0)
(-0.000281435 0.0114079 0)
(-0.000270892 0.0108557 0)
(-0.000260548 0.0103243 0)
(-0.000250419 0.00981352 0)
(-0.000240513 0.00932274 0)
(-0.000230843 0.00885153 0)
(-0.000221414 0.00839942 0)
(-0.000212235 0.00796593 0)
(-0.000203311 0.00755053 0)
(-0.000194647 0.00715273 0)
(-0.000186244 0.006772 0)
(-0.000178107 0.0064078 0)
(-0.000170237 0.00605961 0)
(-0.000162633 0.00572689 0)
(-0.000155297 0.00540912 0)
(-0.000148226 0.00510575 0)
(-0.000141421 0.00481625 0)
(-0.000134878 0.0045401 0)
(-0.000128595 0.00427677 0)
(-0.000122571 0.00402575 0)
(-0.000116801 0.00378652 0)
(-0.000111281 0.00355858 0)
(-0.00010601 0.00334142 0)
(-0.000100981 0.00313456 0)
(-9.61921e-05 0.00293752 0)
(-9.16382e-05 0.00274982 0)
(-8.7315e-05 0.00257099 0)
(-8.32183e-05 0.00240058 0)
(-7.93437e-05 0.00223814 0)
(-7.56868e-05 0.00208323 0)
(-7.22434e-05 0.00193541 0)
(-6.90092e-05 0.00179427 0)
(-6.598e-05 0.00165939 0)
(-6.31519e-05 0.00153037 0)
(-6.05209e-05 0.0014068 0)
(-5.80833e-05 0.0012883 0)
(-5.58356e-05 0.00117448 0)
(-5.37743e-05 0.00106497 0)
(-5.18964e-05 0.000959395 0)
(-5.01989e-05 0.000857396 0)
(-4.86791e-05 0.000758612 0)
(-4.73345e-05 0.000662691 0)
(-4.61629e-05 0.000569286 0)
(-4.51624e-05 0.000478051 0)
(-4.43312e-05 0.000388647 0)
(-4.3668e-05 0.000300737 0)
(-4.31716e-05 0.000213986 0)
(-4.28411e-05 0.000128061 0)
(-4.2676e-05 4.26321e-05 0)
(0.000729881 0.0489449 0)
(0.000489425 0.0493484 0)
(0.000266529 0.0495974 0)
(6.03733e-05 0.0497037 0)
(-0.000129902 0.0496779 0)
(-0.000304802 0.0495304 0)
(-0.000465382 0.0492715 0)
(-0.000611915 0.0489102 0)
(-0.000745022 0.0484559 0)
(-0.000865914 0.0479169 0)
(-0.000975034 0.0473015 0)
(-0.00107273 0.0466172 0)
(-0.00115966 0.0458716 0)
(-0.0012366 0.0450714 0)
(-0.00130418 0.0442231 0)
(-0.00136295 0.0433328 0)
(-0.00141337 0.0424063 0)
(-0.00145594 0.0414488 0)
(-0.00149116 0.0404654 0)
(-0.00151955 0.039461 0)
(-0.00154158 0.0384399 0)
(-0.00155773 0.037406 0)
(-0.00156843 0.0363633 0)
(-0.0015741 0.0353153 0)
(-0.00157512 0.034265 0)
(-0.00157187 0.0332156 0)
(-0.0015647 0.0321697 0)
(-0.00155396 0.0311298 0)
(-0.00153996 0.0300982 0)
(-0.00152301 0.029077 0)
(-0.00150341 0.028068 0)
(-0.00148143 0.0270729 0)
(-0.00145732 0.0260932 0)
(-0.00143134 0.0251302 0)
(-0.0014037 0.0241852 0)
(-0.00137464 0.023259 0)
(-0.00134435 0.0223527 0)
(-0.00131302 0.021467 0)
(-0.00128083 0.0206024 0)
(-0.00124794 0.0197596 0)
(-0.0012145 0.0189389 0)
(-0.00118066 0.0181406 0)
(-0.00114654 0.017365 0)
(-0.00111228 0.0166122 0)
(-0.00107797 0.0158823 0)
(-0.00104373 0.0151753 0)
(-0.00100964 0.014491 0)
(-0.000975788 0.0138294 0)
(-0.000942258 0.0131902 0)
(-0.000909115 0.0125733 0)
(-0.000876422 0.0119784 0)
(-0.000844237 0.011405 0)
(-0.000812608 0.010853 0)
(-0.000781581 0.0103218 0)
(-0.000751194 0.0098111 0)
(-0.000721481 0.00932044 0)
(-0.000692471 0.00884935 0)
(-0.000664188 0.00839735 0)
(-0.000636654 0.00796396 0)
(-0.000609884 0.00754867 0)
(-0.000583892 0.00715097 0)
(-0.000558688 0.00677033 0)
(-0.000534278 0.00640622 0)
(-0.000510668 0.00605812 0)
(-0.00048786 0.00572548 0)
(-0.000465852 0.00540778 0)
(-0.000444642 0.00510449 0)
(-0.000424227 0.00481506 0)
(-0.0004046 0.00453898 0)
(-0.000385754 0.00427572 0)
(-0.000367682 0.00402476 0)
(-0.000350373 0.00378559 0)
(-0.000333817 0.0035577 0)
(-0.000318003 0.0033406 0)
(-0.000302919 0.00313379 0)
(-0.000288553 0.0029368 0)
(-0.000274892 0.00274914 0)
(-0.000261923 0.00257036 0)
(-0.000249634 0.00239999 0)
(-0.000238012 0.00223759 0)
(-0.000227042 0.00208271 0)
(-0.000216712 0.00193493 0)
(-0.000207011 0.00179383 0)
(-0.000197924 0.00165898 0)
(-0.00018944 0.00152999 0)
(-0.000181548 0.00140645 0)
(-0.000174236 0.00128798 0)
(-0.000167493 0.00117419 0)
(-0.00016131 0.00106471 0)
(-0.000155677 0.000959159 0)
(-0.000150584 0.000857184 0)
(-0.000146025 0.000758425 0)
(-0.000141992 0.000662528 0)
(-0.000138477 0.000569145 0)
(-0.000135476 0.000477933 0)
(-0.000132983 0.000388551 0)
(-0.000130993 0.000300663 0)
(-0.000129504 0.000213933 0)
(-0.000128513 0.00012803 0)
(-0.000128017 4.26216e-05 0)
(0.00121637 0.0489206 0)
(0.000815713 0.049324 0)
(0.000444108 0.049573 0)
(0.000100563 0.0496791 0)
(-0.000216528 0.0496534 0)
(-0.000508002 0.049506 0)
(-0.000775391 0.0492471 0)
(-0.0010196 0.0488861 0)
(-0.00124161 0.048432 0)
(-0.00144304 0.0478932 0)
(-0.00162476 0.0472781 0)
(-0.00178752 0.0465942 0)
(-0.00193242 0.045849 0)
(-0.00206067 0.0450492 0)
(-0.00217332 0.0442013 0)
(-0.00227123 0.0433114 0)
(-0.00235524 0.0423853 0)
(-0.00242616 0.0414283 0)
(-0.00248485 0.0404455 0)
(-0.00253215 0.0394415 0)
(-0.00256888 0.0384209 0)
(-0.00259579 0.0373876 0)
(-0.00261363 0.0363454 0)
(-0.00262307 0.0352978 0)
(-0.00262477 0.0342481 0)
(-0.00261936 0.0331992 0)
(-0.00260741 0.0321538 0)
(-0.00258951 0.0311144 0)
(-0.00256618 0.0300833 0)
(-0.00253794 0.0290626 0)
(-0.00250527 0.0280541 0)
(-0.00246864 0.0270595 0)
(-0.00242847 0.0260803 0)
(-0.00238517 0.0251178 0)
(-0.00233912 0.0241732 0)
(-0.00229069 0.0232475 0)
(-0.00224022 0.0223417 0)
(-0.00218801 0.0214564 0)
(-0.00213436 0.0205922 0)
(-0.00207955 0.0197498 0)
(-0.00202383 0.0189295 0)
(-0.00196744 0.0181317 0)
(-0.00191059 0.0173565 0)
(-0.00185349 0.016604 0)
(-0.00179632 0.0158745 0)
(-0.00173926 0.0151678 0)
(-0.00168245 0.0144839 0)
(-0.00162605 0.0138226 0)
(-0.00157017 0.0131837 0)
(-0.00151494 0.0125671 0)
(-0.00146046 0.0119725 0)
(-0.00140683 0.0113994 0)
(-0.00135412 0.0108476 0)
(-0.00130242 0.0103167 0)
(-0.00125178 0.00980626 0)
(-0.00120227 0.00931584 0)
(-0.00115393 0.00884498 0)
(-0.0011068 0.00839321 0)
(-0.00106091 0.00796003 0)
(-0.00101631 0.00754495 0)
(-0.000972993 0.00714744 0)
(-0.000930993 0.00676698 0)
(-0.000890317 0.00640306 0)
(-0.000850974 0.00605513 0)
(-0.000812966 0.00572266 0)
(-0.000776292 0.00540511 0)
(-0.000740948 0.00510197 0)
(-0.000706928 0.00481268 0)
(-0.000674222 0.00453674 0)
(-0.000642818 0.00427361 0)
(-0.000612702 0.00402277 0)
(-0.000583859 0.00378372 0)
(-0.00055627 0.00355594 0)
(-0.000529917 0.00333895 0)
(-0.000504781 0.00313224 0)
(-0.000480842 0.00293535 0)
(-0.000458078 0.00274778 0)
(-0.000436467 0.00256909 0)
(-0.000415989 0.0023988 0)
(-0.000396621 0.00223648 0)
(-0.000378341 0.00208168 0)
(-0.000361128 0.00193398 0)
(-0.000344961 0.00179294 0)
(-0.000329819 0.00165816 0)
(-0.000315682 0.00152923 0)
(-0.00030253 0.00140576 0)
(-0.000290345 0.00128734 0)
(-0.000279109 0.00117361 0)
(-0.000268805 0.00106418 0)
(-0.000259418 0.000958685 0)
(-0.000250933 0.000856761 0)
(-0.000243336 0.000758051 0)
(-0.000236614 0.000662201 0)
(-0.000230758 0.000568864 0)
(-0.000225756 0.000477697 0)
(-0.000221601 0.00038836 0)
(-0.000218286 0.000300515 0)
(-0.000215805 0.000213828 0)
(-0.000214153 0.000127967 0)
(-0.000213327 4.26006e-05 0)
(0.00170248 0.0488845 0)
(0.00114182 0.0492873 0)
(0.000621669 0.0495363 0)
(0.000140722 0.0496423 0)
(-0.000303029 0.0496166 0)
(-0.000711036 0.0494694 0)
(-0.00108526 0.0492107 0)
(-0.00142709 0.0488499 0)
(-0.0017379 0.0483961 0)
(-0.00201979 0.0478578 0)
(-0.00227405 0.0472431 0)
(-0.00250184 0.0465598 0)
(-0.00270471 0.045815 0)
(-0.00288426 0.0450158 0)
(-0.00304193 0.0441686 0)
(-0.00317896 0.0432794 0)
(-0.00329652 0.0423539 0)
(-0.00339577 0.0413976 0)
(-0.00347792 0.0404155 0)
(-0.00354413 0.0394123 0)
(-0.00359553 0.0383924 0)
(-0.00363321 0.0373599 0)
(-0.00365818 0.0363185 0)
(-0.0036714 0.0352717 0)
(-0.00367378 0.0342228 0)
(-0.0036662 0.0331746 0)
(-0.00364948 0.03213 0)
(-0.00362442 0.0310914 0)
(-0.00359176 0.0300611 0)
(-0.00355224 0.0290411 0)
(-0.00350651 0.0280333 0)
(-0.00345524 0.0270395 0)
(-0.00339901 0.026061 0)
(-0.00333841 0.0250992 0)
(-0.00327396 0.0241553 0)
(-0.00320618 0.0232303 0)
(-0.00313553 0.0223251 0)
(-0.00306246 0.0214405 0)
(-0.00298737 0.020577 0)
(-0.00291065 0.0197352 0)
(-0.00283266 0.0189155 0)
(-0.00275373 0.0181182 0)
(-0.00267416 0.0173436 0)
(-0.00259424 0.0165917 0)
(-0.00251423 0.0158627 0)
(-0.00243436 0.0151565 0)
(-0.00235485 0.0144731 0)
(-0.0022759 0.0138123 0)
(-0.0021977 0.013174 0)
(-0.0021204 0.0125578 0)
(-0.00204414 0.0119636 0)
(-0.00196908 0.011391 0)
(-0.00189531 0.0108396 0)
(-0.00182294 0.0103091 0)
(-0.00175207 0.009799 0)
(-0.00168276 0.00930894 0)
(-0.0016151 0.00883843 0)
(-0.00154914 0.00838699 0)
(-0.00148491 0.00795414 0)
(-0.00142248 0.00753936 0)
(-0.00136185 0.00714214 0)
(-0.00130307 0.00676197 0)
(-0.00124614 0.00639832 0)
(-0.00119107 0.00605064 0)
(-0.00113787 0.00571842 0)
(-0.00108654 0.00540111 0)
(-0.00103707 0.00509819 0)
(-0.000989455 0.00480912 0)
(-0.000943678 0.00453338 0)
(-0.000899723 0.00427044 0)
(-0.000857571 0.00401979 0)
(-0.0008172 0.00378092 0)
(-0.000778585 0.00355331 0)
(-0.000741701 0.00333648 0)
(-0.00070652 0.00312992 0)
(-0.000673013 0.00293317 0)
(-0.000641151 0.00274575 0)
(-0.000610903 0.00256719 0)
(-0.000582241 0.00239703 0)
(-0.000555132 0.00223483 0)
(-0.000529546 0.00208014 0)
(-0.000505454 0.00193255 0)
(-0.000482826 0.00179161 0)
(-0.000461632 0.00165693 0)
(-0.000441845 0.0015281 0)
(-0.000423437 0.00140472 0)
(-0.000406383 0.00128639 0)
(-0.000390656 0.00117274 0)
(-0.000376235 0.00106339 0)
(-0.000363096 0.000957976 0)
(-0.000351219 0.000856127 0)
(-0.000340586 0.000757489 0)
(-0.000331178 0.000661711 0)
(-0.000322981 0.000568443 0)
(-0.000315981 0.000477344 0)
(-0.000310165 0.000388072 0)
(-0.000305525 0.000300292 0)
(-0.000302052 0.000213669 0)
(-0.00029974 0.000127872 0)
(-0.000298585 4.2569e-05 0)
(0.00218803 0.0488363 0)
(0.00146749 0.0492387 0)
(0.0007991 0.0494873 0)
(0.000180889 0.0495933 0)
(-0.000389452 0.0495676 0)
(-0.000913899 0.0494205 0)
(-0.00139488 0.0491621 0)
(-0.00183422 0.0488016 0)
(-0.00223374 0.0483483 0)
(-0.00259603 0.0478105 0)
(-0.00292277 0.0471964 0)
(-0.00321556 0.0465138 0)
(-0.00347634 0.0457698 0)
(-0.00370715 0.0449714 0)
(-0.0039098 0.0441249 0)
(-0.00408591 0.0432366 0)
(-0.00423698 0.0423121 0)
(-0.00436454 0.0413567 0)
(-0.00447012 0.0403756 0)
(-0.00455523 0.0393734 0)
(-0.0046213 0.0383545 0)
(-0.00466974 0.037323 0)
(-0.00470183 0.0362826 0)
(-0.00471882 0.0352369 0)
(-0.00472188 0.034189 0)
(-0.00471213 0.0331418 0)
(-0.00469064 0.0320982 0)
(-0.00465843 0.0310607 0)
(-0.00461646 0.0300314 0)
(-0.00456566 0.0290124 0)
(-0.00450689 0.0280056 0)
(-0.00444099 0.0270128 0)
(-0.00436872 0.0260352 0)
(-0.00429083 0.0250744 0)
(-0.004208 0.0241315 0)
(-0.00412088 0.0232074 0)
(-0.00403007 0.0223031 0)
(-0.00393615 0.0214193 0)
(-0.00383964 0.0205567 0)
(-0.00374104 0.0197157 0)
(-0.0036408 0.0188968 0)
(-0.00353935 0.0181003 0)
(-0.00343708 0.0173265 0)
(-0.00333436 0.0165754 0)
(-0.00323152 0.0158471 0)
(-0.00312886 0.0151416 0)
(-0.00302667 0.0144588 0)
(-0.0029252 0.0137987 0)
(-0.00282468 0.013161 0)
(-0.00272533 0.0125454 0)
(-0.00262732 0.0119518 0)
(-0.00253084 0.0113797 0)
(-0.00243602 0.0108289 0)
(-0.00234301 0.0102989 0)
(-0.00225191 0.00978932 0)
(-0.00216284 0.00929974 0)
(-0.00207588 0.0088297 0)
(-0.00199109 0.00837871 0)
(-0.00190855 0.00794628 0)
(-0.0018283 0.00753191 0)
(-0.00175038 0.00713509 0)
(-0.00167482 0.00675529 0)
(-0.00160165 0.006392 0)
(-0.00153087 0.00604466 0)
(-0.0014625 0.00571277 0)
(-0.00139652 0.00539578 0)
(-0.00133294 0.00509315 0)
(-0.00127174 0.00480437 0)
(-0.0012129 0.0045289 0)
(-0.00115641 0.00426622 0)
(-0.00110223 0.00401582 0)
(-0.00105034 0.00377718 0)
(-0.00100071 0.0035498 0)
(-0.000953302 0.00333318 0)
(-0.000908083 0.00312683 0)
(-0.000865017 0.00293028 0)
(-0.000824065 0.00274304 0)
(-0.000785189 0.00256465 0)
(-0.000748349 0.00239466 0)
(-0.000713506 0.00223262 0)
(-0.000680621 0.00207809 0)
(-0.000649656 0.00193064 0)
(-0.000620572 0.00178984 0)
(-0.000593332 0.0016553 0)
(-0.0005679 0.00152659 0)
(-0.00054424 0.00140333 0)
(-0.00052232 0.00128512 0)
(-0.000502107 0.00117158 0)
(-0.000483571 0.00106234 0)
(-0.000466684 0.000957029 0)
(-0.000451419 0.000855281 0)
(-0.000437752 0.000756741 0)
(-0.00042566 0.000661057 0)
(-0.000415125 0.000567882 0)
(-0.000406127 0.000476872 0)
(-0.000398653 0.000387689 0)
(-0.000392689 0.000299995 0)
(-0.000388225 0.000213458 0)
(-0.000385253 0.000127746 0)
(-0.000383768 4.2527e-05 0)
(0.00267306 0.048776 0)
(0.00179278 0.0491779 0)
(0.000976294 0.0494262 0)
(0.000221009 0.049532 0)
(-0.000475791 0.0495063 0)
(-0.00111654 0.0493595 0)
(-0.00170416 0.0491013 0)
(-0.0022409 0.0487413 0)
(-0.00272903 0.0482885 0)
(-0.00317161 0.0477514 0)
(-0.00357077 0.0471381 0)
(-0.00392848 0.0464563 0)
(-0.00424712 0.0457133 0)
(-0.00452912 0.0449158 0)
(-0.00477671 0.0440704 0)
(-0.00499184 0.0431832 0)
(-0.0051764 0.0422598 0)
(-0.00533223 0.0413056 0)
(-0.00546122 0.0403257 0)
(-0.0055652 0.0393248 0)
(-0.00564593 0.0383071 0)
(-0.00570511 0.0372769 0)
(-0.00574432 0.0362378 0)
(-0.00576508 0.0351933 0)
(-0.00576882 0.0341467 0)
(-0.00575691 0.0331009 0)
(-0.00573065 0.0320586 0)
(-0.0056913 0.0310223 0)
(-0.00564002 0.0299943 0)
(-0.00557796 0.0289766 0)
(-0.00550616 0.027971 0)
(-0.00542564 0.0269794 0)
(-0.00533735 0.0260031 0)
(-0.00524219 0.0250434 0)
(-0.00514099 0.0241016 0)
(-0.00503455 0.0231787 0)
(-0.00492362 0.0222755 0)
(-0.00480887 0.0213928 0)
(-0.00469096 0.0205313 0)
(-0.0045705 0.0196913 0)
(-0.00444803 0.0188735 0)
(-0.00432409 0.018078 0)
(-0.00419915 0.0173051 0)
(-0.00407365 0.0165549 0)
(-0.00394801 0.0158275 0)
(-0.00382259 0.0151229 0)
(-0.00369774 0.014441 0)
(-0.00357377 0.0137816 0)
(-0.00345097 0.0131447 0)
(-0.00332958 0.0125299 0)
(-0.00320985 0.011937 0)
(-0.00309197 0.0113657 0)
(-0.00297613 0.0108155 0)
(-0.0028625 0.0102862 0)
(-0.00275121 0.00977722 0)
(-0.00264239 0.00928825 0)
(-0.00253614 0.00881879 0)
(-0.00243255 0.00836835 0)
(-0.00233171 0.00793646 0)
(-0.00223367 0.00752261 0)
(-0.00213847 0.00712627 0)
(-0.00204616 0.00674695 0)
(-0.00195677 0.0063841 0)
(-0.0018703 0.0060372 0)
(-0.00178676 0.00570571 0)
(-0.00170616 0.00538911 0)
(-0.00162848 0.00508686 0)
(-0.00155371 0.00479843 0)
(-0.00148183 0.00452331 0)
(-0.0014128 0.00426095 0)
(-0.00134661 0.00401086 0)
(-0.00128322 0.00377251 0)
(-0.00122259 0.00354541 0)
(-0.00116467 0.00332906 0)
(-0.00110942 0.00312297 0)
(-0.00105681 0.00292666 0)
(-0.00100678 0.00273965 0)
(-0.00095928 0.00256148 0)
(-0.000914272 0.0023917 0)
(-0.000871704 0.00222986 0)
(-0.000831528 0.00207552 0)
(-0.000793697 0.00192825 0)
(-0.000758165 0.00178763 0)
(-0.000724885 0.00165325 0)
(-0.000693814 0.00152471 0)
(-0.000664909 0.0014016 0)
(-0.000638128 0.00128353 0)
(-0.000613434 0.00117014 0)
(-0.000590788 0.00106103 0)
(-0.000570157 0.000955847 0)
(-0.000551507 0.000854225 0)
(-0.00053481 0.000755806 0)
(-0.000520038 0.000660241 0)
(-0.000507166 0.00056718 0)
(-0.000496174 0.000476283 0)
(-0.000487042 0.00038721 0)
(-0.000479756 0.000299625 0)
(-0.000474302 0.000213195 0)
(-0.000470671 0.000127588 0)
(-0.000468857 4.24745e-05 0)
(0.00315748 0.0487036 0)
(0.00211766 0.049105 0)
(0.00115323 0.0493528 0)
(0.00026106 0.0494585 0)
(-0.000562022 0.0494329 0)
(-0.00131892 0.0492862 0)
(-0.00201301 0.0490285 0)
(-0.00264702 0.048669 0)
(-0.00322364 0.0482169 0)
(-0.00374642 0.0476806 0)
(-0.00421789 0.0470682 0)
(-0.00464045 0.0463874 0)
(-0.00501686 0.0456454 0)
(-0.00534999 0.0448491 0)
(-0.00564244 0.044005 0)
(-0.00589654 0.0431191 0)
(-0.00611453 0.0421971 0)
(-0.0062986 0.0412443 0)
(-0.00645097 0.0402659 0)
(-0.00657379 0.0392664 0)
(-0.00666917 0.0382503 0)
(-0.00673907 0.0372216 0)
(-0.0067854 0.036184 0)
(-0.00680992 0.0351411 0)
(-0.00681433 0.034096 0)
(-0.00680026 0.0330518 0)
(-0.00676925 0.032011 0)
(-0.00672276 0.0309763 0)
(-0.00666219 0.0299497 0)
(-0.00658888 0.0289336 0)
(-0.00650407 0.0279295 0)
(-0.00640896 0.0269393 0)
(-0.00630467 0.0259645 0)
(-0.00619226 0.0250063 0)
(-0.00607272 0.0240659 0)
(-0.00594699 0.0231443 0)
(-0.00581595 0.0222425 0)
(-0.0056804 0.0213611 0)
(-0.00554113 0.0205008 0)
(-0.00539883 0.0196621 0)
(-0.00525417 0.0188455 0)
(-0.00510776 0.0180511 0)
(-0.00496018 0.0172794 0)
(-0.00481194 0.0165303 0)
(-0.00466352 0.015804 0)
(-0.00451537 0.0151004 0)
(-0.0043679 0.0144195 0)
(-0.00422146 0.0137612 0)
(-0.0040764 0.0131252 0)
(-0.00393302 0.0125113 0)
(-0.00379159 0.0119193 0)
(-0.00365234 0.0113488 0)
(-0.00351551 0.0107995 0)
(-0.00338128 0.0102709 0)
(-0.00324982 0.00976272 0)
(-0.00312128 0.00927447 0)
(-0.00299577 0.0088057 0)
(-0.00287342 0.00835594 0)
(-0.0027543 0.00792469 0)
(-0.00263848 0.00751144 0)
(-0.00252604 0.0071157 0)
(-0.002417 0.00673694 0)
(-0.0023114 0.00637463 0)
(-0.00220926 0.00602824 0)
(-0.00211058 0.00569725 0)
(-0.00201537 0.00538111 0)
(-0.00192361 0.00507931 0)
(-0.00183529 0.00479132 0)
(-0.00175038 0.00451659 0)
(-0.00166885 0.00425463 0)
(-0.00159067 0.00400491 0)
(-0.00151579 0.00376692 0)
(-0.00144416 0.00354015 0)
(-0.00137575 0.00332412 0)
(-0.00131049 0.00311834 0)
(-0.00124834 0.00292231 0)
(-0.00118924 0.00273558 0)
(-0.00113314 0.00255768 0)
(-0.00107997 0.00238815 0)
(-0.00102969 0.00222655 0)
(-0.00098223 0.00207244 0)
(-0.000937543 0.00192539 0)
(-0.000895571 0.00178498 0)
(-0.00085626 0.0016508 0)
(-0.000819557 0.00152244 0)
(-0.000785413 0.00139952 0)
(-0.00075378 0.00128163 0)
(-0.000724609 0.0011684 0)
(-0.00069786 0.00105946 0)
(-0.000673489 0.000954429 0)
(-0.00065146 0.000852958 0)
(-0.000631736 0.000754685 0)
(-0.000614287 0.000659261 0)
(-0.000599082 0.000566339 0)
(-0.000586098 0.000475577 0)
(-0.000575311 0.000386635 0)
(-0.000566704 0.00029918 0)
(-0.000560262 0.000212878 0)
(-0.000555973 0.000127399 0)
(-0.000553831 4.24115e-05 0)
(0.00364115 0.0486192 0)
(0.00244203 0.0490199 0)
(0.00132987 0.0492673 0)
(0.000301042 0.0493728 0)
(-0.000648117 0.0493472 0)
(-0.00152096 0.0492008 0)
(-0.00232136 0.0489435 0)
(-0.00305248 0.0485847 0)
(-0.00371745 0.0481333 0)
(-0.0043203 0.047598 0)
(-0.00486398 0.0469866 0)
(-0.00535127 0.046307 0)
(-0.00578536 0.0455663 0)
(-0.00616953 0.0447714 0)
(-0.00650677 0.0439288 0)
(-0.00679979 0.0430444 0)
(-0.00705115 0.0421239 0)
(-0.00726341 0.0411729 0)
(-0.00743912 0.0401961 0)
(-0.00758077 0.0391984 0)
(-0.00769076 0.038184 0)
(-0.00777138 0.0371571 0)
(-0.0078248 0.0361214 0)
(-0.00785308 0.0350802 0)
(-0.00785817 0.034037 0)
(-0.00784194 0.0329945 0)
(-0.00780618 0.0319555 0)
(-0.00775256 0.0309226 0)
(-0.00768272 0.0298979 0)
(-0.00759817 0.0288834 0)
(-0.00750037 0.0278811 0)
(-0.00739069 0.0268927 0)
(-0.00727043 0.0259195 0)
(-0.0071408 0.0249629 0)
(-0.00700295 0.0240242 0)
(-0.00685796 0.0231042 0)
(-0.00670684 0.0222039 0)
(-0.00655054 0.0213241 0)
(-0.00638993 0.0204653 0)
(-0.00622583 0.0196281 0)
(-0.00605901 0.0188128 0)
(-0.00589018 0.0180199 0)
(-0.00571999 0.0172494 0)
(-0.00554904 0.0165017 0)
(-0.00537789 0.0157766 0)
(-0.00520705 0.0150743 0)
(-0.00503698 0.0143946 0)
(-0.00486811 0.0137373 0)
(-0.00470083 0.0131025 0)
(-0.00453548 0.0124896 0)
(-0.00437239 0.0118986 0)
(-0.00421182 0.0113291 0)
(-0.00405402 0.0107807 0)
(-0.00389923 0.0102531 0)
(-0.00374763 0.0097458 0)
(-0.0035994 0.0092584 0)
(-0.00345467 0.00879044 0)
(-0.00331357 0.00834146 0)
(-0.0031762 0.00791095 0)
(-0.00304265 0.00749843 0)
(-0.00291298 0.00710337 0)
(-0.00278724 0.00672526 0)
(-0.00266546 0.00636358 0)
(-0.00254768 0.00601779 0)
(-0.00243388 0.00568737 0)
(-0.00232409 0.00537179 0)
(-0.00221828 0.00507051 0)
(-0.00211643 0.00478301 0)
(-0.00201851 0.00450877 0)
(-0.00192449 0.00424726 0)
(-0.00183433 0.00399797 0)
(-0.00174798 0.00376039 0)
(-0.00166538 0.00353402 0)
(-0.00158648 0.00331836 0)
(-0.00151123 0.00311293 0)
(-0.00143956 0.00291725 0)
(-0.00137141 0.00273084 0)
(-0.00130671 0.00255325 0)
(-0.0012454 0.00238402 0)
(-0.00118742 0.00222269 0)
(-0.00113269 0.00206885 0)
(-0.00108116 0.00192206 0)
(-0.00103276 0.00178189 0)
(-0.000987423 0.00164794 0)
(-0.000945098 0.00151981 0)
(-0.000905724 0.00139709 0)
(-0.000869245 0.00127941 0)
(-0.000835606 0.00116638 0)
(-0.000804759 0.00105762 0)
(-0.000776655 0.000952776 0)
(-0.000751251 0.00085148 0)
(-0.000728506 0.000753378 0)
(-0.000708384 0.000658119 0)
(-0.000690851 0.000565358 0)
(-0.000675877 0.000474753 0)
(-0.000663438 0.000385966 0)
(-0.000653513 0.000298662 0)
(-0.000646084 0.00021251 0)
(-0.000641138 0.000127178 0)
(-0.000638667 4.2338e-05 0)
(0.00412392 0.0485228 0)
(0.00276581 0.0489227 0)
(0.00150619 0.0491697 0)
(0.000340951 0.049275 0)
(-0.000734048 0.0492494 0)
(-0.00172262 0.0491033 0)
(-0.00262914 0.0488465 0)
(-0.00345719 0.0484884 0)
(-0.00421034 0.0480379 0)
(-0.00489311 0.0475036 0)
(-0.00550887 0.0468935 0)
(-0.00606077 0.0462152 0)
(-0.00655244 0.045476 0)
(-0.00698755 0.0446827 0)
(-0.0073695 0.0438417 0)
(-0.00770135 0.042959 0)
(-0.00798603 0.0420404 0)
(-0.00822643 0.0410912 0)
(-0.00842544 0.0401164 0)
(-0.00858587 0.0391207 0)
(-0.00871045 0.0381083 0)
(-0.00880176 0.0370835 0)
(-0.00886227 0.0360497 0)
(-0.0088943 0.0350107 0)
(-0.00890006 0.0339695 0)
(-0.00888169 0.0329291 0)
(-0.00884118 0.0318922 0)
(-0.00878046 0.0308613 0)
(-0.00870135 0.0298386 0)
(-0.00860559 0.0288262 0)
(-0.00849482 0.0278259 0)
(-0.0083706 0.0268394 0)
(-0.00823439 0.0258681 0)
(-0.00808757 0.0249135 0)
(-0.00793145 0.0239765 0)
(-0.00776724 0.0230584 0)
(-0.00759608 0.0221599 0)
(-0.00741905 0.0212818 0)
(-0.00723715 0.0204247 0)
(-0.00705129 0.0195891 0)
(-0.00686236 0.0187755 0)
(-0.00667114 0.0179841 0)
(-0.00647838 0.0172152 0)
(-0.00628477 0.016469 0)
(-0.00609093 0.0157453 0)
(-0.00589743 0.0150444 0)
(-0.00570482 0.014366 0)
(-0.00551356 0.0137101 0)
(-0.0053241 0.0130765 0)
(-0.00513683 0.0124649 0)
(-0.00495211 0.0118751 0)
(-0.00477025 0.0113067 0)
(-0.00459154 0.0107594 0)
(-0.00441622 0.0102328 0)
(-0.00424452 0.00972648 0)
(-0.00407663 0.00924005 0)
(-0.00391271 0.00877302 0)
(-0.00375291 0.00832492 0)
(-0.00359733 0.00789527 0)
(-0.00344607 0.00748356 0)
(-0.0032992 0.00708929 0)
(-0.00315679 0.00671193 0)
(-0.00301887 0.00635096 0)
(-0.00288546 0.00600586 0)
(-0.00275659 0.0056761 0)
(-0.00263223 0.00536114 0)
(-0.00251239 0.00506046 0)
(-0.00239704 0.00477353 0)
(-0.00228614 0.00449983 0)
(-0.00217965 0.00423884 0)
(-0.00207754 0.00399004 0)
(-0.00197973 0.00375294 0)
(-0.00188619 0.00352701 0)
(-0.00179683 0.00331179 0)
(-0.0017116 0.00310676 0)
(-0.00163043 0.00291147 0)
(-0.00155324 0.00272543 0)
(-0.00147996 0.00254819 0)
(-0.00141053 0.00237929 0)
(-0.00134485 0.00221829 0)
(-0.00128287 0.00206475 0)
(-0.0012245 0.00191825 0)
(-0.00116969 0.00177836 0)
(-0.00111834 0.00164467 0)
(-0.00107041 0.00151679 0)
(-0.00102581 0.00139432 0)
(-0.000984495 0.00127687 0)
(-0.000946397 0.00116406 0)
(-0.00091146 0.00105552 0)
(-0.00087963 0.000950887 0)
(-0.000850858 0.000849792 0)
(-0.000825097 0.000751884 0)
(-0.000802307 0.000656814 0)
(-0.000782449 0.000564237 0)
(-0.00076549 0.000473812 0)
(-0.000751402 0.000385201 0)
(-0.00074016 0.00029807 0)
(-0.000731746 0.000212088 0)
(-0.000726145 0.000126926 0)
(-0.000723346 4.22541e-05 0)
(0.00460567 0.0484144 0)
(0.00308891 0.0488134 0)
(0.00168214 0.0490598 0)
(0.000380779 0.0491649 0)
(-0.000819796 0.0491394 0)
(-0.00192386 0.0489936 0)
(-0.00293627 0.0487374 0)
(-0.00386105 0.0483801 0)
(-0.0047022 0.0479307 0)
(-0.00546472 0.0473975 0)
(-0.0061524 0.0467888 0)
(-0.00676878 0.046112 0)
(-0.0073179 0.0453744 0)
(-0.00780385 0.0445829 0)
(-0.00823041 0.0437438 0)
(-0.00860101 0.0428631 0)
(-0.00891894 0.0419466 0)
(-0.00918742 0.0409995 0)
(-0.00940967 0.0400269 0)
(-0.00958886 0.0390333 0)
(-0.00972799 0.0380233 0)
(-0.00982998 0.0370006 0)
(-0.00989756 0.0359692 0)
(-0.00993332 0.0349325 0)
(-0.00993977 0.0338936 0)
(-0.00991924 0.0328556 0)
(-0.009874 0.031821 0)
(-0.00980618 0.0307924 0)
(-0.00971783 0.0297719 0)
(-0.00961089 0.0287618 0)
(-0.00948718 0.0277637 0)
(-0.00934845 0.0267794 0)
(-0.00919632 0.0258103 0)
(-0.00903235 0.0248578 0)
(-0.00885799 0.023923 0)
(-0.0086746 0.0230069 0)
(-0.00848345 0.0221104 0)
(-0.00828574 0.0212343 0)
(-0.00808258 0.0203791 0)
(-0.00787502 0.0195454 0)
(-0.00766401 0.0187336 0)
(-0.00745046 0.017944 0)
(-0.00723518 0.0171768 0)
(-0.00701895 0.0164322 0)
(-0.00680246 0.0157102 0)
(-0.00658636 0.0150108 0)
(-0.00637125 0.0143339 0)
(-0.00615765 0.0136795 0)
(-0.00594606 0.0130473 0)
(-0.00573691 0.012437 0)
(-0.00553061 0.0118485 0)
(-0.0053275 0.0112814 0)
(-0.00512791 0.0107353 0)
(-0.00493212 0.0102099 0)
(-0.00474036 0.00970476 0)
(-0.00455286 0.00921941 0)
(-0.00436979 0.00875343 0)
(-0.00419132 0.00830633 0)
(-0.00401756 0.00787764 0)
(-0.00384863 0.00746685 0)
(-0.00368461 0.00707346 0)
(-0.00352556 0.00669694 0)
(-0.00337153 0.00633678 0)
(-0.00322254 0.00599245 0)
(-0.00307861 0.00566342 0)
(-0.00293973 0.00534917 0)
(-0.00280589 0.00504916 0)
(-0.00267706 0.00476287 0)
(-0.0025532 0.00448978 0)
(-0.00243428 0.00422937 0)
(-0.00232023 0.00398113 0)
(-0.00221101 0.00374455 0)
(-0.00210653 0.00351914 0)
(-0.00200674 0.00330439 0)
(-0.00191155 0.00309983 0)
(-0.00182089 0.00290497 0)
(-0.00173469 0.00271934 0)
(-0.00165285 0.0025425 0)
(-0.0015753 0.00237398 0)
(-0.00150196 0.00221334 0)
(-0.00143273 0.00206014 0)
(-0.00136755 0.00191396 0)
(-0.00130633 0.00177439 0)
(-0.00124899 0.001641 0)
(-0.00119545 0.00151341 0)
(-0.00114565 0.00139121 0)
(-0.0010995 0.00127402 0)
(-0.00105695 0.00116146 0)
(-0.00101794 0.00105317 0)
(-0.000982387 0.000948764 0)
(-0.000950254 0.000847895 0)
(-0.000921484 0.000750206 0)
(-0.000896031 0.000655348 0)
(-0.000873853 0.000562977 0)
(-0.000854914 0.000472754 0)
(-0.00083918 0.000384341 0)
(-0.000826625 0.000297405 0)
(-0.000817228 0.000211615 0)
(-0.000810972 0.000126642 0)
(-0.000807847 4.21597e-05 0)
(0.00508628 0.0482941 0)
(0.00341125 0.0486921 0)
(0.00185768 0.0489379 0)
(0.000420515 0.0490428 0)
(-0.00090534 0.0490173 0)
(-0.00212462 0.0488719 0)
(-0.00324267 0.0486163 0)
(-0.00426395 0.0482599 0)
(-0.0051929 0.0478116 0)
(-0.00603499 0.0472798 0)
(-0.00679441 0.0466725 0)
(-0.00747512 0.0459974 0)
(-0.00808155 0.0452617 0)
(-0.00861822 0.0444721 0)
(-0.00908928 0.0436351 0)
(-0.00949855 0.0427566 0)
(-0.00984964 0.0418423 0)
(-0.0101461 0.0408976 0)
(-0.0103916 0.0399274 0)
(-0.0105895 0.0389363 0)
(-0.0107431 0.0379288 0)
(-0.0108558 0.0369087 0)
(-0.0109304 0.0358799 0)
(-0.0109699 0.0348457 0)
(-0.010977 0.0338094 0)
(-0.0109543 0.0327739 0)
(-0.0109044 0.0317419 0)
(-0.0108295 0.0307158 0)
(-0.0107319 0.029698 0)
(-0.0106138 0.0286903 0)
(-0.0104772 0.0276947 0)
(-0.010324 0.0267129 0)
(-0.010156 0.0257462 0)
(-0.00997491 0.024796 0)
(-0.00978235 0.0238636 0)
(-0.00957982 0.0229497 0)
(-0.00936872 0.0220555 0)
(-0.00915038 0.0211815 0)
(-0.00892602 0.0203285 0)
(-0.0086968 0.0194968 0)
(-0.00846377 0.018687 0)
(-0.00822793 0.0178994 0)
(-0.00799019 0.0171341 0)
(-0.0077514 0.0163913 0)
(-0.00751232 0.0156711 0)
(-0.00727367 0.0149735 0)
(-0.00703611 0.0142983 0)
(-0.00680022 0.0136455 0)
(-0.00656655 0.0130149 0)
(-0.00633557 0.0124061 0)
(-0.00610774 0.0118191 0)
(-0.00588344 0.0112534 0)
(-0.00566303 0.0107087 0)
(-0.0054468 0.0101846 0)
(-0.00523503 0.00968064 0)
(-0.00502796 0.0091965 0)
(-0.00482579 0.00873168 0)
(-0.00462869 0.00828569 0)
(-0.00443681 0.00785806 0)
(-0.00425025 0.0074483 0)
(-0.00406911 0.00705588 0)
(-0.00389346 0.0066803 0)
(-0.00372336 0.00632104 0)
(-0.00355882 0.00597756 0)
(-0.00339987 0.00564935 0)
(-0.0032465 0.00533588 0)
(-0.00309869 0.00503661 0)
(-0.00295641 0.00475104 0)
(-0.00281964 0.00447863 0)
(-0.0026883 0.00421886 0)
(-0.00256236 0.00397124 0)
(-0.00244173 0.00373525 0)
(-0.00232635 0.00351039 0)
(-0.00221614 0.00329618 0)
(-0.00211103 0.00309212 0)
(-0.00201091 0.00289775 0)
(-0.00191571 0.00271259 0)
(-0.00182533 0.00253618 0)
(-0.00173969 0.00236808 0)
(-0.00165869 0.00220784 0)
(-0.00158224 0.00205502 0)
(-0.00151026 0.00190921 0)
(-0.00144265 0.00176998 0)
(-0.00137932 0.00163692 0)
(-0.0013202 0.00150965 0)
(-0.0012652 0.00138775 0)
(-0.00121424 0.00127086 0)
(-0.00116725 0.00115858 0)
(-0.00112416 0.00105055 0)
(-0.0010849 0.000946406 0)
(-0.00104942 0.000845788 0)
(-0.00101764 0.000748342 0)