/*--------------------------------*- C++ -*----------------------------------*\
| =========                 |                                                 |
| \\      /  F ield         | OpenFOAM: The Open Source CFD Toolbox           |
|  \\    /   O peration     | Version:  2406                                  |
|   \\  /    A nd           | Website:  www.openfoam.com                      |
|    \\/     M anipulation  |                                                 |
\*---------------------------------------------------------------------------*/
FoamFile
{
    version     2.0;
    format      ascii;
    arch        "LSB;label=32;scalar=64";
    class       volScalarField;
    location    "35";
    object      T;
}
// * * * * * * * * * * * * * * * * * * * * * * * * * * * * * * * * * * * * * //

dimensions      [0 0 0 1 0 0 0];

internalField   nonuniform List<scalar> 
20000
(
300.585
300.551
300.519
300.489
300.46
300.433
300.407
300.382
300.359
300.337
300.316
300.296
300.277
300.259
300.242
300.227
300.212
300.198
300.184
300.172
300.16
300.149
300.139
300.129
300.12
300.111
300.103
300.096
300.089
300.082
300.076
300.071
300.065
300.06
300.056
300.051
300.047
300.044
300.04
300.037
300.034
300.031
300.029
300.026
300.024
300.022
300.02
300.019
300.017
300.016
300.014
300.013
300.012
300.011
300.01
300.009
300.008
300.008
300.007
300.006
300.006
300.005
300.005
300.004
300.004
300.003
300.003
300.003
300.003
300.002
300.002
300.002
300.002
300.002
300.001
300.001
300.001
300.001
300.001
300.001
300.001
300.001
300.001
300.001
300
300
300
300
300
300
300
300
300
300
300
300
300
300
300
300
301.754
301.654
301.558
301.467
301.381
301.299
301.221
301.147
301.077
301.01
300.947
300.887
300.831
300.778
300.727
300.68
300.635
300.593
300.553
300.516
300.48
300.447
300.416
300.387
300.36
300.334
300.31
300.288
300.267
300.247
300.229
300.212
300.196
300.181
300.167
300.154
300.142
300.131
300.121
300.111
300.102
300.094
300.086
300.079
300.073
300.067
300.061
300.056
300.051
300.047
300.043
300.039
300.036
300.033
300.03
300.027
300.025
300.023
300.021
300.019
300.017
300.015
300.014
300.013
300.012
300.01
300.009
300.009
300.008
300.007
300.006
300.006
300.005
300.005
300.004
300.004
300.003
300.003
300.003
300.002
300.002
300.002
300.002
300.002
300.001
300.001
300.001
300.001
300.001
300.001
300.001
300.001
300
300
300
300
300
300
300
300
302.922
302.755
302.597
302.445
302.301
302.165
302.035
301.911
301.794
301.683
301.578
301.479
301.385
301.296
301.212
301.133
301.058
300.988
300.922
300.859
300.8
300.745
300.694
300.645
300.599
300.557
300.517
300.479
300.444
300.412
300.381
300.353
300.326
300.301
300.278
300.257
300.237
300.219
300.201
300.185
300.171
300.157
300.144
300.132
300.121
300.111
300.102
300.094
300.086
300.078
300.072
300.065
300.06
300.055
300.05
300.045
300.041
300.038
300.034
300.031
300.028
300.026
300.023
300.021
300.019
300.017
300.016
300.014
300.013
300.012
300.011
300.01
300.009
300.008
300.007
300.006
300.006
300.005
300.005
300.004
300.004
300.003
300.003
300.003
300.002
300.002
300.002
300.002
300.001
300.001
300.001
300.001
300.001
300.001
300.001
300
300
300
300
300
304.09
303.857
303.634
303.423
303.221
303.03
302.848
302.675
302.511
302.356
302.209
302.07
301.938
301.814
301.696
301.586
301.481
301.383
301.29
301.202
301.12
301.043
300.971
300.903
300.839
300.779
300.723
300.671
300.622
300.576
300.534
300.494
300.457
300.422
300.39
300.36
300.332
300.306
300.282
300.259
300.239
300.219
300.202
300.185
300.17
300.156
300.143
300.131
300.12
300.11
300.1
300.092
300.084
300.076
300.07
300.064
300.058
300.053
300.048
300.044
300.04
300.036
300.033
300.03
300.027
300.024
300.022
300.02
300.018
300.016
300.015
300.013
300.012
300.011
300.01
300.009
300.008
300.007
300.006
300.006
300.005
300.005
300.004
300.004
300.003
300.003
300.003
300.002
300.002
300.002
300.002
300.001
300.001
300.001
300.001
300.001
300
300
300
300
305.257
304.957
304.671
304.399
304.14
303.894
303.66
303.438
303.228
303.028
302.839
302.66
302.491
302.331
302.18
302.038
301.904
301.777
301.658
301.546
301.44
301.341
301.248
301.16
301.078
301.002
300.93
300.862
300.8
300.741
300.686
300.635
300.587
300.542
300.501
300.462
300.426
300.393
300.362
300.333
300.307
300.282
300.259
300.238
300.219
300.2
300.184
300.168
300.154
300.141
300.129
300.118
300.108
300.098
300.09
300.082
300.074
300.068
300.062
300.056
300.051
300.046
300.042
300.038
300.035
300.031
300.028
300.026
300.023
300.021
300.019
300.017
300.015
300.014
300.013
300.011
300.01
300.009
300.008
300.007
300.007
300.006
300.005
300.005
300.004
300.004
300.003
300.003
300.003
300.002
300.002
300.002
300.001
300.001
300.001
300.001
300.001
300
300
300
306.423
306.056
305.707
305.374
305.058
304.757
304.472
304.201
303.944
303.7
303.469
303.25
303.044
302.848
302.664
302.49
302.326
302.171
302.025
301.888
301.759
301.638
301.524
301.418
301.318
301.224
301.136
301.054
300.977
300.905
300.838
300.775
300.717
300.663
300.612
300.565
300.521
300.48
300.442
300.407
300.375
300.345
300.317
300.291
300.267
300.245
300.224
300.206
300.188
300.172
300.158
300.144
300.131
300.12
300.109
300.1
300.091
300.083
300.075
300.068
300.062
300.057
300.051
300.047
300.042
300.038
300.035
300.031
300.028
300.026
300.023
300.021
300.019
300.017
300.015
300.014
300.012
300.011
300.01
300.009
300.008
300.007
300.006
300.006
300.005
300.005
300.004
300.004
300.003
300.003
300.002
300.002
300.002
300.002
300.001
300.001
300.001
300.001
300
300
307.587
307.154
306.741
306.348
305.975
305.62
305.282
304.962
304.658
304.37
304.098
303.839
303.595
303.365
303.147
302.941
302.747
302.564
302.392
302.23
302.078
301.935
301.801
301.675
301.556
301.445
301.342
301.245
301.154
301.069
300.99
300.916
300.847
300.783
300.723
300.667
300.615
300.567
300.523
300.481
300.443
300.407
300.374
300.344
300.315
300.289
300.265
300.243
300.222
300.203
300.186
300.17
300.155
300.142
300.129
300.118
300.107
300.098
300.089
300.081
300.074
300.067
300.061
300.055
300.05
300.045
300.041
300.037
300.033
300.03
300.027
300.025
300.022
300.02
300.018
300.016
300.015
300.013
300.012
300.011
300.009
300.009
300.008
300.007
300.006
300.005
300.005
300.004
300.004
300.003
300.003
300.002
300.002
300.002
300.001
300.001
300.001
300.001
300
300
308.749
308.249
307.774
307.321
306.89
306.48
306.091
305.722
305.372
305.04
304.725
304.428
304.146
303.88
303.629
303.392
303.168
302.957
302.759
302.572
302.396
302.231
302.076
301.931
301.795
301.667
301.547
301.435
301.331
301.233
301.141
301.056
300.977
300.903
300.834
300.769
300.71
300.654
300.603
300.555
300.511
300.469
300.431
300.396
300.364
300.334
300.306
300.28
300.256
300.235
300.215
300.196
300.179
300.163
300.149
300.136
300.124
300.113
300.103
300.093
300.085
300.077
300.07
300.063
300.057
300.052
300.047
300.043
300.039
300.035
300.032
300.028
300.026
300.023
300.021
300.019
300.017
300.015
300.014
300.012
300.011
300.01
300.009
300.008
300.007
300.006
300.006
300.005
300.004
300.004
300.003
300.003
300.002
300.002
300.002
300.001
300.001
300.001
300
300
309.909
309.343
308.804
308.292
307.804
307.34
306.899
306.481
306.084
305.708
305.352
305.015
304.696
304.394
304.11
303.841
303.588
303.349
303.125
302.913
302.714
302.527
302.352
302.187
302.033
301.888
301.752
301.626
301.507
301.396
301.293
301.196
301.106
301.022
300.944
300.871
300.804
300.741
300.683
300.628
300.578
300.532
300.489
300.449
300.412
300.378
300.346
300.317
300.29
300.266
300.243
300.222
300.203
300.185
300.169
300.154
300.14
300.128
300.116
300.106
300.096
300.087
300.079
300.072
300.065
300.059
300.053
300.048
300.044
300.04
300.036
300.032
300.029
300.026
300.024
300.021
300.019
300.017
300.015
300.014
300.012
300.011
300.01
300.009
300.008
300.007
300.006
300.006
300.005
300.004
300.004
300.003
300.003
300.002
300.002
300.002
300.001
300.001
300
300
311.066
310.435
309.833
309.26
308.715
308.197
307.705
307.238
306.795
306.375
305.977
305.6
305.244
304.908
304.59
304.29
304.007
303.741
303.49
303.253
303.031
302.823
302.627
302.443
302.27
302.108
301.957
301.815
301.683
301.559
301.444
301.336
301.235
301.142
301.054
300.973
300.898
300.827
300.762
300.702
300.646
300.594
300.546
300.501
300.46
300.422
300.387
300.354
300.324
300.297
300.271
300.248
300.227
300.207
300.189
300.172
300.157
300.143
300.13
300.118
300.107
300.097
300.088
300.08
300.073
300.066
300.06
300.054
300.049
300.044
300.04
300.036
300.032
300.029
300.026
300.024
300.021
300.019
300.017
300.015
300.014
300.012
300.011
300.01
300.009
300.008
300.007
300.006
300.005
300.005
300.004
300.004
300.003
300.003
300.002
300.002
300.001
300.001
300.001
300
312.221
311.524
310.859
310.226
309.625
309.052
308.509
307.993
307.504
307.04
306.601
306.185
305.792
305.42
305.069
304.738
304.425
304.131
303.854
303.593
303.348
303.117
302.901
302.697
302.507
302.328
302.161
302.005
301.859
301.722
301.594
301.475
301.364
301.261
301.164
301.075
300.991
300.914
300.842
300.775
300.713
300.656
300.603
300.553
300.508
300.466
300.427
300.391
300.358
300.328
300.3
300.274
300.25
300.228
300.208
300.19
300.173
300.157
300.143
300.13
300.118
300.108
300.098
300.089
300.08
300.073
300.066
300.06
300.054
300.049
300.044
300.04
300.036
300.032
300.029
300.026
300.024
300.021
300.019
300.017
300.015
300.014
300.012
300.011
300.01
300.009
300.008
300.007
300.006
300.005
300.005
300.004
300.003
300.003
300.002
300.002
300.001
300.001
300.001
300
313.373
312.61
311.882
311.19
310.532
309.906
309.311
308.746
308.211
307.703
307.223
306.768
306.337
305.931
305.547
305.184
304.842
304.52
304.217
303.932
303.663
303.411
303.174
302.952
302.743
302.548
302.365
302.194
302.034
301.884
301.745
301.614
301.493
301.38
301.274
301.176
301.085
301
300.921
300.848
300.78
300.718
300.659
300.606
300.556
300.51
300.467
300.428
300.392
300.359
300.328
300.3
300.274
300.25
300.228
300.208
300.189
300.172
300.157
300.143
300.13
300.118
300.107
300.097
300.088
300.08
300.072
300.065
300.059
300.053
300.048
300.043
300.039
300.035
300.032
300.029
300.026
300.023
300.021
300.019
300.017
300.015
300.013
300.012
300.011
300.009
300.008
300.007
300.007
300.006
300.005
300.004
300.004
300.003
300.003
300.002
300.002
300.001
300.001
300
314.521
313.693
312.903
312.151
311.436
310.756
310.111
309.498
308.916
308.365
307.843
307.349
306.882
306.44
306.023
305.63
305.258
304.909
304.579
304.269
303.978
303.704
303.447
303.205
302.979
302.767
302.568
302.382
302.208
302.046
301.894
301.753
301.621
301.498
301.383
301.277
301.178
301.086
301
300.921
300.847
300.779
300.716
300.658
300.604
300.554
300.507
300.465
300.426
300.389
300.356
300.325
300.297
300.271
300.247
300.226
300.206
300.187
300.17
300.155
300.141
300.128
300.116
300.105
300.095
300.086
300.078
300.071
300.064
300.058
300.052
300.047
300.043
300.038
300.035
300.031
300.028
300.025
300.023
300.02
300.018
300.016
300.015
300.013
300.012
300.01
300.009
300.008
300.007
300.006
300.005
300.005
300.004
300.003
300.003
300.002
300.002
300.001
300.001
300
315.666
314.772
313.92
313.109
312.338
311.604
310.908
310.246
309.619
309.025
308.461
307.928
307.424
306.948
306.498
306.073
305.673
305.296
304.94
304.606
304.291
303.996
303.718
303.458
303.214
302.985
302.771
302.57
302.383
302.207
302.044
301.891
301.749
301.616
301.493
301.378
301.271
301.171
301.079
300.994
300.914
300.841
300.772
300.709
300.651
300.597
300.547
300.502
300.459
300.42
300.384
300.351
300.321
300.293
300.267
300.243
300.222
300.202
300.184
300.167
300.152
300.138
300.125
300.114
300.103
300.093
300.084
300.076
300.069
300.062
300.056
300.051
300.046
300.041
300.037
300.034
300.03
300.027
300.024
300.022
300.02
300.018
300.016
300.014
300.012
300.011
300.01
300.009
300.008
300.007
300.006
300.005
300.004
300.004
300.003
300.002
300.002
300.001
300.001
300
316.807
315.848
314.934
314.064
313.236
312.45
311.702
310.993
310.32
309.682
309.078
308.506
307.965
307.454
306.971
306.516
306.086
305.681
305.3
304.941
304.604
304.287
303.989
303.71
303.448
303.202
302.972
302.757
302.556
302.368
302.193
302.029
301.876
301.734
301.601
301.478
301.363
301.257
301.158
301.066
300.981
300.902
300.829
300.761
300.699
300.641
300.587
300.538
300.493
300.451
300.412
300.377
300.344
300.314
300.286
300.261
300.238
300.217
300.197
300.179
300.163
300.148
300.134
300.122
300.11
300.1
300.091
300.082
300.074
300.067
300.061
300.055
300.049
300.044
300.04
300.036
300.032
300.029
300.026
300.023
300.021
300.019
300.017
300.015
300.013
300.012
300.011
300.009
300.008
300.007
300.006
300.005
300.005
300.004
300.003
300.003
300.002
300.001
300.001
300
317.944
316.92
315.944
315.015
314.132
313.292
312.494
311.736
311.018
310.337
309.692
309.081
308.504
307.958
307.443
306.956
306.498
306.066
305.659
305.275
304.915
304.577
304.259
303.961
303.681
303.419
303.173
302.944
302.729
302.528
302.341
302.166
302.003
301.851
301.71
301.578
301.455
301.342
301.236
301.138
301.047
300.963
300.885
300.813
300.746
300.684
300.627
300.574
300.526
300.481
300.44
300.402
300.367
300.335
300.306
300.279
300.254
300.231
300.21
300.191
300.174
300.158
300.143
300.13
300.118
300.107
300.097
300.088
300.079
300.072
300.065
300.058
300.053
300.047
300.043
300.038
300.035
300.031
300.028
300.025
300.022
300.02
300.018
300.016
300.014
300.013
300.011
300.01
300.009
300.008
300.007
300.006
300.005
300.004
300.003
300.003
300.002
300.001
300.001
300
319.076
317.988
316.951
315.963
315.024
314.131
313.282
312.477
311.713
310.989
310.303
309.654
309.041
308.46
307.913
307.395
306.908
306.448
306.016
305.608
305.225
304.866
304.528
304.211
303.913
303.635
303.374
303.13
302.901
302.688
302.489
302.303
302.129
301.968
301.817
301.678
301.547
301.426
301.314
301.21
301.113
301.024
300.941
300.864
300.793
300.727
300.667
300.611
300.559
300.512
300.468
300.428
300.39
300.356
300.325
300.296
300.27
300.246
300.224
300.203
300.185
300.168
300.152
300.138
300.125
300.114
300.103
300.093
300.084
300.076
300.069
300.062
300.056
300.05
300.045
300.041
300.037
300.033
300.03
300.027
300.024
300.021
300.019
300.017
300.015
300.014
300.012
300.011
300.009
300.008
300.007
300.006
300.005
300.004
300.004
300.003
300.002
300.002
300.001
300
320.204
319.051
317.953
316.907
315.912
314.966
314.067
313.215
312.406
311.639
310.912
310.225
309.575
308.961
308.38
307.833
307.316
306.83
306.371
305.94
305.534
305.153
304.795
304.46
304.145
303.85
303.573
303.315
303.073
302.847
302.636
302.439
302.255
302.084
301.925
301.777
301.639
301.511
301.392
301.281
301.179
301.084
300.996
300.915
300.84
300.77
300.706
300.647
300.592
300.542
300.496
300.453
300.414
300.377
300.344
300.314
300.286
300.26
300.237
300.215
300.196
300.178
300.161
300.146
300.133
300.12
300.109
300.099
300.089
300.081
300.073
300.066
300.059
300.053
300.048
300.043
300.039
300.035
300.031
300.028
300.025
300.023
300.02
300.018
300.016
300.014
300.013
300.011
300.01
300.009
300.008
300.007
300.006
300.005
300.004
300.003
300.002
300.002
300.001
300
321.327
320.11
318.95
317.846
316.796
315.798
314.849
313.949
313.095
312.285
311.519
310.793
310.107
309.459
308.846
308.268
307.723
307.209
306.725
306.27
305.842
305.44
305.062
304.707
304.375
304.063
303.772
303.499
303.244
303.005
302.782
302.574
302.381
302.2
302.032
301.875
301.73
301.595
301.469
301.353
301.245
301.144
301.052
300.966
300.886
300.813
300.745
300.683
300.625
300.572
300.523
300.478
300.437
300.398
300.363
300.331
300.302
300.275
300.25
300.227
300.207
300.188
300.17
300.155
300.14
300.127
300.115
300.104
300.094
300.085
300.077
300.069
300.063
300.056
300.051
300.046
300.041
300.037
300.033
300.03
300.027
300.024
300.021
300.019
300.017
300.015
300.013
300.012
300.01
300.009
300.008
300.007
300.006
300.005
300.004
300.003
300.003
300.002
300.001
300
322.444
321.164
319.943
318.781
317.676
316.625
315.627
314.68
313.781
312.929
312.122
311.359
310.637
309.954
309.31
308.701
308.127
307.587
307.078
306.599
306.148
305.725
305.327
304.954
304.604
304.276
303.969
303.682
303.413
303.162
302.928
302.709
302.505
302.315
302.138
301.974
301.821
301.678
301.546
301.423
301.31
301.204
301.107
301.016
300.933
300.856
300.784
300.719
300.658
300.602
300.55
300.503
300.459
300.419
300.382
300.349
300.318
300.289
300.263
300.239
300.218
300.198
300.179
300.163
300.147
300.134
300.121
300.11
300.099
300.09
300.081
300.073
300.066
300.059
300.053
300.048
300.043
300.039
300.035
300.031
300.028
300.025
300.022
300.02
300.018
300.016
300.014
300.012
300.011
300.01
300.008
300.007
300.006
300.005
300.004
300.003
300.003
300.002
300.001
300
323.556
322.212
320.931
319.712
318.552
317.449
316.401
315.407
314.464
313.57
312.723
311.922
311.164
310.447
309.771
309.132
308.53
307.963
307.428
306.926
306.453
306.008
305.591
305.199
304.832
304.488
304.166
303.865
303.583
303.319
303.073
302.844
302.63
302.43
302.244
302.071
301.911
301.761
301.623
301.494
301.375
301.264
301.162
301.067
300.979
300.898
300.823
300.754
300.69
300.632
300.578
300.528
300.482
300.44
300.401
300.366
300.333
300.304
300.276
300.251
300.228
300.207
300.188
300.171
300.155
300.14
300.127
300.115
300.104
300.094
300.085
300.077
300.069
300.062
300.056
300.051
300.045
300.041
300.037
300.033
300.029
300.026
300.024
300.021
300.019
300.017
300.015
300.013
300.012
300.01
300.009
300.008
300.007
300.006
300.005
300.004
300.003
300.002
300.001
300
324.663
323.255
321.914
320.637
319.423
318.268
317.172
316.13
315.143
314.207
313.32
312.481
311.688
310.938
310.23
309.561
308.931
308.337
307.777
307.251
306.756
306.29
305.854
305.444
305.059
304.699
304.362
304.046
303.751
303.475
303.217
302.977
302.753
302.544
302.35
302.169
302
301.844
301.699
301.564
301.439
301.323
301.216
301.117
301.025
300.94
300.862
300.79
300.723
300.661
300.605
300.553
300.505
300.461
300.42
300.383
300.349
300.318
300.289
300.263
300.239
300.217
300.197
300.179
300.162
300.147
300.133
300.12
300.109
300.098
300.089
300.08
300.072
300.065
300.059
300.053
300.048
300.043
300.038
300.034
300.031
300.028
300.025
300.022
300.02
300.017
300.016
300.014
300.012
300.011
300.009
300.008
300.007
300.006
300.005
300.004
300.003
300.002
300.001
300
325.763
324.292
322.892
321.558
320.289
319.083
317.938
316.85
315.818
314.841
313.915
313.038
312.209
311.426
310.686
309.988
309.329
308.708
308.124
307.574
307.057
306.571
306.115
305.686
305.285
304.909
304.556
304.226
303.918
303.63
303.361
303.11
302.876
302.658
302.455
302.265
302.09
301.926
301.775
301.634
301.503
301.382
301.27
301.167
301.071
300.982
300.9
300.825
300.755
300.691
300.632
300.577
300.527
300.481
300.439
300.4
300.365
300.332
300.302
300.275
300.25
300.227
300.206
300.187
300.169
300.153
300.139
300.126
300.114
300.103
300.093
300.084
300.076
300.068
300.061
300.055
300.05
300.045
300.04
300.036
300.032
300.029
300.026
300.023
300.021
300.018
300.016
300.014
300.013
300.011
300.01
300.008
300.007
300.006
300.005
300.004
300.003
300.002
300.001
300
326.856
325.324
323.863
322.473
321.151
319.893
318.699
317.565
316.49
315.471
314.505
313.592
312.727
311.911
311.139
310.412
309.725
309.078
308.469
307.896
307.357
306.85
306.374
305.928
305.509
305.117
304.75
304.406
304.084
303.784
303.504
303.242
302.998
302.77
302.559
302.362
302.178
302.008
301.85
301.703
301.567
301.441
301.324
301.216
301.116
301.024
300.939
300.86
300.787
300.72
300.659
300.602
300.55
300.502
300.458
300.417
300.38
300.346
300.315
300.286
300.26
300.236
300.215
300.195
300.176
300.16
300.145
300.131
300.119
300.107
300.097
300.087
300.079
300.071
300.064
300.058
300.052
300.047
300.042
300.038
300.034
300.03
300.027
300.024
300.021
300.019
300.017
300.015
300.013
300.012
300.01
300.009
300.007
300.006
300.005
300.004
300.003
300.002
300.001
300
327.943
326.349
324.829
323.383
322.007
320.699
319.456
318.276
317.157
316.097
315.092
314.142
313.243
312.393
311.59
310.833
310.119
309.446
308.812
308.215
307.654
307.127
306.632
306.168
305.732
305.324
304.942
304.584
304.25
303.937
303.645
303.373
303.119
302.883
302.662
302.457
302.267
302.089
301.925
301.772
301.631
301.499
301.378
301.265
301.161
301.065
300.977
300.895
300.819
300.749
300.685
300.626
300.572
300.522
300.476
300.434
300.395
300.36
300.328
300.298
300.271
300.246
300.223
300.203
300.184
300.166
300.151
300.136
300.123
300.111
300.101
300.091
300.082
300.074
300.067
300.06
300.054
300.048
300.044
300.039
300.035
300.031
300.028
300.025
300.022
300.02
300.018
300.016
300.014
300.012
300.01
300.009
300.008
300.007
300.005
300.004
300.003
300.002
300.001
300
329.024
327.367
325.789
324.287
322.857
321.499
320.208
318.983
317.821
316.719
315.676
314.688
313.755
312.872
312.038
311.252
310.51
309.811
309.152
308.533
307.95
307.403
306.889
306.406
305.954
305.53
305.133
304.761
304.414
304.089
303.786
303.504
303.24
302.994
302.765
302.552
302.354
302.17
301.999
301.841
301.694
301.557
301.431
301.314
301.206
301.107
301.014
300.929
300.851
300.778
300.712
300.65
300.594
300.542
300.495
300.451
300.411
300.374
300.34
300.309
300.281
300.255
300.232
300.21
300.191
300.173
300.156
300.142
300.128
300.116
300.105
300.094
300.085
300.077
300.069
300.062
300.056
300.05
300.045
300.041
300.036
300.033
300.029
300.026
300.023
300.021
300.018
300.016
300.014
300.012
300.011
300.009
300.008
300.007
300.006
300.004
300.003
300.002
300.001
300
330.097
328.379
326.743
325.185
323.702
322.294
320.955
319.685
318.48
317.337
316.255
315.232
314.263
313.348
312.483
311.668
310.898
310.173
309.491
308.848
308.244
307.676
307.143
306.643
306.174
305.734
305.323
304.937
304.577
304.241
303.926
303.633
303.36
303.105
302.867
302.647
302.441
302.25
302.073
301.909
301.756
301.615
301.484
301.363
301.251
301.147
301.052
300.964
300.882
300.807
300.738
300.675
300.616
300.562
300.513
300.468
300.426
300.388
300.353
300.321
300.292
300.265
300.24
300.218
300.198
300.179
300.162
300.147
300.133
300.12
300.108
300.098
300.088
300.08
300.072
300.065
300.058
300.052
300.047
300.042
300.038
300.034
300.03
300.027
300.024
300.021
300.019
300.017
300.015
300.013
300.011
300.01
300.008
300.007
300.006
300.005
300.004
300.003
300.001
300
331.162
329.384
327.689
326.076
324.542
323.083
321.697
320.382
319.134
317.951
316.831
315.771
314.768
313.82
312.925
312.081
311.284
310.534
309.827
309.162
308.536
307.948
307.396
306.878
306.392
305.937
305.511
305.112
304.739
304.391
304.065
303.762
303.479
303.215
302.969
302.74
302.528
302.33
302.147
301.976
301.818
301.672
301.537
301.411
301.295
301.188
301.089
300.998
300.913
300.836
300.764
300.698
300.638
300.582
300.531
300.484
300.441
300.402
300.365
300.332
300.302
300.274
300.249
300.226
300.205
300.186
300.168
300.152
300.138
300.124
300.112
300.101
300.091
300.082
300.074
300.067
300.06
300.054
300.049
300.044
300.039
300.035
300.031
300.028
300.025
300.022
300.02
300.017
300.015
300.013
300.012
300.01
300.009
300.007
300.006
300.005
300.004
300.003
300.002
300.001
332.22
330.381
328.629
326.962
325.375
323.866
322.434
321.073
319.783
318.561
317.402
316.306
315.269
314.29
313.364
312.491
311.667
310.891
310.16
309.473
308.826
308.218
307.647
307.112
306.61
306.139
305.698
305.286
304.9
304.54
304.203
303.889
303.597
303.324
303.07
302.833
302.613
302.409
302.219
302.043
301.88
301.729
301.589
301.459
301.339
301.228
301.126
301.032
300.944
300.864
300.79
300.722
300.66
300.602
300.549
300.501
300.456
300.415
300.378
300.344
300.312
300.284
300.257
300.234
300.212
300.192
300.174
300.157
300.142
300.129
300.116
300.105
300.095
300.085
300.077
300.069
300.062
300.056
300.05
300.045
300.04
300.036
300.032
300.029
300.026
300.023
300.02
300.018
300.016
300.014
300.012
300.01
300.009
300.008
300.006
300.005
300.004
300.003
300.002
300.001
333.27
331.371
329.562
327.84
326.202
324.644
323.165
321.76
320.428
319.165
317.969
316.838
315.767
314.755
313.8
312.898
312.048
311.246
310.492
309.781
309.113
308.486
307.897
307.343
306.825
306.339
305.884
305.458
305.06
304.688
304.34
304.016
303.714
303.432
303.17
302.926
302.699
302.488
302.292
302.11
301.941
301.785
301.641
301.507
301.383
301.268
301.163
301.065
300.975
300.892
300.816
300.746
300.681
300.622
300.567
300.517
300.471
300.429
300.39
300.355
300.322
300.293
300.266
300.241
300.219
300.198
300.179
300.162
300.147
300.133
300.12
300.108
300.098
300.088
300.079
300.071
300.064
300.058
300.052
300.046
300.042
300.037
300.033
300.03
300.027
300.024
300.021
300.019
300.016
300.014
300.012
300.011
300.009
300.008
300.006
300.005
300.004
300.003
300.002
300.001
334.312
332.354
330.488
328.712
327.022
325.416
323.89
322.442
321.068
319.765
318.532
317.365
316.261
315.217
314.232
313.302
312.425
311.598
310.82
310.088
309.399
308.752
308.144
307.573
307.039
306.537
306.068
305.629
305.218
304.835
304.476
304.142
303.83
303.54
303.269
303.017
302.783
302.566
302.364
302.176
302.002
301.841
301.692
301.554
301.426
301.308
301.199
301.099
301.006
300.92
300.841
300.769
300.702
300.641
300.585
300.533
300.486
300.442
300.402
300.366
300.333
300.302
300.274
300.249
300.225
300.204
300.185
300.167
300.151
300.137
300.124
300.112
300.101
300.091
300.082
300.074
300.066
300.059
300.053
300.048
300.043
300.038
300.034
300.031
300.027
300.024
300.022
300.019
300.017
300.015
300.013
300.011
300.01
300.008
300.007
300.005
300.004
300.003
300.002
300.001
335.345
333.328
331.406
329.577
327.836
326.181
324.609
323.117
321.702
320.361
319.09
317.888
316.75
315.676
314.66
313.702
312.799
311.948
311.146
310.391
309.682
309.015
308.389
307.801
307.251
306.734
306.251
305.798
305.375
304.98
304.611
304.267
303.945
303.646
303.367
303.108
302.867
302.643
302.435
302.242
302.063
301.897
301.743
301.601
301.469
301.348
301.235
301.132
301.036
300.948
300.867
300.792
300.723
300.66
300.602
300.549
300.5
300.455
300.414
300.377
300.343
300.311
300.282
300.256
300.232
300.21
300.191
300.172
300.156
300.141
300.127
300.115
300.104
300.093
300.084
300.076
300.068
300.061
300.055
300.049
300.044
300.04
300.035
300.032
300.028
300.025
300.022
300.02
300.017
300.015
300.013
300.011
300.01
300.008
300.007
300.005
300.004
300.003
300.002
300.001
336.37
334.294
332.317
330.434
328.643
326.94
325.323
323.787
322.331
320.951
319.644
318.406
317.236
316.13
315.085
314.1
313.17
312.294
311.469
310.693
309.962
309.276
308.632
308.028
307.461
306.93
306.432
305.967
305.531
305.125
304.745
304.39
304.06
303.752
303.465
303.198
302.95
302.719
302.505
302.307
302.122
301.952
301.793
301.647
301.512
301.387
301.271
301.164
301.066
300.975
300.892
300.815
300.744
300.679
300.62
300.565
300.515
300.469
300.426
300.388
300.352
300.32
300.291
300.264
300.239
300.217
300.196
300.177
300.16
300.145
300.131
300.118
300.107
300.096
300.087
300.078
300.07
300.063
300.057
300.051
300.046
300.041
300.036
300.033
300.029
300.026
300.023
300.02
300.018
300.016
300.014
300.012
300.01
300.008
300.007
300.006
300.004
300.003
300.002
300.001
337.385
335.252
333.219
331.284
329.443
327.692
326.03
324.452
322.955
321.536
320.192
318.92
317.717
316.58
315.507
314.493
313.538
312.637
311.789
310.991
310.241
309.535
308.873
308.252
307.669
307.123
306.612
306.133
305.686
305.268
304.877
304.513
304.173
303.857
303.562
303.288
303.032
302.795
302.575
302.371
302.182
302.006
301.843
301.693
301.554
301.425
301.307
301.197
301.096
301.003
300.917
300.838
300.765
300.698
300.637
300.581
300.529
300.482
300.438
300.399
300.362
300.329
300.299
300.271
300.246
300.223
300.202
300.182
300.165
300.149
300.135
300.122
300.11
300.099
300.089
300.08
300.072
300.065
300.058
300.052
300.047
300.042
300.037
300.033
300.03
300.027
300.024
300.021
300.018
300.016
300.014
300.012
300.01
300.009
300.007
300.006
300.004
300.003
300.002
300.001
338.392
336.201
334.113
332.126
330.235
328.438
326.731
325.11
323.573
322.116
320.736
319.43
318.194
317.027
315.924
314.884
313.902
312.977
312.107
311.287
310.516
309.792
309.112
308.474
307.876
307.315
306.79
306.298
305.839
305.409
305.009
304.634
304.286
303.96
303.658
303.376
303.114
302.871
302.645
302.435
302.24
302.06
301.893
301.739
301.596
301.464
301.342
301.229
301.125
301.03
300.942
300.86
300.786
300.717
300.654
300.596
300.543
300.495
300.45
300.409
300.372
300.338
300.307
300.278
300.252
300.229
300.207
300.187
300.169
300.153
300.138
300.125
300.113
300.102
300.091
300.082
300.074
300.067
300.06
300.054
300.048
300.043
300.038
300.034
300.031
300.027
300.024
300.021
300.019
300.017
300.014
300.012
300.011
300.009
300.007
300.006
300.005
300.003
300.002
300.001
339.389
337.141
334.999
332.96
331.02
329.176
327.425
325.762
324.185
322.69
321.274
319.934
318.667
317.469
316.338
315.27
314.263
313.314
312.421
311.58
310.789
310.046
309.349
308.694
308.08
307.505
306.966
306.462
305.99
305.55
305.139
304.755
304.397
304.063
303.753
303.464
303.195
302.945
302.713
302.498
302.298
302.114
301.942
301.784
301.637
301.502
301.377
301.261
301.155
301.056
300.966
300.883
300.806
300.736
300.671
300.612
300.557
300.508
300.462
300.42
300.382
300.347
300.315
300.286
300.259
300.235
300.212
300.192
300.174
300.157
300.142
300.128
300.116
300.104
300.094
300.084
300.076
300.068
300.061
300.055
300.049
300.044
300.039
300.035
300.031
300.028
300.025
300.022
300.019
300.017
300.015
300.013
300.011
300.009
300.008
300.006
300.005
300.003
300.002
300.001
340.376
338.072
335.876
333.786
331.798
329.908
328.112
326.408
324.791
323.259
321.807
320.434
319.134
317.907
316.747
315.653
314.621
313.648
312.732
311.87
311.06
310.298
309.583
308.912
308.283
307.693
307.141
306.624
306.141
305.689
305.267
304.874
304.507
304.165
303.847
303.55
303.275
303.019
302.781
302.561
302.356
302.166
301.991
301.828
301.678
301.539
301.411
301.293
301.184
301.083
300.99
300.905
300.826
300.754
300.688
300.627
300.571
300.52
300.473
300.431
300.391
300.355
300.323
300.293
300.265
300.24
300.218
300.197
300.178
300.161
300.145
300.131
300.118
300.107
300.096
300.087
300.078
300.07
300.063
300.056
300.051
300.045
300.04
300.036
300.032
300.029
300.025
300.022
300.02
300.017
300.015
300.013
300.011
300.009
300.008
300.006
300.005
300.003
300.002
300.001
341.353
338.993
336.745
334.604
332.567
330.631
328.792
327.047
325.391
323.822
322.335
320.928
319.598
318.34