/*--------------------------------*- C++ -*----------------------------------*\
| =========                 |                                                 |
| \\      /  F ield         | OpenFOAM: The Open Source CFD Toolbox           |
|  \\    /   O peration     | Version:  2406                                  |
|   \\  /    A nd           | Website:  www.openfoam.com                      |
|    \\/     M anipulation  |                                                 |
\*---------------------------------------------------------------------------*/
FoamFile
{
    version     2.0;
    format      ascii;
    arch        "LSB;label=32;scalar=64";
    class       volScalarField;
    location    "55";
    object      gradTy;
}
// * * * * * * * * * * * * * * * * * * * * * * * * * * * * * * * * * * * * * //

dimensions      [0 -1 0 1 0 0 0];

internalField   nonuniform List<scalar> 
20000
(
356.586
341.518
326.898
312.722
298.992
285.701
272.847
260.429
248.438
236.868
225.713
214.968
204.625
194.676
185.112
175.925
167.106
158.646
150.536
142.766
135.328
128.211
121.406
114.904
108.695
102.77
97.1184
91.7317
86.6003
81.7152
77.0673
72.6477
68.4477
64.4586
60.6721
57.08
53.6743
50.4471
47.3907
44.4979
41.7613
39.174
36.7292
34.4203
32.241
30.1851
28.2466
26.42
24.6995
23.08
21.5564
20.1236
18.777
17.5122
16.3246
15.2103
14.1652
13.1855
12.2676
11.4081
10.6035
9.85086
9.14704
8.48924
7.87472
7.30089
6.7653
6.26562
5.79963
5.36523
4.96043
4.58333
4.23216
3.90521
3.60089
3.31768
3.05415
2.80894
2.58076
2.3684
2.17072
1.98663
1.8151
1.65516
1.50589
1.3664
1.23587
1.11352
0.998578
0.890338
0.788114
0.691246
0.599105
0.51108
0.426584
0.345043
0.265901
0.188613
0.112643
0.0374601
356.498
341.434
326.817
312.645
298.917
285.631
272.781
260.365
248.376
236.809
225.657
214.915
204.575
194.628
185.066
175.882
167.065
158.607
150.499
142.731
135.294
128.179
121.376
114.876
108.668
102.744
97.0945
91.7091
86.579
81.6951
77.0483
72.6298
68.4308
64.4427
60.6572
57.066
53.6611
50.4346
47.379
44.4869
41.751
39.1644
36.7201
34.4118
32.233
30.1776
28.2397
26.4134
24.6934
23.0743
21.551
20.1186
18.7724
17.5079
16.3206
15.2066
14.1617
13.1823
12.2646
11.4053
10.6009
9.84843
9.14479
8.48715
7.87278
7.29909
6.76364
6.26408
5.79821
5.36391
4.95921
4.5822
4.23112
3.90425
3.60001
3.31687
3.0534
2.80825
2.58012
2.36782
2.17019
1.98614
1.81466
1.65476
1.50552
1.36606
1.23557
1.11324
0.998332
0.89012
0.78792
0.691077
0.598958
0.510955
0.426479
0.344958
0.265836
0.188567
0.112615
0.037451
356.323
341.266
326.655
312.491
298.77
285.49
272.647
260.236
248.253
236.692
225.546
214.809
204.474
194.532
184.975
175.795
166.982
158.529
150.424
142.66
135.228
128.116
121.316
114.819
108.615
102.694
97.0466
91.6638
86.5363
81.6548
77.0103
72.594
68.397
64.4109
60.6273
57.0378
53.6346
50.4097
47.3557
44.465
41.7304
39.145
36.702
34.3948
32.2171
30.1627
28.2257
26.4004
24.6813
23.063
21.5404
20.1087
18.7632
17.4992
16.3126
15.1991
14.1547
13.1758
12.2586
11.3996
10.5957
9.84357
9.14028
8.48296
7.86889
7.29549
6.7603
6.26099
5.79535
5.36127
4.95676
4.57995
4.22903
3.90233
3.59823
3.31523
3.0519
2.80686
2.57885
2.36665
2.16912
1.98517
1.81376
1.65394
1.50477
1.36539
1.23496
1.11269
0.99784
0.889681
0.787532
0.690736
0.598663
0.510703
0.426269
0.344789
0.265705
0.188474
0.11256
0.0374326
356.058
341.014
326.414
312.26
298.549
285.278
272.445
260.043
248.069
236.516
225.379
214.65
204.323
194.388
184.838
175.665
166.859
158.411
150.313
142.555
135.127
128.021
121.227
114.734
108.534
102.618
96.9747
91.5959
86.4722
81.5943
76.9533
72.5402
68.3464
64.3632
60.5824
56.9956
53.5949
50.3724
47.3206
44.432
41.6995
39.116
36.6749
34.3694
32.1933
30.1404
28.2048
26.3809
24.663
23.0459
21.5245
20.0938
18.7493
17.4863
16.3005
15.1878
14.1443
13.166
12.2495
11.3912
10.5879
9.83629
9.13352
8.47668
7.86307
7.29009
6.7553
6.25636
5.79106
5.3573
4.95309
4.57656
4.2259
3.89944
3.59557
3.31278
3.04964
2.80479
2.57694
2.3649
2.16752
1.9837
1.81242
1.65272
1.50366
1.36438
1.23405
1.11187
0.997103
0.889024
0.78695
0.690226
0.598221
0.510327
0.425955
0.344534
0.265509
0.188335
0.112477
0.037405
355.706
340.676
326.091
311.951
298.254
284.996
272.175
259.786
247.824
236.283
225.156
214.438
204.121
194.196
184.656
175.491
166.694
158.255
150.164
142.414
134.994
127.895
121.107
114.621
108.427
102.516
96.8789
91.5055
86.3868
81.5137
76.8773
72.4686
68.2789
64.2997
60.5225
56.9393
53.5419
50.3227
47.2739
44.3882
41.6583
39.0774
36.6386
34.3354
32.1615
30.1106
28.177
26.3548
24.6386
23.0231
21.5032
20.074
18.7308
17.469
16.2844
15.1728
14.1303
13.153
12.2374
11.38
10.5774
9.82658
9.1245
8.46832
7.85531
7.2829
6.74863
6.25019
5.78534
5.35201
4.94821
4.57204
4.22173
3.89559
3.59202
3.30951
3.04663
2.80202
2.5744
2.36257
2.16538
1.98174
1.81064
1.65109
1.50218
1.36304
1.23283
1.11078
0.996121
0.888148
0.786175
0.689547
0.597632
0.509824
0.425535
0.344195
0.265248
0.18815
0.112366
0.0373682
355.266
340.255
325.689
311.566
297.885
284.644
271.838
259.465
247.517
235.991
224.878
214.174
203.869
193.956
184.428
175.275
166.488
158.059
149.979
142.238
134.827
127.737
120.957
114.479
108.293
102.39
96.7592
91.3924
86.2801
81.4131
76.7823
72.3791
68.1946
64.2203
60.4478
56.869
53.4758
50.2605
47.2155
44.3334
41.6069
39.0292
36.5934
34.2931
32.1218
30.0735
28.1422
26.3223
24.6082
22.9947
21.4767
20.0492
18.7076
17.4474
16.2643
15.1541
14.1129
13.1368
12.2223
11.3659
10.5643
9.81445
9.11324
8.45787
7.84562
7.27391
6.74031
6.24247
5.77821
5.34541
4.9421
4.5664
4.21652
3.89079
3.58759
3.30543
3.04287
2.79856
2.57123
2.35966
2.16271
1.9793
1.8084
1.64905
1.50033
1.36136
1.23131
1.10941
0.994893
0.887054
0.785207
0.688697
0.596896
0.509196
0.425011
0.343771
0.264921
0.187918
0.112228
0.0373221
354.74
339.75
325.205
311.103
297.443
284.221
271.435
259.08
247.15
235.641
224.545
213.856
203.567
193.669
184.154
175.015
166.241
157.825
149.756
142.027
134.627
127.547
120.778
114.309
108.133
102.238
96.6157
91.2568
86.1521
81.2923
76.6684
72.2717
68.0934
64.125
60.3581
56.7846
53.3965
50.186
47.1455
44.2676
41.5452
38.9713
36.5391
34.2422
32.0741
30.0289
28.1005
26.2832
24.5717
22.9606
21.4448
20.0195
18.6799
17.4216
16.2402
15.1316
14.0919
13.1173
12.2042
11.3491
10.5487
9.7999
9.09973
8.44533
7.83398
7.26313
6.73031
6.23322
5.76964
5.33748
4.93477
4.55963
4.21027
3.88502
3.58227
3.30053
3.03836
2.79441
2.56742
2.35616
2.1595
1.97636
1.80572
1.64661
1.4981
1.35934
1.22949
1.10777
0.99342
0.885741
0.784045
0.687678
0.596013
0.508443
0.424383
0.343263
0.26453
0.18764
0.112062
0.0372669
354.125
339.162
324.641
310.564
296.927
283.728
270.964
258.631
246.722
235.232
224.156
213.486
203.214
193.333
183.835
174.711
165.953
157.551
149.497
141.781
134.394
127.326
120.569
114.111
107.945
102.061
96.4483
91.0987
86.0028
81.1514
76.5356
72.1465
67.9754
64.0139
60.2535
56.6862
53.304
50.099
47.0638
44.1909
41.4732
38.9038
36.4758
34.1829
32.0186
29.9768
28.0518
26.2377
24.5291
22.9208
21.4077
19.9848
18.6475
17.3914
16.2121
15.1054
14.0675
13.0946
12.183
11.3294
10.5304
9.78293
9.08397
8.4307
7.82042
7.25055
6.71866
6.22242
5.75965
5.32824
4.92623
4.55174
4.20298
3.87829
3.57607
3.29482
3.0331
2.78958
2.56297
2.35208
2.15576
1.97294
1.8026
1.64376
1.49551
1.35699
1.22736
1.10585
0.991702
0.884209
0.782689
0.68649
0.594983
0.507564
0.423649
0.34267
0.264073
0.187316
0.111868
0.0372026
353.423
338.489
323.997
309.948
296.338
283.166
270.427
258.118
246.233
234.766
223.712
213.063
202.811
192.95
183.471
174.365
165.624
157.239
149.201
141.5
134.127
127.074
120.33
113.885
107.731
101.858
96.2571
90.9181
85.8323
80.9905
76.3839
72.0035
67.8407
63.887
60.1341
56.5739
53.1983
49.9997
46.9705
44.1033
41.391
38.8266
36.4035
34.1151
31.9551
29.9174
27.9962
26.1857
24.4805
22.8754
21.3652
19.9452
18.6106
17.3569
16.1799
15.0755
14.0396
13.0686
12.1589
11.3069
10.5095
9.76354
9.06597
8.41399
7.80492
7.23618
6.70534
6.21009
5.74823
5.31768
4.91647
4.54272
4.19466
3.87061
3.56899
3.28829
3.02709
2.78405
2.55789
2.34742
2.15149
1.96904
1.79903
1.6405
1.49255
1.3543
1.22493
1.10366
0.989739
0.88246
0.781141
0.685132
0.593806
0.506561
0.422812
0.341992
0.263551
0.186946
0.111647
0.0371291
352.633
337.732
323.273
309.255
295.676
282.533
269.823
257.541
245.683
234.242
223.212
212.587
202.358
192.519
183.061
173.976
165.254
156.888
148.867
141.184
133.828
126.79
120.061
113.631
107.491
101.631
96.0421
90.7151
85.6406
80.8096
76.2133
71.8426
67.6891
63.7443
59.9998
56.4475
53.0795
49.888
46.8656
44.0048
41.2985
38.7399
36.3222
34.0389
31.8837
29.8506
27.9337
26.1272
24.4259
22.8243
21.3175
19.9006
18.569
17.3182
16.1438
15.0418
14.0083
13.0395
12.1317
11.2817
10.4861
9.74173
9.04572
8.3952
7.78749
7.22002
6.69037
6.19623
5.7354
5.30581
4.90549
4.53257
4.18529
3.86197
3.56102
3.28095
3.02033
2.77783
2.55218
2.34218
2.14669
1.96464
1.79501
1.63684
1.48922
1.35128
1.2222
1.1012
0.987532
0.880492
0.779399
0.683604
0.592483
0.505432
0.42187
0.34123
0.262964
0.18653
0.111399
0.0370464
351.756
336.893
322.47
308.487
294.941
281.831
269.153
256.902
245.073
233.66
222.658
212.059
201.856
192.041
182.606
173.543
164.843
156.498
148.497
140.833
133.495
126.475
119.762
113.348
107.224
101.378
95.8034
90.4896
85.4278
80.6088
76.0239
71.6641
67.5209
63.5859
59.8507
56.3072
52.9476
49.764
46.7491
43.8954
41.1959
38.6436
36.2319
33.9543
31.8045
29.7764
27.8642
26.0623
24.3652
22.7676
21.2645
19.8512
18.5229
17.2751
16.1037
15.0044
13.9735
13.0071
12.1016
11.2537
10.46
9.71752
9.02324
8.37434
7.76814
7.20208
6.67374
6.18083
5.72115
5.29262
4.8933
4.52131
4.17489
3.85237
3.55217
3.27279
3.01283
2.77093
2.54584
2.33636
2.14136
1.95976
1.79055
1.63277
1.48552
1.34792
1.21916
1.09846
0.985079
0.878305
0.777464
0.681908
0.591012
0.504178
0.420823
0.340384
0.262311
0.186067
0.111122
0.0369545
350.793
335.97
321.587
307.642
294.134
281.06
268.416
256.198
244.402
233.021
222.048
211.478
201.303
191.515
182.106
173.068
164.392
156.069
148.091
140.447
133.13
126.129
119.434
113.038
106.93
101.101
95.5411
90.2419
85.1939
80.3881
75.8157
71.4679
67.336
63.4118
59.6868
56.153
52.8026
49.6278
46.6211
43.7752
41.0831
38.5378
36.1327
33.8613
31.7174
29.6949
27.7879
25.9909
24.2984
22.7052
21.2063
19.7968
18.4721
17.2278
16.0596
14.9633
13.9352
12.9714
12.0685
11.2228
10.4314
9.69092
8.99853
8.35141
7.74687
7.18236
6.65547
6.1639
5.70548
5.27813
4.8799
4.50893
4.16346
3.84182
3.54244
3.26383
3.00458
2.76334
2.53887
2.32996
2.13549
1.95439
1.78565
1.6283
1.48145
1.34423
1.21582
1.09545
0.982382
0.875901
0.775336
0.680041
0.589395
0.502798
0.419671
0.339453
0.261594
0.185558
0.110818
0.0368534
349.744
334.965
320.625
306.722
293.254
280.219
267.613
255.432
243.671
232.324
221.384
210.845
200.701
190.942
181.561
172.55
163.9
155.602
147.648
140.027
132.731
125.751
119.077
112.7
106.61
100.798
95.2552
89.9718
84.939
80.1476
75.5889
71.254
67.1346
63.222
59.5082
55.985
52.6446
49.4793
46.4816
43.6443
40.9602
38.4225
36.0246
33.76
31.6225
29.606
27.7048
25.9132
24.2257
22.6373
21.1429
19.7376
18.4169
17.1763
16.0115
14.9186
13.8935
12.9326
12.0323
11.1893
10.4002
9.66192
8.97161
8.32642
7.72368
7.16086
6.63555
6.14546
5.6884
5.26234
4.8653
4.49544
4.151
3.83032
3.53184
3.25406
2.99558
2.75507
2.53127
2.32299
2.1291
1.94854
1.7803
1.62343
1.47701
1.34021
1.21218
1.09217
0.979441
0.873278
0.773015
0.678005
0.587631
0.501293
0.418415
0.338437
0.260811
0.185003
0.110486
0.0367431
348.608
333.878
319.584
305.726
292.302
279.309
266.744
254.603
242.88
231.569
220.665
210.161
200.049
190.322
180.972
171.99
163.368
155.097
147.168
139.572
132.3
125.343
118.69
112.334
106.264
100.471
94.9459
89.6796
84.6631
79.8873
75.3434
71.0226
66.9165
63.0167
59.3149
55.8032
52.4736
49.3186
46.3306
43.5025
40.8271
38.2977
35.9076
33.6504
31.5198
29.5099
27.6148
25.829
24.147
22.5638
21.0742
19.6735
18.357
17.1205
15.9595
14.8701
13.8484
12.8906
11.9933
11.1529
10.3664
9.63053
8.94246
8.29937
7.69859
7.1376
6.614
6.12549
5.66993
5.24524
4.84949
4.48083
4.13751
3.81788
3.52037
3.24349
2.98585
2.74612
2.52305
2.31544
2.12218
1.94221
1.77452
1.61815
1.47221
1.33585
1.20824
1.08862
0.976257
0.87044
0.770502
0.675801
0.585721
0.499664
0.417055
0.337337
0.259963
0.184401
0.110127
0.0366236
347.386
332.708
318.464
304.655
291.278
278.331
265.81
253.711
242.029
230.758
219.892
209.424
199.348
189.655
180.337
171.387
162.795
154.553
146.652
139.083
131.837
124.903
118.274
111.94
105.891
100.119
94.613
89.3653
84.3663
79.6072
75.0792
70.7737
66.682
62.7958
59.107
55.6076
52.2897
49.1457
46.1682
43.35
40.684
38.1635
35.7817
33.5324
31.4093
29.4064
27.518
25.7384
24.0624
22.4847
21.0003
19.6045
18.2927
17.0604
15.9036
14.818
13.7998
12.8454
11.9512
11.1138
10.33
9.59677
8.91111
8.27027
7.6716
7.11258
6.59081
6.10402
5.65005
5.22685
4.83249
4.46512
4.12301
3.80449
3.50802
3.23212
2.97538
2.73649
2.5142
2.30732
2.11474
1.9354
1.76829
1.61248
1.46705
1.33116
1.20401
1.08481
0.972832
0.867386
0.767799
0.67343
0.583666
0.497911
0.415592
0.336153
0.259051
0.183754
0.109741
0.0364951
346.079
331.456
317.266
303.508
290.181
277.283
264.809
252.756
241.118
229.889
219.064
208.636
198.597
188.941
179.659
170.742
162.182
153.972
146.1
138.56
131.34
124.433
117.829
111.519
105.493
99.7418
94.2569
89.0289
84.0487
79.3076
74.7966
70.5072
66.4309
62.5594
58.8845
55.3982
52.0928
48.9607
45.9944
43.1868
40.5309
38.0198
35.647
33.4062
31.291
29.2957
27.4144
25.6415
23.9718
22.4
20.9212
19.5307
18.2238
16.9962
15.8437
14.7622
13.7479
12.7971
11.9062
11.072
10.2911
9.56063
8.87756
8.23913
7.64272
7.0858
6.56599
6.08104
5.62877
5.20717
4.81429
4.44831
4.10748
3.79017
3.49482
3.21995
2.96418
2.72619
2.50473
2.29864
2.10678
1.92811
1.76164
1.60641
1.46153
1.32615
1.19947
1.08072
0.969168
0.864119
0.764906
0.670893
0.581467
0.496035
0.414027
0.334887
0.258075
0.183062
0.109328
0.0363577
344.686
330.122
315.989
302.287
289.014
276.167
263.743
251.738
240.147
228.964
218.182
207.796
197.798
188.18
178.935
170.055
161.53
153.352
145.512
138.002
130.812
123.932
117.355
111.07
105.068
99.3403
93.8774
88.6705
83.7104
78.9883
74.4955
70.2234
66.1635
62.3076
58.6474
55.1752
51.8831
48.7636
45.8093
43.0129
40.3677
37.8667
35.5035
33.2717
31.1651
29.1778
27.304
25.5383
23.8753
22.3098
20.837
19.4521
18.1505
16.9278
15.7799
14.7028
13.6925
12.7455
11.8583
11.0274
10.2497
9.52215
8.84182
8.20597
7.61195
7.05727
6.53956
6.05655
5.60611
5.18621
4.79491
4.4304
4.09095
3.77491
3.48075
3.20699
2.95225
2.71522
2.49465
2.28938
2.0983
1.92035
1.75454
1.59994
1.45564
1.32081
1.19464
1.07637
0.965265
0.860639
0.761826
0.668192
0.579125
0.494037
0.412359
0.333538
0.257036
0.182325
0.108887
0.0362113
343.208
328.706
314.634
300.99
287.774
274.983
262.612
250.659
239.117
227.982
217.247
206.905
196.95
187.373
178.168
169.325
160.837
152.694
144.888
137.41
130.251
123.401
116.852
110.593
104.617
98.9142
93.4749
88.2902
83.3514
78.6496
74.176
69.9222
65.8798
62.0404
58.3959
54.9386
51.6606
48.5545
45.6128
42.8285
40.1946
37.7043
35.3513
33.129
31.0314
29.0526
27.1869
25.4288
23.7729
22.2142
20.7477
19.3687
18.0726
16.8552
15.7122
14.6397
13.6338
12.6909
11.8074
10.9801
10.2057
9.48131
8.8039
8.17077
7.57931
7.02701
6.51152
6.03058
5.58207
5.16397
4.77435
4.4114
4.0734
3.75872
3.46582
3.19324
2.93959
2.70357
2.48395
2.27956
2.0893
1.91212
1.74702
1.59308
1.4494
1.31515
1.18952
1.07175
0.961126
0.856948
0.758559
0.665326
0.576641
0.491919
0.410591
0.332108
0.255933
0.181543
0.10842
0.036056
341.646
327.209
313.201
299.62
286.464
273.731
261.416
249.517
238.028
226.944
216.257
205.963
196.053
186.52
177.357
168.554
160.105
151.999
144.228
136.784
129.657
122.839
116.319
110.09
104.141
98.4638
93.0492
87.8882
82.9718
78.2914
73.8383
69.6038
65.5798
61.7578
58.13
54.6884
51.4254
48.3334
45.4051
42.6335
40.0115
37.5327
35.1903
32.9781
30.8901
28.9203
27.0631
25.313
23.6647
22.113
20.6532
19.2805
17.9903
16.7785
15.6407
14.573
13.5717
12.6331
11.7537
10.9301
10.1593
9.43814
8.76382
8.13357
7.5448
6.99501
6.48187
6.00312
5.55666
5.14046
4.75261
4.39132
4.05486
3.74161
3.45004
3.1787
2.9262
2.69126
2.47265
2.26919
2.07979
1.90341
1.73907
1.58583
1.4428
1.30916
1.1841
1.06687
0.95675
0.853047
0.755105
0.662297
0.574016
0.489679
0.408721
0.330595
0.254768
0.180716
0.107927
0.0358918
339.998
325.632
311.691
298.175
285.083
272.411
260.156
248.315
236.881
225.85
215.215
204.97
195.108
185.621
176.502
167.742
159.333
151.266
143.533
136.125
129.032
122.247
115.759
109.559
103.639
97.9891
92.6006
87.4645
82.5718
77.914
73.4823
69.2683
65.2636
61.4601
57.8498
54.4248
51.1775
48.1004
45.1862
42.4279
39.8187
37.3517
35.0206
32.8192
30.7412
28.7809
26.9327
25.191
23.5506
22.0064
20.5536
19.1875
17.9036
16.6976
15.5653
14.5028
13.5063
12.5722
11.697
10.8774
10.1103
9.39264
8.72157
8.09436
7.50843
6.96129
6.45062
5.97419
5.52987
5.11568
4.7297
4.37015
4.03531
3.72357
3.43341
3.16338
2.9121
2.67829
2.46073
2.25825
2.06976
1.89424
1.73068
1.57818
1.43585
1.30285
1.1784
1.06173
0.952139
0.848935
0.751466
0.659105
0.571249
0.487319
0.406751
0.329002
0.25354
0.179845
0.107407
0.0357188
338.268
323.974
310.104
296.657
283.631
271.024
258.832
247.05
235.675
224.7
214.119
203.926
194.114
184.676
175.603
166.888
158.521
150.496
142.802
135.432
128.375
121.624
115.169
109.001
103.111
97.4903
92.1292
87.0192
82.1515
77.5173
73.1082
68.9156
64.9314
61.1472
57.5553
54.1477
50.9169
47.8555
44.9562
42.2119
39.6159
37.1616
34.8423
32.6521
30.5847
28.6344
26.7956
25.0627
23.4307
21.8944
20.449
19.0898
17.8125
16.6126
15.486
14.429
13.4375
12.5082
11.6375
10.822
10.0588
9.34483
8.67717
8.05316
7.47021
6.92586
6.41779
5.94378
5.50172
5.08964
4.70563
4.34791
4.01477
3.70462
3.41594
3.14727
2.89728
2.66466
2.4482
2.24676
2.05923
1.8846
1.72188
1.57015
1.42854
1.29622
1.1724
1.05633
0.947293
0.844615
0.747642
0.655751
0.568342
0.484839
0.404681
0.327328
0.25225
0.17893
0.10686
0.035537
336.453
322.236
308.441
295.066
282.11
269.57
257.443
245.725
234.411
223.495
212.971
202.833
193.073
183.685
174.661
165.993
157.671
149.689
142.036
134.705
127.687
120.972
114.552
108.417
102.558
96.9673
91.635
86.5524
81.7108
77.1015
72.7161
68.546
64.5831
60.8192
57.2466
53.8573
50.6438
47.5988
44.715
41.9855
39.4035
36.9622
34.6555
32.4769
30.4207
28.4808
26.6518
24.9283
23.305
21.777
20.3393
18.9874
17.7169
16.5235
15.403
14.3516
13.3655
12.4411
11.575
10.764
10.0049
9.29471
8.63064
8.00997
7.43014
6.88872
6.38337
5.9119
5.47222
5.06234
4.68039
4.32459
3.99324
3.68476
3.39762
3.1304
2.88174
2.65037
2.43507
2.23471
2.04819
1.87449
1.71264
1.56173
1.42088
1.28927
1.16611
1.05066
0.942214
0.840086
0.743633
0.652235
0.565295
0.482239
0.402511
0.325573
0.250897
0.177971
0.106287
0.0353465
334.556
320.419
306.702
293.402
280.519
268.05
255.992
244.339
233.089
222.234
211.77
201.689
191.984
182.65
173.676
165.056
156.782
148.844
141.235
133.946
126.967
120.29
113.906
107.805
101.98
96.4205
91.1183
86.0643
81.25
76.6667
72.306
68.1594
64.2189
60.4763
56.9237
53.5536
50.3582
47.3304
44.4629
41.7488
39.1813
36.7538
34.46
32.2938
30.2491
28.3202
26.5015
24.7877
23.1736
21.6542
20.2246
18.8804
17.617
16.4303
15.3161
14.2707
13.2901
12.371
11.5098
10.7033
9.94848
9.2423
8.58197
7.96481
7.38825
6.84987
6.34738
5.87857
5.44136
5.0338
4.654
4.30021
3.97073
3.66398
3.37846
3.11275
2.86549
2.63543
2.42135
2.22211
2.03664
1.86392
1.70299
1.55293
1.41287
1.282
1.15954
1.04474
0.936903
0.835351
0.739441
0.648558
0.562108
0.479521
0.400242
0.323737
0.249483
0.176967
0.105688
0.0351473
332.576
318.523
304.886
291.666
278.859
266.464
254.477
242.893
231.709
220.919
210.516
200.495
190.848
181.569
172.648
164.08
155.854
147.964
140.399
133.153
126.215
119.578
113.231
107.167
101.376
95.8499
90.579
85.555
80.7692
76.213
71.8781
67.7561
63.8388
60.1184
56.5869
53.2366
50.0602
47.0503
44.1998
41.5017
38.9494
36.5363
34.2561
32.1027
30.0701
28.1526
26.3447
24.641
23.0365
21.526
20.1049
18.7686
17.5128
16.3331
15.2255
14.1862
13.2115
12.2978
11.4417
10.64
9.88961
9.18761
8.53119
7.91768
7.34453
6.80934
6.30982
5.84378
5.40917
5.00401
4.62647
4.27476
3.94723
3.6423
3.35847
3.09433
2.84854
2.61983
2.40702
2.20896
2.02459
1.85289
1.69291
1.54374
1.40451
1.27442
1.15268
1.03856
0.93136
0.830408
0.735067
0.644721
0.558783
0.476684
0.397875
0.321822
0.248007
0.17592
0.105063
0.0349393
330.514
316.548
302.996
289.857
277.13
264.812
252.899
241.387
230.273
219.549
209.211
199.252
189.665
180.443
171.578
163.062
154.888
147.046
139.529
132.327
125.433
118.837
112.529
106.503
100.748
95.2556
90.0174
85.0246
80.2684
75.7405
71.4324
67.336
63.443
59.7456
56.236
52.9066
49.7498
46.7586
43.9257
41.2444
38.7079
36.3098
34.0437
31.9037
29.8837
27.9781
26.1814
24.4883
22.8936
21.3926
19.9803
18.6523
17.4042
16.2318
15.1311
14.0983
13.1296
12.2215
11.3707
10.574
9.8283
9.13065
8.4783
7.86859
7.299
6.76713
6.2707
5.80755
5.37563
4.97299
4.59779
4.24826
3.92276
3.61972
3.33765
3.07515
2.83088
2.6036
2.3921
2.19527
2.01204
1.84141
1.68242
1.53417
1.39581
1.26652
1.14553
1.03212
0.925587
0.825261
0.73051
0.640725
0.555319
0.473729
0.395409
0.319827
0.24647
0.17483
0.104411
0.0347228
328.37
314.495
301.031
287.978
275.333
263.094
251.259
239.822
228.779
218.125
207.854
197.96
188.435
179.273
170.465
162.005
153.883
146.093
138.624
131.469
124.619
118.066
111.8
105.812
100.094
94.6378
89.4336
84.4731
79.7478
75.2493
70.9692
66.8993
63.0316
59.3582
55.8713
52.5635
49.4272
46.4553
43.6409
40.9769
38.4569
36.0743
33.823
31.6968
29.6899
27.7966
26.0116
24.3295
22.7452
21.2538
19.8507
18.5313
17.2913
16.1265
15.033
14.0068
13.0444
12.1423
11.297
10.5054
9.76456
9.07144
8.42332
7.81756
7.25167
6.72325
6.23004
5.76989
5.34078
4.94075
4.56797
4.22071
3.89733
3.59625
3.31601
3.05521
2.81253
2.58671
2.37659
2.18103
1.99899
1.82947
1.67151
1.52422
1.38676
1.25831
1.13811
1.02543
0.919586
0.819911
0.725774
0.636571
0.551719
0.470658
0.392845
0.317754
0.244872
0.173697
0.103734
0.0344976
326.146
312.364
298.992
286.027
273.467
261.312
249.556
238.197
227.229
216.648
206.446
196.619
187.158
178.058
169.31
160.907
152.841
145.103
137.685
130.579
123.775
117.266
111.042
105.095
99.4164
93.9967
88.8278
83.9009
79.2076
74.7395
70.4884
66.4461
62.6046
58.9561
55.4928
52.2074
49.0924
46.1406
43.3452
40.6993
38.1964
35.8299
33.5938
31.482
29.4888
27.6083
25.8354
24.1647
22.5911
21.1098
19.7162
18.4058
17.1742
16.0173
14.9311
13.9119
12.9561
12.06
11.2205
10.4343
9.69842
9.00999
8.36626
7.76461
7.20254
6.6777
6.18784
5.73081
5.3046
4.90728
4.53703
4.19212
3.87093
3.57189
3.29355
3.03451
2.79347
2.56919
2.36049
2.16626
1.98545
1.81708
1.66019
1.5139
1.37736
1.24978
1.1304
1.01849
0.913357
0.814357
0.720858
0.632259
0.547982
0.46747
0.390184
0.315602
0.243213
0.17252
0.103032
0.034264
323.841
310.157
296.879
284.005
271.535
259.465
247.793
236.514
225.623
215.116
204.987
195.229
185.836
176.8
168.114
159.77
151.761
144.077
136.712
129.656
122.9
116.437
110.257
104.353
98.7137
93.3324
88.2
83.3079
78.6478
74.2113
69.9902
65.9765
62.1621
58.5394
55.1006
51.8384
48.7454
45.8145
43.0389
40.4117
37.9264
35.5767
33.3564
31.2595
29.2803
27.4132
25.6528
23.9939
22.4314
20.9607
19.5769
18.2757
17.0528
15.9041
14.8256
13.8136
12.8645
11.9748
11.1412
10.3605
9.62988
8.94632
8.30714
7.70974
7.15164
6.63051
6.14411
5.69031
5.26711
4.8726
4.50497
4.1625
3.84357
3.54665
3.27027
3.01307
2.77373
2.55104
2.34381
2.15095
1.97142
1.80424
1.64846
1.5032
1.36763
1.24095
1.12241
1.01129
0.906903
0.808603
0.715765
0.627792
0.54411
0.464167
0.387427
0.313372
0.241495
0.171301
0.102304
0.0340219
321.456
307.873
294.692
281.914
269.535
257.554
245.968
234.772
223.962
213.532
203.477
193.791
184.467
175.498
166.876
158.593
150.643
143.016
135.705
128.701
121.995
115.58
109.445
103.584
97.9868
92.6451
87.5504
82.6944
78.0686
73.6648
69.4748
65.4906
61.7043
58.1083
54.6948
51.4566
48.3864
45.4771
42.7219
40.1141
37.6471
35.3147
33.1108
31.0293
29.0647
27.2113
25.4639
23.8172
22.2662
20.8063
19.4327
18.1411
16.9272
15.787
14.7164
13.7119
12.7698
11.8866
11.0591
10.2842
9.55896
8.88044
8.24596
7.65296
7.09898
6.58169
6.09886
5.64841
5.22833
4.83672
4.47179
4.13185
3.81527
3.52053
3.24619
2.99088
2.75331
2.53225
2.32655
2.13511
1.95691
1.79095
1.63632
1.49213
1.35756
1.23181
1.11415
1.00384
0.900225
0.802649
0.710494
0.623169
0.540104
0.460749
0.384574
0.311064
0.239717
0.17004
0.101551
0.0337714
318.991
305.513
292.433
279.752
267.469
255.58
244.082
232.972
222.245
211.895
201.918
192.306
183.053
174.152
165.596
157.378
149.488
141.92
134.665
127.714
121.06
114.694
108.606
102.79
97.2356
91.9349
86.8793
82.0605
77.4701
73.1001
68.9422
64.9886
61.2313
57.6628
54.2756
51.0622
48.0155
45.1285
42.3944
39.8066
37.3585
35.044
32.8569
30.7915
28.8419
27.0028
25.2687
23.6346
22.0956
20.6468
19.2838
18.0021
16.7975
15.666
14.6036
13.6068
12.6719
11.7955
10.9744
10.2054
9.48569
8.81237
8.18276
7.5943
7.04456
6.53123
6.05211
5.60511
5.18825
4.79964
4.43752
4.10018
3.78602
3.49355
3.22131
2.96796
2.7322
2.51284
2.30872
2.11875
1.94191
1.77722
1.62378
1.48069
1.34715
1.22237
1.10561
0.996148
0.893325
0.796497
0.705049
0.618393
0.535964
0.457218
0.381627
0.30868
0.237879
0.168737
0.100772
0.0335125
316.448
303.077
290.102
277.522
265.337
253.542
242.136
231.115
220.473
210.206
200.308
190.773
181.594
172.764
164.276
156.123
148.296
140.789
133.591
126.696
120.095
113.779
107.741
101.971
96.4605
91.202
86.1867
81.4063
76.8526
72.5173
68.3926
64.4705
60.7432
57.2032
53.8429
50.6551
47.6327
44.7688
42.0565
39.4892
37.0607
34.7646
32.595
30.546
28.612
26.7875
25.0673
23.4462
21.9194
20.4822
19.13
17.8586
16.6636
15.5411
14.4872
13.4983
12.5709
11.7014
10.8869
10.1241
9.41007
8.74212
8.11753
7.53376
6.98841
6.47917
6.00387
5.56043
5.14689
4.76138
4.40214
4.06749
3.75584
3.4657
3.19563
2.9443
2.71043
2.49281
2.29031
2.10186
1.92643
1.76306
1.61083
1.46889
1.33642
1.21263
1.09679
0.988208
0.886205
0.790148
0.699429
0.613464
0.531692
0.453573
0.378585
0.30622
0.235983
0.167392
0.0999689
0.0332454
313.827
300.567
287.699
275.224
263.139
251.442
240.131
229.201
218.647
208.465
198.649
189.193
180.09
171.333
162.916
154.83
147.068
139.622
132.485
125.647
119.1
112.837
106.848
101.126
95.6615
90.4466
85.4728
80.732
76.216
71.9167
67.8261
63.9365
60.2401
56.7294
53.3969
50.2356
47.2382
44.398
41.7081
39.1622
36.7537
34.4767
32.325
30.293
28.375
26.5656
24.8596
23.252
21.7379
20.3126
18.9716
17.7106
16.5256
15.4124
14.3672
13.3865
12.4667
11.6045
10.7967
10.0402
9.33214
8.66971
8.05029
7.47136
6.93053
6.42551
5.95414
5.51438
5.10426
4.72195
4.36568
4.0338
3.72474
3.437
3.16917
2.91991
2.68798
2.47217
2.27135
2.08445
1.91047
1.74846
1.59749
1.45673
1.32535
1.20259
1.08771
0.980024
0.878866
0.783604
0.693636
0.608383
0.527289
0.449817
0.37545
0.303684
0.234029
0.166005
0.0991411
0.0329701
311.129
297.982
285.225
272.857
260.876
249.28
238.066
227.23
216.767
206.673
196.941
187.566
178.541
169.86
161.515
153.499
145.804
138.422
131.346
124.566
118.076
111.867
105.93
100.256
94.839
89.6689
84.7379
80.0379
75.5607
71.2983
67.2429
63.3867
59.7221
56.2416
52.9378
49.8036
46.832
44.0162
41.3495
38.8254
36.4377
34.1802
32.0471
30.0325
28.131
26.3372
24.6459
23.0521
21.551
20.1379
18.8085
17.5584
16.3835
15.2798
14.2437
13.2714
12.3595
11.5047
10.7039
9.95388
9.2519
8.59517
7.98108
7.40712
6.87094
6.37026
5.90295
5.46697
5.06038
4.68135
4.32815
3.99912
3.69271
3.40744
3.14192
2.89481
2.66487
2.45091
2.25182
2.06653
1.89405
1.73342
1.58376
1.4442
1.31395
1.19225
1.07836
0.971598
0.871309
0.776867
0.687673
0.603152
0.522755
0.44595
0.372222
0.301073
0.232017
0.164578
0.0982887
0.0326866
308.354
295.324
282.681
270.423
258.549
247.057
235.943
225.203
214.834
204.829
195.184
185.893
176.948
168.345
160.074
152.129
144.503
137.187
130.174
123.455
117.023
110.869
104.985
99.3621
93.993
88.869
83.982
79.3239
74.8867
70.6624
66.6431
62.8213
59.1894
55.7399
52.4656
49.3594
46.4143
43.6236
40.9807
38.4791
36.1127
33.8754
31.7612
29.7647
27.8801
26.1023
24.426
22.8465
21.3587
19.9583
18.6407
17.4018
16.2373
15.1436
14.1167
13.153
12.2493
11.4021
10.6084
9.86509
9.16937
8.5185
7.90989
7.34106
6.80965
6.31344
5.8503
5.4182
5.01524
4.6396
4.28954
3.96345
3.65978
3.37705
3.11389
2.86899
2.6411
2.42905
2.23173
2.0481
1.87716
1.71796
1.56963
1.43132
1.30223
1.18161
1.06874
0.962932
0.863538
0.769938
0.681539
0.597773
0.518093
0.441972
0.368902
0.298388
0.229948
0.16311
0.0974121
0.0323951
305.502
292.594
280.067
267.923
256.158
244.772
233.761
223.121
212.847
202.935
193.379
184.174
175.312
166.788
158.594
150.723
143.167
135.919
128.97
122.314
115.941
109.844
104.014
98.4433
93.1239
88.0473
83.2055
78.5904
74.1942
70.0089
66.0269
62.2404
58.6421
55.2245
51.9805
48.903
45.9851
43.2202
40.6017
38.1233
35.7788
33.5621
31.4676
29.4894
27.6223
25.8609
24.2002
22.6352
21.1612
19.7737
18.4683
17.2408
16.0872
15.0035
13.9861
13.0314
12.136
11.2967
10.5103
9.77388
9.08459
8.43974
7.83675
7.27318
6.74669
6.25506
5.7962
5.3681
4.96887
4.5967
4.24988
3.9268
3.62594
3.34583
3.0851
2.84246
2.61668
2.40659
2.2111
2.02916
1.8598
1.70208
1.55512
1.41809
1.29019
1.17069
1.05886
0.954029
0.855554
0.76282
0.675238
0.592246
0.513303
0.437886
0.365491
0.295629
0.227822
0.161602
0.0965114
0.0320956
302.576
289.79
277.384
265.356
253.704
242.427
231.521
220.983
210.808
200.991
191.527
182.409
173.633
165.19
157.075
149.279
141.795
134.617
127.735
121.142
114.83
108.791
103.017
97.5003
92.2317
87.2038
82.4084
77.8375
73.4834
69.3383
65.3944
61.6442
58.0803
54.6954
51.4825
48.4345
45.5446
42.8062
40.2128
37.7581
35.436
33.2406
31.1661
29.2069
27.3577
25.6132
23.9684
22.4184
20.9585
19.5843
18.2914
17.0757
15.9331
14.8598
13.8521
12.9066
12.0198
11.1885
10.4096
9.68025
8.99756
8.35889
7.76168
7.2035
6.68206
6.19514
5.74068
5.31668
4.92127
4.55266
4.20917
3.88919
3.5912
3.31378
3.05555
2.81523
2.59161
2.38354
2.18992
2.00972
1.84198
1.68577
1.54022
1.4045
1.27783
1.15947
1.04872
0.94489
0.847358
0.755512
0.66877
0.586573
0.508386
0.433691
0.36199
0.292797
0.225639
0.160054
0.0955869
0.0317881
299.574
286.916
274.633
262.724
251.188
240.023
229.225
218.791
208.717
198.997
189.627
180.6
171.91
163.552
155.517
147.798
140.389
133.281
126.468
119.94
113.691
107.712
101.996
96.5331
91.3169
86.3388
81.5909