/*--------------------------------*- C++ -*----------------------------------*\
| =========                 |                                                 |
| \\      /  F ield         | OpenFOAM: The Open Source CFD Toolbox           |
|  \\    /   O peration     | Version:  2406                                  |
|   \\  /    A nd           | Website:  www.openfoam.com                      |
|    \\/     M anipulation  |                                                 |
\*---------------------------------------------------------------------------*/
FoamFile
{
    version     2.0;
    format      ascii;
    arch        "LSB;label=32;scalar=64";
    class       volScalarField;
    location    "95";
    object      gradTy;
}
// * * * * * * * * * * * * * * * * * * * * * * * * * * * * * * * * * * * * * //

dimensions      [0 -1 0 1 0 0 0];

internalField   nonuniform List<scalar> 
20000
(
319.45
316.578
313.325
309.724
305.805
301.599
297.131
292.43
287.522
282.428
277.172
271.777
266.262
260.646
254.946
249.179
243.363
237.511
231.638
225.755
219.876
214.011
208.17
202.364
196.601
190.89
185.237
179.65
174.135
168.697
163.341
158.072
152.893
147.809
142.822
137.934
133.149
128.468
123.892
119.423
115.062
110.809
106.664
102.627
98.6989
94.8784
91.1652
87.5584
84.057
80.6599
77.3659
74.1735
71.0812
68.0874
65.1903
62.3881
59.679
57.0609
54.5319
52.0897
49.7324
47.4578
45.2636
43.1476
41.1076
39.1413
37.2465
35.4208
33.662
31.9678
30.3359
28.764
27.2499
25.7914
24.3861
23.0318
21.7264
20.4677
19.2534
18.0815
16.9497
15.856
14.7982
13.7743
12.7823
11.8201
10.8856
9.97691
9.092
8.22891
7.38568
6.56038
5.75108
4.95588
4.17287
3.40015
2.63585
1.87808
1.12498
0.374684
319.371
316.501
313.248
309.648
305.73
301.524
297.058
292.358
287.451
282.358
277.104
271.711
266.197
260.581
254.883
249.118
243.303
237.453
231.581
225.7
219.821
213.958
208.119
202.314
196.553
190.843
185.192
179.606
174.092
168.655
163.3
158.033
152.855
147.772
142.786
137.9
133.116
128.436
123.862
119.394
115.034
110.781
106.637
102.602
98.6746
94.855
91.1427
87.5368
84.0362
80.64
77.3468
74.1552
71.0636
68.0706
65.1742
62.3727
59.6643
57.0468
54.5184
52.0769
49.7202
47.4461
45.2524
43.137
41.0975
39.1317
37.2373
35.4121
33.6537
31.9599
30.3284
28.7569
27.2432
25.785
24.3801
23.0262
21.7211
20.4626
19.2487
18.077
16.9455
15.852
14.7946
13.7709
12.7792
11.8172
10.8829
9.97445
9.08976
8.22688
7.38386
6.55876
5.74967
4.95466
4.17184
3.39931
2.6352
1.87762
1.12471
0.374592
319.213
316.344
313.094
309.495
305.579
301.375
296.911
292.214
287.309
282.219
276.968
271.577
266.065
260.452
254.757
248.995
243.183
237.336
231.466
225.588
219.713
213.852
208.016
202.214
196.456
190.749
185.1
179.517
174.006
168.572
163.22
157.955
152.78
147.699
142.716
137.832
133.051
128.373
123.801
119.335
114.977
110.727
106.585
102.551
98.6259
94.8082
91.0977
87.4935
83.9948
80.6002
77.3086
74.1186
71.0286
68.037
65.142
62.3419
59.6348
57.0187
54.4915
52.0512
49.6956
47.4227
45.2301
43.1157
41.0772
39.1124
37.2189
35.3946
33.6371
31.9441
30.3134
28.7427
27.2298
25.7723
24.368
23.0148
21.7104
20.4525
19.2392
18.0681
16.9371
15.8442
14.7873
13.7641
12.7729
11.8113
10.8775
9.96953
9.08527
8.22282
7.38021
6.55552
5.74683
4.95221
4.16978
3.39763
2.6339
1.87669
1.12415
0.374407
318.976
316.109
312.862
309.266
305.353
301.152
296.691
291.998
287.096
282.01
276.763
271.375
265.868
260.26
254.568
248.811
243.003
237.16
231.295
225.421
219.55
213.694
207.862
202.065
196.31
190.607
184.963
179.384
173.877
168.447
163.099
157.838
152.667
147.59
142.61
137.73
132.952
128.278
123.709
119.247
114.892
110.645
106.506
102.475
98.5528
94.738
91.0303
87.4288
83.9326
80.5405
77.2513
74.0637
70.976
67.9866
65.0938
62.2958
59.5907
56.9765
54.4511
52.0126
49.6588
47.3875
45.1966
43.0838
41.0468
39.0834
37.1914
35.3684
33.6122
31.9205
30.291
28.7215
27.2096
25.7532
24.35
22.9977
21.6943
20.4374
19.2249
18.0547
16.9246
15.8325
14.7763
13.754
12.7634
11.8026
10.8695
9.96214
9.07854
8.21673
7.37475
6.55067
5.74257
4.94855
4.16669
3.39512
2.63195
1.8753
1.12332
0.37413
318.662
315.797
312.553
308.96
305.051
300.854
296.398
291.709
286.812
281.732
276.489
271.107
265.605
260.002
254.317
248.565
242.763
236.926
231.066
225.198
219.333
213.483
207.657
201.865
196.116
190.419
184.781
179.207
173.705
168.281
162.938
157.682
152.516
147.444
142.469
137.594
132.821
128.151
123.587
119.129
114.778
110.535
106.401
102.374
98.4555
94.6444
90.9403
87.3424
83.8496
80.4609
77.175
73.9905
70.9059
67.9194
65.0295
62.2342
59.5318
56.9202
54.3974
51.9613
49.6098
47.3407
45.152
43.0412
41.0062
39.0448
37.1546
35.3334
33.579
31.8889
30.2611
28.6931
27.1827
25.7278
24.3259
22.975
21.6729
20.4172
19.2059
18.0369
16.9079
15.8169
14.7617
13.7404
12.7508
11.7909
10.8588
9.9523
9.06958
8.20861
7.36746
6.5442
5.7369
4.94366
4.16257
3.39176
2.62935
1.87345
1.12221
0.37376
318.269
315.407
312.166
308.578
304.674
300.483
296.032
291.349
286.458
281.384
276.148
270.772
265.277
259.681
254.003
248.258
242.463
236.633
230.781
224.92
219.062
213.219
207.4
201.616
195.874
190.184
184.552
178.986
173.491
168.073
162.737
157.487
152.327
147.262
142.293
137.424
132.657
127.993
123.434
118.982
114.636
110.399
106.269
102.248
98.3338
94.5275
90.828
87.2345
83.746
80.3615
77.0797
73.8991
70.8182
67.8355
64.9491
62.1574
59.4582
56.8498
54.3301
51.8971
49.5485
47.2822
45.0962
42.988
40.9556
38.9966
37.1087
35.2898
33.5375
31.8495
30.2237
28.6576
27.1491
25.696
24.2959
22.9466
21.6461
20.392
19.1822
18.0146
16.887
15.7973
14.7435
13.7234
12.735
11.7764
10.8453
9.94001
9.05837
8.19847
7.35836
6.53612
5.72981
4.93755
4.15743
3.38757
2.6261
1.87114
1.12082
0.373298
317.797
314.939
311.703
308.121
304.222
300.037
295.593
290.917
286.033
280.966
275.738
270.37
264.884
259.296
253.626
247.89
242.103
236.282
230.438
224.586
218.737
212.902
207.092
201.316
195.584
189.902
184.278
178.72
173.233
167.823
162.495
157.253
152.101
147.043
142.082
137.22
132.46
127.803
123.251
118.805
114.466
110.235
106.111
102.096
98.1879
94.3872
90.6932
87.105
83.6218
80.2423
76.9653
73.7894
70.7132
67.7348
64.8528
62.0651
59.37
56.7655
54.2495
51.8201
49.475
47.2121
45.0293
42.9242
40.8948
38.9387
37.0537
35.2374
33.4877
31.8023
30.1788
28.6151
27.1089
25.6578
24.2598
22.9126
21.614
20.3617
19.1537
17.9878
16.8619
15.7739
14.7216
13.703
12.7161
11.7589
10.8293
9.92526
9.04493
8.18631
7.34745
6.52642
5.72131
4.93023
4.15126
3.38255
2.6222
1.86836
1.11916
0.372744
317.246
314.393
311.163
307.587
303.695
299.517
295.081
290.412
285.537
280.479
275.26
269.902
264.425
258.847
253.186
247.46
241.684
235.872
230.039
224.197
218.358
212.534
206.734
200.968
195.245
189.573
183.959
178.411
172.933
167.533
162.214
156.981
151.838
146.789
141.836
136.982
132.23
127.582
123.037
118.599
114.268
110.044
105.928
101.919
98.0178
94.2237
90.5361
86.9541
83.4769
80.1033
76.832
73.6616
70.5906
67.6175
64.7404
61.9576
59.2671
56.6671
54.1555
51.7303
49.3892
47.1303
44.9512
42.8499
40.8239
38.8712
36.9895
35.1764
33.4297
31.7472
30.1265
28.5655
27.0619
25.6134
24.2178
22.8729
21.5765
20.3264
19.1206
17.9567
16.8327
15.7465
14.6961
13.6793
12.6941
11.7385
10.8105
9.90806
9.02926
8.17212
7.33472
6.51511
5.7114
4.92168
4.14407
3.37669
2.61766
1.86512
1.11722
0.372099
316.617
313.77
310.546
306.977
303.093
298.923
294.496
289.837
284.971
279.923
274.715
269.367
263.9
258.334
252.684
246.97
241.205
235.405
229.583
223.753
217.925
212.112
206.324
200.569
194.858
189.197
183.595
178.057
172.59
167.201
161.892
156.67
151.537
146.498
141.555
136.711
131.968
127.329
122.794
118.364
114.041
109.826
105.718
101.717
97.8235
94.0369
90.3566
86.7817
83.3114
79.9444
76.6796
73.5156
70.4507
67.4834
64.6121
61.8348
59.1496
56.5548
54.0482
51.6277
49.2913
47.0369
44.8621
42.7649
40.743
38.7942
36.9161
35.1066
33.3634
31.6842
30.0668
28.5089
27.0082
25.5626
24.1698
22.8276
21.5337
20.2862
19.0826
17.9211
16.7993
15.7153
14.667
13.6522
12.6689
11.7152
10.7891
9.88842
9.01136
8.15592
7.32018
6.5022
5.70008
4.91193
4.13586
3.36999
2.61247
1.86143
1.11501
0.371361
315.91
313.07
309.853
306.291
302.416
298.256
293.838
289.189
284.335
279.298
274.101
268.765
263.311
257.757
252.12
246.418
240.666
234.879
229.07
223.253
217.439
211.639
205.863
200.121
194.423
188.774
183.185
177.659
172.205
166.827
161.531
156.32
151.198
146.17
141.239
136.406
131.673
127.044
122.519
118.1
113.787
109.581
105.482
101.49
97.605
93.8269
90.1548
86.5879
83.1253
79.7659
76.5084
73.3514
70.2934
67.3327
64.4678
61.6967
59.0176
56.4285
53.9275
51.5124
49.1813
46.9318
44.7619
42.6694
40.652
38.7075
36.8337
35.0282
33.2889
31.6135
29.9997
28.4452
26.9479
25.5055
24.1158
22.7766
21.4857
20.2409
19.04
17.8811
16.7618
15.6802
14.6342
13.6217
12.6407
11.6891
10.765
9.86634
8.99124
8.13771
7.30383
6.48768
5.68735
4.90096
4.12662
3.36247
2.60664
1.85727
1.11252
0.370532
315.125
312.292
309.083
305.53
301.665
297.515
293.108
288.471
283.628
278.604
273.42
268.098
262.657
257.116
251.494
245.806
240.068
234.295
228.501
222.698
216.898
211.113
205.351
199.624
193.939
188.305
182.729
177.218
171.777
166.413
161.129
155.931
150.823
145.807
140.888
136.067
131.346
126.729
122.215
117.806
113.504
109.308
105.219
101.238
97.3625
93.5937
89.9308
86.3728
82.9188
79.5677
76.3183
73.1691
70.1187
67.1654
64.3076
61.5434
58.8709
56.2883
53.7935
51.3844
49.059
46.8152
44.6507
42.5634
40.551
38.6113
36.7422
34.9412
33.2062
31.5349
29.9251
28.3746
26.881
25.4422
24.0559
22.72
21.4323
20.1906
18.9927
17.8366
16.7202
15.6413
14.5978
13.5878
12.6092
11.66
10.7382
9.84183
8.9689
8.11749
7.28568
6.47156
5.67322
4.88878
4.11637
3.35411
2.60016
1.85266
1.10975
0.369611
314.262
311.437
308.237
304.694
300.839
296.7
292.306
287.681
282.852
277.841
272.671
267.364
261.938
256.412
250.805
245.133
239.411
233.654
227.876
222.088
216.305
210.535
204.789
199.078
193.409
187.79
182.229
176.733
171.307
165.957
160.688
155.504
150.41
145.408
140.502
135.694
130.987
126.382
121.88
117.484
113.193
109.009
104.931
100.96
97.0959
93.3375
89.6845
86.1363
82.6918
79.3499
76.1093
72.9688
69.9267
66.9815
64.1315
61.3749
58.7097
56.1342
53.6462
51.2437
48.9247
46.687
44.5285
42.4469
40.44
38.5056
36.6416
34.8455
33.1153
31.4486
29.8432
28.2969
26.8074
25.3725
23.99
22.6578
21.3736
20.1353
18.9407
17.7878
16.6744
15.5984
14.5579
13.5506
12.5747
11.6281
10.7088
9.81488
8.94434
8.09527
7.26574
6.45384
5.65769
4.8754
4.1051
3.34493
2.59304
1.84758
1.10672
0.368599
313.322
310.505
307.314
303.782
299.939
295.812
291.431
286.82
282.006
277.01
271.856
266.564
261.154
255.645
250.055
244.399
238.694
232.955
227.194
221.424
215.657
209.905
204.177
198.482
192.83
187.228
181.684
176.204
170.794
165.46
160.207
155.039
149.96
144.973
140.082
135.288
130.595
126.003
121.516
117.132
112.855
108.683
104.617
100.658
96.8054
93.0582
89.4162
85.8786
82.4443
79.1124
75.8816
72.7505
69.7175
66.7811
63.9396
61.1912
58.5341
55.9662
53.4857
51.0904
48.7783
46.5473
44.3952
42.3198
40.319
38.3904
36.5319
34.7413
33.0162
31.3545
29.7539
28.2122
26.7272
25.2966
23.9183
22.59
21.3096
20.075
18.8841
17.7346
16.6245
15.5518
14.5143
13.5101
12.5371
11.5933
10.6768
9.78552
8.91758
8.07105
7.244
6.43453
5.64076
4.86081
4.09282
3.33492
2.58528
1.84206
1.1034
0.367497
312.304
309.496
306.316
302.796
298.964
294.852
290.484
285.889
281.09
276.11
270.973
265.698
260.306
254.815
249.243
243.605
237.919
232.198
226.456
220.705
214.957
209.223
203.513
197.837
192.204
186.62
181.094
175.632
170.24
164.923
159.687
154.535
149.473
144.502
139.627
134.849
130.171
125.594
121.121
116.752
112.488
108.33
104.278
100.331
96.491
92.756
89.1258
85.5996
82.1766
78.8555
75.6352
72.5142
69.4911
66.5642
63.732
60.9925
58.344
55.7845
53.312
50.9245
48.6199
46.3962
44.251
42.1824
40.188
38.2657
36.4133
34.6285
32.909
31.2527
29.6573
28.1206
26.6404
25.2144
23.8406
22.5166
21.2404
20.0098
18.8227
17.677
16.5705
15.5013
14.4672
13.4662
12.4964
11.5557
10.6421
9.75374
8.88862
8.04484
7.22047
6.41363
5.62244
4.84503
4.07953
3.32409
2.57689
1.83607
1.09982
0.366303
311.209
308.411
305.243
301.734
297.917
293.818
289.466
284.887
280.105
275.143
270.023
264.767
259.393
253.922
248.369
242.752
237.085
231.384
225.662
219.931
214.204
208.49
202.8
197.144
191.53
185.966
180.459
175.016
169.643
164.345
159.127
153.994
148.949
143.996
139.137
134.376
129.714
125.154
120.696
116.343
112.094
107.95
103.912
99.9797
96.1528
92.4309
88.8134
85.2996
81.8885
78.5791
75.3701
72.26
69.2475
66.3309
63.5086
60.7787
58.1395
55.5889
53.1251
50.746
48.4495
46.2335
44.0959
42.0346
40.0472
38.1316
36.2857
34.5071
32.7936
31.1431
29.5533
28.022
26.547
25.1261
23.757
22.4377
21.166
19.9397
18.7568
17.615
16.5124
15.4469
14.4165
13.419
12.4526
11.5152
10.6048
9.71955
8.85747
8.01664
7.19516
6.39115
5.60274
4.82804
4.06523
3.31244
2.56786
1.82964
1.09597
0.365019
310.038
307.251
304.094
300.599
296.795
292.712
288.377
283.814
279.05
274.107
269.006
263.77
258.417
252.966
247.434
241.838
236.193
230.513
224.813
219.103
213.397
207.705
202.037
196.402
190.809
185.266
179.78
174.357
169.004
163.726
158.528
153.414
148.388
143.454
138.613
133.87
129.226
124.683
120.242
115.905
111.672
107.544
103.521
99.6034
95.7908
92.0829
88.4791
84.9785
81.5803
78.2833
75.0864
71.988
68.9868
66.0812
63.2695
60.5499
57.9206
55.3797
52.9251
50.555
48.2671
46.0595
43.93
41.8763
39.8964
37.9881
36.1491
34.3772
32.6702
31.0259
29.4421
27.9165
26.4471
25.0315
23.6676
22.3533
21.0863
19.8647
18.6862
17.5487
16.4503
15.3888
14.3622
13.3685
12.4057
11.4718
10.5649
9.68297
8.82413
7.98647
7.16808
6.3671
5.58165
4.80987
4.04993
3.29998
2.55819
1.82275
1.09184
0.363645
308.79
306.014
302.87
299.389
295.601
291.534
287.216
282.672
277.927
273.004
267.924
262.708
257.377
251.948
246.438
240.864
235.242
229.586
223.908
218.222
212.538
206.869
201.224
195.611
190.041
184.52
179.056
173.656
168.324
163.067
157.89
152.797
147.791
142.876
138.055
133.331
128.706
124.181
119.758
115.438
111.222
107.111
103.104
99.2025
95.4053
91.7123
88.123
84.6365
81.2519
77.9682
74.7841
71.6983
68.7092
65.8152
63.0149
60.3062
57.6875
55.1568
52.7121
50.3515
48.0729
45.8741
43.7531
41.7078
39.7359
37.8352
36.0036
34.2388
32.5387
30.901
29.3236
27.8042
26.3406
24.9307
23.5723
22.2633
21.0014
19.7847
18.6109
17.4781
16.3841
15.3269
14.3044
13.3147
12.3558
11.4257
10.5224
9.64399
8.78861
7.95432
7.13923
6.34147
5.55918
4.79051
4.03363
3.28669
2.54789
1.81542
1.08745
0.362182
307.466
304.702
301.571
298.105
294.333
290.284
285.984
281.46
276.735
271.833
266.775
261.582
256.273
250.867
245.381
239.832
234.233
228.601
222.948
217.286
211.627
205.982
200.361
194.773
189.226
183.729
178.288
172.911
167.602
162.368
157.213
152.141
147.157
142.264
137.463
132.76
128.154
123.649
119.245
114.943
110.745
106.652
102.662
98.7771
94.9961
91.319
87.7451
84.2735
80.9035
77.6339
74.4634
71.3908
68.4145
65.533
62.7446
60.0476
57.4401
54.9203
52.4861
50.1356
47.8667
45.6774
43.5655
41.5289
39.5655
37.6729
35.8492
34.092
32.3992
30.7685
29.1978
27.685
26.2277
24.8238
23.4712
22.1678
20.9114
19.6999
18.5311
17.4031
16.3138
15.2611
14.2431
13.2576
12.3028
11.3767
10.4772
9.60264
8.75093
7.92021
7.10862
6.31428
5.53534
4.76997
4.01633
3.2726
2.53697
1.80763
1.08278
0.360629
306.066
303.314
300.198
296.747
292.993
288.962
284.682
280.178
275.475
270.595
265.56
260.391
255.106
249.725
244.264
238.74
233.167
227.56
221.933
216.296
210.663
205.044
199.448
193.886
188.364
182.892
177.477
172.124
166.839
161.629
156.497
151.449
146.487
141.616
136.838
132.155
127.57
123.085
118.702
114.42
110.241
106.166
102.195
98.3273
94.5636
90.9032
87.3455
83.8898
80.5351
77.2804
74.1244
71.0657
68.103
65.2346
62.4589
59.7742
57.1786
54.6702
52.2471
49.9073
47.6488
45.4694
43.3672
41.3398
39.3853
37.5014
35.686
33.9368
32.2517
30.6284
29.0649
27.5589
26.1082
24.7108
23.3644
22.0669
20.8162
19.6102
18.4468
17.3239
16.2395
15.1917
14.1782
13.1973
12.2468
11.3249
10.4295
9.55892
8.71108
7.88415
7.07625
6.28553
5.51014
4.74825
3.99804
3.2577
2.52542
1.7994
1.07785
0.358987
304.59
301.852
298.751
295.317
291.58
287.569
283.31
278.828
274.147
269.291
264.28
259.135
253.876
248.521
243.086
237.589
232.043
226.463
220.863
215.254
209.648
204.056
198.487
192.951
187.456
182.011
176.621
171.294
166.035
160.85
155.743
150.719
145.781
140.933
136.178
131.518
126.955
122.492
118.129
113.868
109.71
105.654
101.702
97.8533
94.1077
90.465
86.9245
83.4854
80.1469
76.9078
73.767
70.7231
67.7747
64.9201
62.1578
59.486
56.9029
54.4066
51.9952
49.6667
47.4191
45.2502
43.1581
41.1405
39.1954
37.3206
35.5139
33.7732
32.0962
30.4808
28.9248
27.426
25.9824
24.5917
23.2517
21.9605
20.7158
19.5156
18.3578
17.2404
16.1613
15.1184
14.1099
13.1336
12.1877
11.2703
10.3793
9.51284
8.66909
7.84614
7.04214
6.25523
5.48358
4.72536
3.97877
3.242
2.51324
1.79073
1.07266
0.357256
303.04
300.315
297.23
293.813
290.096
286.105
281.867
277.408
272.751
267.92
262.934
257.816
252.584
247.256
241.849
236.379
230.862
225.31
219.738
214.158
208.58
203.017
197.476
191.969
186.502
181.084
175.722
170.422
165.19
160.031
154.95
149.951
145.039
140.216
135.485
130.848
126.309
121.869
117.528
113.289
109.151
105.116
101.184
97.3551
93.6286
90.0044
86.4819
83.0604
79.7389
76.5163
73.3915
70.3631
67.4297
64.5896
61.8414
59.1832
56.6132
54.1296
51.7305
49.4139
47.1777
45.0199
42.9384
40.9311
38.9959
37.1306
35.3331
33.6012
31.9328
30.3256
28.7775
27.2864
25.8501
24.4665
23.1334
21.8487
20.6104
19.4163
18.2644
17.1526
16.079
15.0415
14.038
13.0668
12.1257
11.2129
10.3264
9.46441
8.62496
7.8062
7.00629
6.22339
5.45566
4.70131
3.95852
3.22549
2.50045
1.78161
1.0672
0.355437
301.414
298.705
295.635
292.237
288.54
284.57
280.356
275.92
271.288
266.483
261.524
256.433
251.229
245.93
240.552
235.111
229.623
224.102
218.56
213.009
207.462
201.928
196.417
190.939
185.502
180.113
174.779
169.508
164.304
159.172
154.119
149.147
144.261
139.463
134.758
130.147
125.632
121.215
116.898
112.681
108.566
104.552
100.642
96.8329
93.1264
89.5217
86.0181
82.6149
79.3112
76.1059
72.9978
69.9857
67.068
64.2432
61.5097
58.8657
56.3096
53.8393
51.453
49.1488
46.9246
44.7784
42.7081
40.7116
38.7867
36.9315
35.1436
33.421
31.7615
30.1629
28.6232
27.1401
25.7115
24.3352
23.0093
21.7315
20.4998
19.3121
18.1664
17.0606
15.9927
14.9608
13.9627
12.9967
12.0607
11.1528
10.271
9.41365
8.5787
7.76433
6.96871
6.19001
5.4264
4.67609
3.93728
3.20819
2.48704
1.77205
1.06147
0.353531
299.714
297.02
293.968
290.589
286.913
282.966
278.775
274.364
269.759
264.98
260.049
254.987
249.812
244.543
239.195
233.785
228.328
222.838
217.327
211.808
206.292
200.789
195.31
189.862
184.456
179.097
173.794
168.552
163.377
158.275
153.25
148.306
143.447
138.677
133.998
129.413
124.923
120.531
116.238
112.045
107.953
103.963
100.074
96.2868
92.6012
89.0168
85.533
82.149
78.8639
75.6767
72.5862
69.591
66.6898
63.8809
61.1628
58.5338
55.992
53.5357
51.1629
48.8716
46.66
44.5259
42.4672
40.482
38.568
36.7232
34.9454
33.2325
31.5824
29.9928
28.4618
26.987
25.5665
24.198
22.8795
21.609
20.3842
19.2032
18.064
16.9644
15.9026
14.8764
13.884
12.9234
11.9927
11.0899
10.2131
9.36056
8.53032
7.72055
6.92941
6.1551
5.3958
4.64972
3.91508
3.1901
2.47301
1.76206
1.05549
0.351537
297.941
295.262
292.228
288.87
285.215
281.291
277.125
272.741
268.162
263.412
258.51
253.478
248.334
243.096
237.78
232.402
226.977
221.519
216.041
210.554
205.071
199.601
194.154
188.739
183.364
178.037
172.765
167.554
162.41
157.338
152.343
147.428
142.598
137.856
133.205
128.647
124.184
119.818
115.55
111.382
107.315
103.348
99.4817
95.717
92.0532
88.49
85.0268
81.6628
78.3972
75.2288
72.1566
69.1792
66.2951
63.5028
60.8008
58.1874
55.6607
53.2189
50.8601
48.5824
46.3838
44.2624
42.2159
40.2424
38.3398
36.5059
34.7386
33.0359
31.3955
29.8153
28.2933
26.8273
25.4152
24.0548
22.7441
21.4811
20.2636
19.0896
17.9571
16.864
15.8084
14.7884
13.8018
12.8469
11.9217
11.0242
10.1527
9.30517
8.47984
7.67486
6.88841
6.11867
5.36387
4.62221
3.89191
3.17122
2.45838
1.75163
1.04924
0.349457
296.093
293.432
290.417
287.079
283.446
279.547
275.407
271.05
266.499
261.778
256.908
251.907
246.794
241.588
236.305
230.961
225.57
220.146
214.701
209.249
203.799
198.363
192.95
187.568
182.227
176.933
171.694
166.515
161.403
156.363
151.398
146.514
141.714
137.002
132.379
127.849
123.414
119.075
114.834
110.692
106.649
102.707
98.8649
95.1235
91.4825
87.9413
84.4996
81.1565
77.9111
74.7624
71.7092
68.7502
65.884
63.1091
60.4239
57.8266
55.3156
52.8889
50.5448
48.2812
46.0963
43.9879
41.9542
39.9929
38.1021
36.2795
34.5232
32.831
31.2008
29.6305
28.1179
26.661
25.2576
23.9057
22.6031
21.3479
20.1379
18.9712
17.8457
16.7595
15.7104
14.6967
13.7163
12.7673
11.8478
10.9559
10.0897
9.24748
8.42726
7.62728
6.8457
6.08074
5.33061
4.59355
3.86778
3.15156
2.44314
1.74077
1.04274
0.34729
294.173
291.529
288.533
285.217
281.608
277.734
273.62
269.292
264.771
260.081
255.241
250.273
245.194
240.022
234.773
229.463
224.107
218.718
213.309
207.892
202.478
197.077
191.699
186.352
181.045
175.786
170.58
165.435
160.356
155.348
150.416
145.564
140.795
136.113
131.52
127.02
122.614
118.303
114.089
109.974
105.958
102.041
98.2238
94.5066
90.8892
87.371
83.9516
80.6301
77.4058
74.2775
71.2442
68.3044
65.4568
62.6998
60.032
57.4516
54.9568
52.5459
50.217
47.9681
45.7973
43.7026
41.6821
39.7335
37.8549
36.0442
34.2993
32.6181
30.9985
29.4383
27.9356
26.4881
25.0938
23.7506
22.4565
21.2095
20.0073
18.8482
17.73
16.6508
15.6085
14.6014
13.6273
12.6845
11.7709
10.8848
10.0243
9.1875
8.37261
7.57781
6.8013
6.0413
5.29604
4.56376
3.8427
3.13112
2.42729
1.72948
1.03597
0.345038
292.18
289.554
286.578
283.285
279.7
275.853
271.767
267.467
262.977
258.319
253.512
248.577
243.533
238.396
233.182
227.909
222.589
217.236
211.864
206.484
201.106
195.742
190.4
185.09
179.819
174.595
169.425
164.315
159.27
154.296
149.397
144.578
139.841
135.191
130.629
126.159
121.783
117.501
113.316
109.229
105.24
101.349
97.5583
93.8664
90.2734
86.7791
83.3828
80.0839
76.8814
73.7743
70.7615
67.8416
65.0133
62.2751
59.6253
57.0624
54.5845
52.1899
49.8768
47.6431
45.4871
43.4066
41.3997
39.4643
37.5985
35.8001
34.067
32.3971
30.7885
29.2389
27.7463
26.3086
24.9238
23.5897
22.3044
21.0658
19.8718
18.7205
17.6099
16.538
15.5028
14.5025
13.535
12.5985
11.6912
10.8111
9.95639
9.12526
8.31589
7.52648
6.75523
6.00038
5.26017
4.53284
3.81667
3.10991
2.41085
1.71777
1.02896
0.342701
290.115
287.507
284.553
281.283
277.724
273.903
269.846
265.577
261.119
256.493
251.721
246.821
241.812
236.711
231.534
226.298
221.016
215.701
210.367
205.024
199.685
194.358
189.054
183.781
178.548
173.361
168.227
163.153
158.144
153.206
148.341
143.556
138.853
134.235
129.706
125.268
120.922
116.671
112.515
108.457
104.496
100.633
96.8688
93.203
89.6354
86.1658
82.7935
79.5179
76.3381
73.2529
70.2614
67.3622
64.5538
61.8349
59.2039
56.6591
54.1987
51.8211
49.5243
47.3064
45.1656
43.0998
41.1071
39.1854
37.3328
35.5471
33.8262
32.1682
30.5709
29.0323
27.5502
26.1227
24.7476
23.423
22.1468
20.9169
19.7314
18.5882
17.4854
16.4211
15.3932
14.4
13.4393
12.5095
11.6086
10.7347
9.88603
9.06077
8.25712
7.47328
6.70749
5.95797
5.22299
4.50081
3.78969
3.08793
2.39381
1.70563
1.02168
0.340279
287.979
285.39
282.457
279.211
275.678
271.886
267.859
263.621
259.196
254.604
249.867
245.003
240.031
234.967
229.829
224.631
219.388
214.112
208.817
203.514
198.214
192.927
187.662
182.428
177.233
172.084
166.988
161.952
156.98
152.077
147.249
142.499
137.83
133.247
128.751
124.345
120.032
115.812
111.687
107.658
103.726
99.892
96.1554
92.5166
88.9753
85.5312
82.1838
78.9323
75.7759
72.7135
69.744
66.8661
64.0784
61.3796
58.7679
56.2418
53.7996
51.4394
49.1595
46.958
44.833
42.7824
40.8044
38.8969
37.0578
35.2853
33.5771
31.9313
30.3458
28.8184
27.3473
25.9303
24.5654
23.2505
21.9837
20.7628
19.5861
18.4513
17.3567
16.3002
15.2799
14.2939
13.3404
12.4174
11.5231
10.6556
9.81322
8.99405
8.19631
7.41825
6.65809
5.9141
5.18453
4.46766
3.76178
3.06519
2.37618
1.69307
1.01416
0.337773
285.771
283.202
280.292
277.071
273.565
269.801
265.805
261.6
257.209
252.652
247.951
243.125
238.191
233.166
228.067
222.909
217.706
212.471
207.217
201.954
196.695
191.448
186.223
181.029
175.874
170.765
165.708
160.71
155.776
150.911
146.12
141.406
136.774
132.225
127.764
123.392
119.111
114.924
110.831
106.833
102.931
99.1263
95.4183
91.8073
88.2932
84.8755
81.5538
78.3272
75.195
72.156
69.2093
66.3535
63.5872
60.909
58.3174
55.8107
53.3872
51.0451
48.7827
46.598
44.4893
42.4544
40.4916
38.5987
36.7738
35.0148
33.3197
31.6865
30.1131
28.5975
27.1377
25.7315
24.3771
23.0723
21.8152
20.6037
19.4359
18.3099
17.2236
16.1752
15.1628
14.1843
13.2381
12.3222
11.4347
10.5739
9.738
8.9251
8.13348
7.36138
6.60705
5.86876
5.14478
4.43341
3.73295
3.04169
2.35797
1.68009
1.00639
0.335184
283.493
280.944
278.058
274.862
271.384
267.651
263.686
259.515
255.158
250.638
245.975
241.186
236.292
231.307
226.249
221.132
215.971
210.777
205.565
200.344
195.127
189.922
184.739
179.586
174.472
169.404
164.387
159.429
154.534
149.708
144.955
140.279
135.683
131.171
126.746
122.408
118.162
114.008
109.947
105.981
102.111
98.3361
94.6576
91.0755
87.5893
84.1989
80.9036
77.7028
74.5955
71.5808
68.6576
65.8245
63.0803
60.4235
57.8525
55.3657
52.9616
50.6382
48.3938
46.2266
44.1346
42.116
40.1688
38.291
36.4806
34.7356
33.0541
31.4339
29.8731
28.3696
26.9213
25.5264
24.1828
22.8884
21.6412
20.4394
19.281
18.1639
17.0863
16.0463
15.0419
14.0713
13.1326
12.224
11.3436
10.4897
9.66037
8.85395
8.06865
7.3027
6.55438
5.82198
5.10377
4.39807
3.70319
3.01745
2.33917
1.6667
0.998363
0.332512
281.145
278.617
275.755
272.585
269.136
265.434
261.502
257.365
253.045
248.562
243.937
239.189
234.335
229.392
224.375
219.301
214.182
209.031
203.862
198.685
193.51
188.349
183.209
178.099
173.027
168.001
163.026
158.109
153.254
148.468
143.755
139.117
134.56
130.085
125.696
121.395
117.183
113.063
109.036
105.103
101.265
97.5216
93.8736
90.3211
86.8639
83.5015
80.2335
77.0592
73.9777
70.9879
68.0889
65.2793
62.5578
59.923
57.3733
54.9072
52.5229
50.2188
47.993
45.8437
43.7691
41.7672
39.8361
37.9738
36.1784
34.4479
32.7803
31.1736
29.6256
28.1346
26.6984
25.315
23.9825
22.6988
21.462
20.2701
19.1213
18.0135
16.9448
15.9134
14.9173
13.9547
13.0238
12.1227
11.2496
10.4028
9.58036
8.78062
8.00182
7.24222
6.5001
5.77376
5.0615
4.36165
3.67252
2.99246
2.3198
1.65289
0.990094
0.329758
278.727
276.222
273.384
270.241
266.822
263.151
259.254
255.152
250.869
246.425
241.84
237.132
232.32
227.419
222.446
217.415
212.34
207.234
202.109
196.976
191.846
186.729
181.633
176.567
171.539
166.556
161.624
156.749
151.937
147.192
142.519
137.921
133.403
128.966
124.615
120.351
116.176
112.091
108.099
104.2
100.394
96.683
93.0664
89.5445
86.117
82.7835
79.5436
76.3966
73.3416
70.3775
67.5034
64.718
62.0199
59.4077
56.88
54.4351
52.0713
49.7869
47.5803
45.4495
43.3927
41.408
39.4935
37.6473
35.8674
34.1517
32.4985
30.9055
29.3709
27.8927
26.4688
25.0973
23.7762
22.5036
21.2775
20.0959
18.9569
17.8586
16.7991
15.7765
14.789
13.8347
12.9118
12.0185
11.1529
10.3133
9.49798
8.70512
7.93302
7.17994
6.44421
5.72411
5.01798
4.32414
3.64094
2.96673
2.29985
1.63868
0.981581
0.326922
276.241
273.758
270.945
267.831
264.442
260.804
256.941
252.876
248.631
244.227
239.683
235.017
230.247
225.391
220.462
215.476
210.446
205.386
200.306
195.219
190.135
185.063
180.013
174.992
170.009
165.07
160.182
155.351
150.581
145.879
141.247
136.691
132.213
127.816
123.503
119.277
115.139
111.091
107.135
103.27
99.4986
95.8206
92.2363
88.7458
85.3488
82.0451
78.8341
75.7152
72.6874
69.7498
66.9013
64.1407
61.4667
58.8778
56.3726
53.9495
51.6068
49.3429
47.1559
45.0441
43.0057
41.0387
39.1413
37.3115
35.5474
33.8471
32.2086
30.6298
29.1089
27.6439
26.2327
24.8735
23.5642
22.3029
21.0877
19.9166
18.7878
17.6993
16.6493
15.6358
14.6571
13.7113
12.7967
11.9113
11.0534
10.2213
9.41326
8.62748
7.86226
7.1159
6.38673
5.67305
4.97322
4.28557
3.60847
2.94026
2.27934
1.62406
0.972825
0.324006
273.687
271.226
268.44
265.354
261.997
258.393
254.565
250.538
246.332
241.969
237.466
232.844
228.118
223.306
218.423
213.483
208.5
203.486
198.454
193.414
188.377
183.352
178.349
173.374
168.437
163.544
158.701
153.914
149.189
144.53
139.941
135.427
130.99
126.634
122.361
118.174
114.075
110.064
106.144
102.315
98.5786
94.9346
91.3834
87.9251
84.5596
81.2864
78.1051
75.015
72.0152
69.1048
66.2827
63.5476
60.8983
58.3334
55.8514
53.4506
51.1296
48.8866
46.7198
44.6276
42.608
40.6592
38.7793
36.9665
35.2187
33.5341
31.9107
30.3466
28.8398
27.3883
25.9901
24.6435
23.3463
22.0967
20.8927
19.7324
18.6141
17.5356
16.4953
15.4912
14.5216
13.5845
12.6783
11.8011
10.9512
10.1268
9.32622
8.5477
7.78956
7.0501
6.32767
5.6206
4.92724
4.24595
3.5751
2.91308
2.25826
1.60905
0.96383
0.32101
271.065
268.628
265.868
262.812
259.487
255.917
252.127
248.138
243.972
239.651
235.191
230.613
225.933
221.167
216.331
211.438
206.503
201.537
196.553
191.561
186.572
181.596
176.64
171.713
166.824
161.977
157.181
152.44
147.76
143.145
138.601
134.129
129.735
125.421
121.189
117.042
112.982
109.01
105.127
101.335
97.6342
94.0251
90.508
87.0828
83.7495
80.5077
77.3569
74.2964
71.3253
68.4428
65.6477
62.9388
60.3149
57.7746
55.3163
52.9386
50.6398
48.4183
46.2723
44.2001
42.1998
40.2697
38.4078
36.6124
34.8813
33.2129
31.605
30.0559
28.5635
27.1259
25.7412
24.4074
23.1226
21.885
20.6925
19.5434
18.4357
17.3676
16.3373
15.3428
14.3825
13.4544
12.5569
11.6881
10.8463
10.0298
9.23688
8.46582
7.71493
6.98257
6.26705
5.56675
4.88003
4.20527
3.54085
2.88517
2.23663
1.59363
0.954597
0.317935
268.376
265.963
263.231
260.205
256.913
253.379
249.626
245.677
241.552
237.273
232.858
228.326
223.692
218.973
214.185
209.341
204.454
199.538
194.603
189.661
184.722
179.794
174.888
170.01
165.169
160.371
155.622
150.928
146.294
141.725
137.226
132.799
128.448
124.177
119.987
115.881
111.861
107.928
104.084
100.33
96.6657
93.0924
89.6102
86.219
82.9188
79.7091
76.5896
73.5594
70.6178
67.7639
64.9965
62.3145
59.7166
57.2015
54.7676
52.4135
50.1375
47.938
45.8133
43.7616
41.7812
39.8702
38.0269
36.2492
34.5353
32.8834
31.2915
29.7578
28.2802
26.8568
25.4858
24.1653
22.8933
21.6679
20.4873
19.3496
18.2529
17.1954
16.1752