/*--------------------------------*- C++ -*----------------------------------*\
| =========                 |                                                 |
| \\      /  F ield         | OpenFOAM: The Open Source CFD Toolbox           |
|  \\    /   O peration     | Version:  2406                                  |
|   \\  /    A nd           | Website:  www.openfoam.com                      |
|    \\/     M anipulation  |                                                 |
\*---------------------------------------------------------------------------*/
FoamFile
{
    version     2.0;
    format      ascii;
    arch        "LSB;label=32;scalar=64";
    class       volScalarField;
    location    "95";
    object      T;
}
// * * * * * * * * * * * * * * * * * * * * * * * * * * * * * * * * * * * * * //

dimensions      [0 0 0 1 0 0 0];

internalField   nonuniform List<scalar> 
20000
(
300.799
300.791
300.783
300.774
300.765
300.754
300.743
300.731
300.719
300.706
300.693
300.679
300.666
300.652
300.637
300.623
300.608
300.594
300.579
300.564
300.55
300.535
300.52
300.506
300.492
300.477
300.463
300.449
300.435
300.422
300.408
300.395
300.382
300.37
300.357
300.345
300.333
300.321
300.31
300.299
300.288
300.277
300.267
300.257
300.247
300.237
300.228
300.219
300.21
300.202
300.193
300.185
300.178
300.17
300.163
300.156
300.149
300.143
300.136
300.13
300.124
300.119
300.113
300.108
300.103
300.098
300.093
300.089
300.084
300.08
300.076
300.072
300.068
300.064
300.061
300.058
300.054
300.051
300.048
300.045
300.042
300.04
300.037
300.034
300.032
300.03
300.027
300.025
300.023
300.021
300.018
300.016
300.014
300.012
300.01
300.009
300.007
300.005
300.003
300.001
302.396
302.374
302.35
302.323
302.293
302.262
302.228
302.193
302.156
302.118
302.079
302.038
301.997
301.955
301.912
301.869
301.825
301.781
301.737
301.693
301.649
301.605
301.561
301.518
301.474
301.432
301.389
301.347
301.306
301.265
301.225
301.186
301.147
301.109
301.071
301.034
300.999
300.963
300.929
300.896
300.863
300.831
300.8
300.77
300.74
300.712
300.684
300.657
300.63
300.605
300.58
300.556
300.533
300.511
300.489
300.468
300.448
300.428
300.409
300.391
300.373
300.356
300.339
300.324
300.308
300.294
300.279
300.266
300.252
300.24
300.228
300.216
300.204
300.193
300.183
300.173
300.163
300.154
300.144
300.136
300.127
300.119
300.111
300.103
300.096
300.089
300.082
300.075
300.068
300.062
300.055
300.049
300.043
300.037
300.031
300.026
300.02
300.014
300.008
300.003
303.992
303.957
303.916
303.871
303.822
303.769
303.713
303.655
303.593
303.53
303.464
303.397
303.328
303.257
303.186
303.114
303.041
302.968
302.895
302.821
302.748
302.675
302.602
302.529
302.457
302.386
302.315
302.245
302.176
302.108
302.041
301.976
301.911
301.847
301.785
301.724
301.664
301.606
301.548
301.493
301.438
301.385
301.333
301.283
301.234
301.186
301.139
301.094
301.051
301.008
300.967
300.927
300.888
300.851
300.815
300.78
300.746
300.713
300.682
300.651
300.622
300.593
300.566
300.539
300.514
300.489
300.465
300.443
300.421
300.4
300.379
300.359
300.341
300.322
300.305
300.288
300.272
300.256
300.241
300.226
300.212
300.198
300.185
300.172
300.16
300.148
300.136
300.125
300.114
300.103
300.092
300.082
300.072
300.062
300.052
300.042
300.033
300.023
300.014
300.005
305.588
305.538
305.481
305.418
305.349
305.276
305.198
305.115
305.029
304.94
304.848
304.754
304.658
304.559
304.46
304.359
304.257
304.155
304.052
303.949
303.846
303.744
303.641
303.54
303.439
303.339
303.24
303.143
303.046
302.951
302.857
302.765
302.674
302.586
302.498
302.413
302.329
302.247
302.167
302.089
302.013
301.938
301.866
301.795
301.726
301.66
301.595
301.532
301.47
301.411
301.353
301.297
301.243
301.191
301.14
301.091
301.044
300.998
300.954
300.911
300.87
300.83
300.792
300.755
300.719
300.685
300.652
300.62
300.589
300.559
300.531
300.503
300.477
300.451
300.427
300.403
300.38
300.358
300.337
300.316
300.296
300.277
300.259
300.241
300.224
300.207
300.19
300.175
300.159
300.144
300.129
300.115
300.101
300.087
300.073
300.059
300.046
300.033
300.02
300.007
307.182
307.118
307.044
306.963
306.875
306.781
306.68
306.575
306.464
306.35
306.232
306.11
305.986
305.86
305.732
305.602
305.472
305.34
305.208
305.076
304.943
304.812
304.68
304.55
304.42
304.292
304.165
304.039
303.915
303.793
303.672
303.554
303.437
303.323
303.211
303.101
302.994
302.888
302.785
302.685
302.587
302.491
302.398
302.307
302.219
302.133
302.05
301.969
301.89
301.813
301.739
301.668
301.598
301.531
301.466
301.403
301.342
301.283
301.226
301.171
301.118
301.067
301.018
300.97
300.924
300.88
300.837
300.796
300.757
300.719
300.682
300.647
300.613
300.58
300.548
300.518
300.488
300.46
300.433
300.407
300.381
300.356
300.333
300.31
300.287
300.266
300.245
300.224
300.204
300.185
300.166
300.147
300.129
300.111
300.094
300.076
300.059
300.042
300.025
300.008
308.775
308.696
308.606
308.507
308.4
308.284
308.162
308.032
307.898
307.758
307.613
307.465
307.314
307.159
307.003
306.844
306.685
306.524
306.363
306.201
306.039
305.878
305.718
305.558
305.4
305.243
305.088
304.935
304.783
304.634
304.487
304.342
304.2
304.06
303.923
303.789
303.657
303.529
303.403
303.28
303.16
303.044
302.93
302.819
302.711
302.606
302.504
302.405
302.309
302.216
302.125
302.037
301.952
301.87
301.791
301.714
301.639
301.567
301.498
301.431
301.366
301.304
301.243
301.185
301.129
301.075
301.023
300.973
300.925
300.878
300.833
300.79
300.748
300.708
300.67
300.633
300.597
300.562
300.529
300.497
300.466
300.436
300.406
300.378
300.351
300.325
300.299
300.274
300.25
300.226
300.203
300.18
300.158
300.136
300.115
300.093
300.072
300.052
300.031
300.01
310.365
310.272
310.166
310.049
309.922
309.786
309.641
309.488
309.329
309.164
308.993
308.818
308.639
308.457
308.272
308.085
307.896
307.706
307.516
307.325
307.134
306.944
306.754
306.566
306.379
306.194
306.01
305.829
305.65
305.474
305.3
305.129
304.961
304.796
304.634
304.475
304.32
304.168
304.02
303.875
303.733
303.595
303.461
303.33
303.202
303.078
302.958
302.841
302.727
302.617
302.51
302.407
302.306
302.209
302.115
302.024
301.936
301.851
301.769
301.69
301.614
301.54
301.469
301.4
301.334
301.27
301.208
301.149
301.092
301.037
300.984
300.933
300.884
300.837
300.791
300.747
300.705
300.664
300.625
300.587
300.55
300.514
300.48
300.447
300.415
300.384
300.353
300.324
300.295
300.267
300.24
300.213
300.187
300.161
300.135
300.11
300.086
300.061
300.037
300.012
311.953
311.845
311.723
311.589
311.442
311.285
311.117
310.942
310.758
310.567
310.371
310.169
309.962
309.752
309.539
309.323
309.106
308.887
308.667
308.447
308.227
308.007
307.789
307.572
307.356
307.142
306.931
306.722
306.515
306.312
306.112
305.914
305.721
305.53
305.344
305.161
304.982
304.807
304.636
304.468
304.305
304.146
303.991
303.84
303.693
303.55
303.411
303.276
303.145
303.018
302.895
302.775
302.66
302.548
302.439
302.334
302.233
302.135
302.04
301.949
301.861
301.776
301.694
301.614
301.538
301.465
301.394
301.325
301.259
301.196
301.135
301.076
301.02
300.965
300.912
300.862
300.813
300.766
300.72
300.677
300.634
300.593
300.554
300.515
300.478
300.442
300.407
300.373
300.34
300.308
300.276
300.245
300.215
300.185
300.156
300.127
300.099
300.07
300.042
300.014
313.537
313.416
313.278
313.125
312.959
312.781
312.591
312.392
312.184
311.968
311.746
311.517
311.283
311.045
310.804
310.559
310.313
310.065
309.816
309.567
309.318
309.069
308.822
308.576
308.331
308.089
307.85
307.613
307.379
307.149
306.922
306.699
306.479
306.264
306.052
305.845
305.642
305.444
305.25
305.061
304.876
304.696
304.52
304.349
304.183
304.021
303.863
303.71
303.562
303.418
303.279
303.143
303.012
302.885
302.763
302.644
302.529
302.418
302.311
302.207
302.108
302.011
301.918
301.828
301.742
301.659
301.578
301.501
301.426
301.355
301.286
301.219
301.155
301.093
301.033
300.976
300.921
300.867
300.816
300.766
300.718
300.672
300.627
300.584
300.542
300.501
300.461
300.423
300.385
300.349
300.313
300.278
300.244
300.21
300.177
300.144
300.112
300.08
300.048
300.016
315.119
314.983
314.829
314.658
314.473
314.274
314.062
313.84
313.608
313.367
313.118
312.863
312.601
312.336
312.066
311.793
311.518
311.241
310.963
310.684
310.406
310.129
309.852
309.577
309.305
309.034
308.767
308.502
308.241
307.984
307.73
307.481
307.236
306.995
306.759
306.528
306.302
306.08
305.863
305.652
305.446
305.244
305.048
304.857
304.671
304.49
304.315
304.144
303.978
303.817
303.662
303.51
303.364
303.222
303.085
302.953
302.824
302.701
302.581
302.465
302.354
302.246
302.142
302.042
301.946
301.852
301.763
301.676
301.593
301.513
301.436
301.361
301.29
301.221
301.154
301.09
301.028
300.969
300.911
300.856
300.802
300.75
300.7
300.652
300.605
300.559
300.515
300.472
300.43
300.389
300.35
300.31
300.272
300.235
300.197
300.161
300.125
300.089
300.053
300.018
316.696
316.546
316.376
316.188
315.983
315.763
315.53
315.284
315.028
314.761
314.487
314.205
313.916
313.623
313.325
313.024
312.72
312.414
312.107
311.799
311.492
311.185
310.88
310.577
310.276
309.977
309.682
309.39
309.101
308.817
308.537
308.262
307.991
307.725
307.465
307.209
306.959
306.715
306.475
306.242
306.014
305.792
305.575
305.364
305.159
304.959
304.765
304.576
304.393
304.216
304.044
303.877
303.715
303.559
303.407
303.261
303.119
302.982
302.85
302.723
302.599
302.48
302.366
302.255
302.149
302.046
301.947
301.851
301.759
301.671
301.586
301.503
301.424
301.348
301.275
301.204
301.136
301.07
301.006
300.945
300.886
300.829
300.773
300.72
300.668
300.618
300.569
300.521
300.475
300.43
300.386
300.343
300.301
300.259
300.218
300.178
300.138
300.098
300.059
300.02
318.27
318.106
317.92
317.714
317.49
317.249
316.994
316.725
316.444
316.153
315.852
315.543
315.228
314.907
314.581
314.251
313.918
313.584
313.248
312.911
312.575
312.24
311.906
311.574
311.244
310.917
310.594
310.275
309.959
309.648
309.342
309.04
308.744
308.453
308.168
307.889
307.615
307.347
307.086
306.83
306.581
306.337
306.1
305.869
305.645
305.426
305.214
305.008
304.807
304.613
304.425
304.242
304.065
303.894
303.728
303.568
303.413
303.263
303.119
302.979
302.844
302.714
302.589
302.468
302.351
302.239
302.13
302.026
301.925
301.828
301.735
301.645
301.558
301.475
301.395
301.317
301.243
301.171
301.101
301.034
300.969
300.907
300.846
300.788
300.731
300.676
300.623
300.571
300.52
300.471
300.422
300.375
300.329
300.283
300.239
300.194
300.151
300.107
300.064
300.021
319.839
319.661
319.459
319.235
318.992
318.73
318.453
318.161
317.856
317.54
317.213
316.878
316.536
316.187
315.833
315.475
315.114
314.75
314.386
314.02
313.655
313.291
312.928
312.568
312.21
311.855
311.504
311.157
310.814
310.477
310.144
309.817
309.495
309.179
308.87
308.566
308.269
307.978
307.694
307.417
307.146
306.882
306.624
306.374
306.13
305.892
305.662
305.438
305.22
305.009
304.805
304.606
304.414
304.228
304.049
303.875
303.706
303.544
303.387
303.235
303.089
302.947
302.811
302.68
302.553
302.431
302.313
302.2
302.091
301.985
301.884
301.786
301.692
301.602
301.514
301.43
301.349
301.271
301.196
301.123
301.053
300.985
300.919
300.855
300.794
300.734
300.676
300.62
300.565
300.511
300.459
300.407
300.357
300.308
300.259
300.211
300.164
300.117
300.07
300.023
321.403
321.211
320.993
320.752
320.489
320.207
319.908
319.593
319.264
318.923
318.571
318.209
317.84
317.463
317.081
316.695
316.305
315.913
315.52
315.126
314.732
314.339
313.947
313.558
313.172
312.79
312.411
312.037
311.667
311.303
310.944
310.591
310.244
309.903
309.569
309.242
308.921
308.607
308.301
308.001
307.709
307.424
307.146
306.876
306.613
306.357
306.108
305.866
305.632
305.404
305.184
304.97
304.762
304.562
304.368
304.18
303.998
303.823
303.654
303.49
303.332
303.18
303.033
302.891
302.754
302.622
302.496
302.373
302.255
302.142
302.033
301.927
301.826
301.728
301.634
301.543
301.456
301.371
301.29
301.211
301.136
301.062
300.991
300.923
300.856
300.792
300.729
300.668
300.609
300.551
300.495
300.44
300.385
300.332
300.28
300.228
300.177
300.126
300.075
300.025
322.962
322.756
322.522
322.263
321.981
321.679
321.358
321.02
320.667
320.301
319.923
319.535
319.139
318.735
318.325
317.911
317.493
317.072
316.65
316.227
315.805
315.383
314.963
314.546
314.132
313.721
313.315
312.913
312.517
312.126
311.741
311.362
310.99
310.624
310.266
309.915
309.571
309.234
308.905
308.584
308.271
307.965
307.667
307.377
307.094
306.82
306.553
306.294
306.042
305.798
305.561
305.332
305.109
304.894
304.686
304.484
304.29
304.102
303.92
303.744
303.575
303.411
303.254
303.101
302.955
302.813
302.677
302.546
302.42
302.298
302.181
302.068
301.959
301.854
301.753
301.656
301.562
301.471
301.384
301.3
301.218
301.14
301.064
300.99
300.919
300.85
300.782
300.717
300.654
300.591
300.531
300.472
300.413
300.356
300.3
300.244
300.189
300.135
300.081
300.027
324.515
324.295
324.045
323.769
323.468
323.145
322.802
322.442
322.065
321.674
321.271
320.857
320.434
320.002
319.565
319.123
318.676
318.227
317.776
317.325
316.874
316.424
315.975
315.53
315.088
314.649
314.216
313.787
313.363
312.946
312.535
312.131
311.733
311.343
310.96
310.585
310.218
309.859
309.508
309.165
308.83
308.504
308.186
307.876
307.574
307.281
306.996
306.719
306.451
306.19
305.937
305.692
305.455
305.225
305.003
304.788
304.58
304.379
304.185
303.997
303.817
303.642
303.474
303.311
303.155
303.004
302.858
302.718
302.583
302.453
302.328
302.207
302.091
301.979
301.871
301.768
301.667
301.571
301.478
301.388
301.301
301.217
301.136
301.057
300.981
300.907
300.835
300.766
300.698
300.632
300.567
300.503
300.441
300.38
300.32
300.261
300.202
300.144
300.086
300.029
326.062
325.828
325.563
325.269
324.949
324.606
324.242
323.858
323.458
323.042
322.613
322.173
321.723
321.265
320.8
320.329
319.855
319.377
318.898
318.418
317.939
317.46
316.984
316.51
316.04
315.574
315.113
314.657
314.207
313.763
313.326
312.896
312.474
312.059
311.652
311.253
310.863
310.481
310.108
309.743
309.387
309.04
308.702
308.373
308.052
307.741
307.438
307.143
306.858
306.581
306.312
306.051
305.799
305.555
305.319
305.09
304.869
304.655
304.449
304.25
304.057
303.872
303.693
303.52
303.354
303.193
303.039
302.89
302.746
302.608
302.475
302.347
302.223
302.104
301.99
301.879
301.773
301.67
301.571
301.475
301.383
301.294
301.207
301.124
301.043
300.964
300.888
300.814
300.742
300.671
300.603
300.535
300.469
300.404
300.34
300.277
300.215
300.153
300.092
300.031
327.603
327.355
327.074
326.763
326.424
326.061
325.675
325.268
324.844
324.404
323.95
323.484
323.007
322.522
322.029
321.531
321.029
320.523
320.015
319.507
318.999
318.492
317.988
317.486
316.988
316.495
316.006
315.523
315.047
314.577
314.114
313.659
313.211
312.772
312.341
311.919
311.505
311.101
310.705
310.319
309.942
309.575
309.217
308.868
308.528
308.198
307.877
307.566
307.263
306.97
306.685
306.409
306.142
305.883
305.633
305.391
305.157
304.931
304.712
304.501
304.297
304.101
303.911
303.728
303.552
303.382
303.218
303.061
302.909
302.762
302.621
302.485
302.355
302.229
302.107
301.99
301.877
301.769
301.664
301.562
301.465
301.37
301.279
301.19
301.104
301.021
300.941
300.862
300.786
300.711
300.638
300.567
300.497
300.428
300.361
300.294
300.228
300.162
300.097
300.032
329.137
328.875
328.578
328.25
327.893
327.509
327.101
326.673
326.225
325.76
325.281
324.789
324.286
323.774
323.254
322.728
322.197
321.663
321.128
320.591
320.055
319.52
318.987
318.458
317.932
317.411
316.896
316.386
315.883
315.387
314.898
314.418
313.945
313.482
313.027
312.581
312.145
311.718
311.3
310.893
310.495
310.107
309.729
309.361
309.002
308.654
308.315
307.986
307.667
307.357
307.057
306.765
306.483
306.21
305.946
305.69
305.443
305.205
304.974
304.751
304.536
304.329
304.128
303.936
303.749
303.57
303.397
303.231
303.07
302.916
302.767
302.624
302.485
302.352
302.224
302.101
301.982
301.867
301.756
301.649
301.546
301.446
301.35
301.256
301.166
301.078
300.993
300.91
300.829
300.751
300.674
300.598
300.525
300.452
300.381
300.31
300.24
300.171
300.103
300.034
330.664
330.388
330.076
329.73
329.354
328.95
328.521
328.07
327.599
327.11
326.606
326.088
325.558
325.019
324.472
323.919
323.36
322.799
322.235
321.67
321.106
320.543
319.982
319.425
318.872
318.323
317.781
317.245
316.715
316.193
315.679
315.173
314.676
314.188
313.709
313.24
312.781
312.332
311.892
311.463
311.045
310.636
310.239
309.851
309.474
309.107
308.751
308.405
308.069
307.742
307.426
307.12
306.823
306.536
306.258
305.989
305.729
305.477
305.234
305
304.774
304.555
304.345
304.142
303.946
303.757
303.575
303.4
303.231
303.069
302.912
302.761
302.616
302.476
302.341
302.211
302.086
301.965
301.848
301.736
301.627
301.522
301.42
301.322
301.227
301.135
301.045
300.958
300.873
300.79
300.709
300.63
300.552
300.476
300.401
300.326
300.253
300.18
300.108
300.036
332.183
331.894
331.566
331.203
330.808
330.385
329.934
329.461
328.966
328.453
327.924
327.38
326.825
326.259
325.684
325.104
324.518
323.928
323.336
322.744
322.151
321.56
320.972
320.387
319.807
319.231
318.662
318.099
317.543
316.995
316.456
315.925
315.403
314.891
314.389
313.896
313.414
312.943
312.482
312.031
311.592
311.163
310.746
310.339
309.943
309.559
309.184
308.821
308.468
308.126
307.794
307.473
307.161
306.859
306.568
306.285
306.012
305.749
305.494
305.248
305.01
304.781
304.56
304.347
304.141
303.943
303.752
303.568
303.391
303.221
303.056
302.898
302.745
302.598
302.457
302.32
302.189
302.062
301.94
301.822
301.708
301.597
301.491
301.388
301.288
301.191
301.097
301.005
300.916
300.829
300.744
300.661
300.579
300.499
300.42
300.343
300.266
300.189
300.113
300.038
333.694
333.391
333.048
332.668
332.255
331.811
331.34
330.844
330.327
329.789
329.235
328.666
328.084
327.492
326.891
326.282
325.669
325.052
324.432
323.812
323.192
322.573
321.957
321.345
320.737
320.134
319.538
318.949
318.367
317.793
317.228
316.673
316.126
315.59
315.064
314.549
314.044
313.55
313.068
312.596
312.136
311.688
311.25
310.825
310.41
310.007
309.616
309.235
308.866
308.508
308.16
307.823
307.497
307.182
306.876
306.58
306.295
306.019
305.752
305.494
305.246
305.006
304.774
304.551
304.336
304.128
303.929
303.736
303.551
303.372
303.2
303.034
302.874
302.72
302.572
302.429
302.292
302.159
302.031
301.907
301.788
301.672
301.561
301.453
301.348
301.247
301.148
301.052
300.959
300.868
300.779
300.692
300.607
300.523
300.44
300.359
300.278
300.198
300.119
300.04
335.197
334.881
334.522
334.126
333.694
333.23
332.738
332.22
331.679
331.118
330.539
329.945
329.337
328.718
328.09
327.455
326.814
326.169
325.522
324.874
324.226
323.58
322.936
322.297
321.662
321.032
320.41
319.794
319.186
318.587
317.997
317.416
316.846
316.286
315.736
315.198
314.67
314.155
313.651
313.158
312.678
312.209
311.752
311.308
310.875
310.454
310.045
309.647
309.261
308.887
308.524
308.172
307.832
307.502
307.183
306.874
306.575
306.287
306.008
305.739
305.48
305.229
304.987
304.754
304.529
304.313
304.104
303.903
303.709
303.522
303.342
303.169
303.002
302.842
302.687
302.538
302.394
302.255
302.121
301.992
301.868
301.747
301.63
301.518
301.408
301.302
301.199
301.099
301.002
300.907
300.814
300.723
300.634
300.546
300.46
300.375
300.29
300.207
300.124
300.041
336.691
336.362
335.988
335.574
335.124
334.641
334.128
333.588
333.024
332.439
331.836
331.216
330.582
329.937
329.283
328.62
327.952
327.28
326.605
325.93
325.254
324.581
323.91
323.243
322.581
321.925
321.276
320.634
320.001
319.376
318.761
318.156
317.561
316.977
316.404
315.843
315.293
314.756
314.23
313.717
313.216
312.727
312.251
311.788
311.336
310.898
310.471
310.057
309.655
309.264
308.886
308.519
308.164
307.82
307.488
307.166
306.855
306.554
306.263
305.983
305.712
305.451
305.199
304.956
304.722
304.496
304.278
304.068
303.866
303.672
303.484
303.304
303.13
302.962
302.801
302.645
302.495
302.351
302.211
302.077
301.947
301.821
301.7
301.582
301.468
301.358
301.25
301.146
301.044
300.945
300.848
300.754
300.661
300.569
300.479
300.391
300.303
300.216
300.129
300.043
338.177
337.833
337.445
337.014
336.546
336.043
335.509
334.948
334.361
333.752
333.124
332.479
331.82
331.149
330.468
329.779
329.084
328.384
327.682
326.979
326.277
325.576
324.878
324.184
323.495
322.813
322.137
321.469
320.81
320.16
319.52
318.891
318.272
317.664
317.068
316.484
315.912
315.353
314.806
314.272
313.751
313.242
312.747
312.265
311.795
311.339
310.895
310.464
310.045
309.639
309.246
308.864
308.495
308.137
307.791
307.456
307.132
306.819
306.517
306.225
305.943
305.672
305.409
305.156
304.913
304.678
304.451
304.233
304.023
303.82
303.625
303.438
303.257
303.082
302.914
302.752
302.596
302.446
302.301
302.161
302.026
301.895
301.768
301.646
301.528
301.413
301.301
301.192
301.087
300.983
300.883
300.784
300.687
300.592
300.499
300.406
300.315
300.224
300.134
300.045
339.652
339.296
338.892
338.445
337.959
337.436
336.882
336.298
335.689
335.057
334.405
333.735
333.05
332.353
331.646
330.93
330.208
329.482
328.752
328.022
327.292
326.564
325.839
325.119
324.404
323.695
322.993
322.299
321.615
320.94
320.275
319.621
318.978
318.347
317.728
317.121
316.527
315.946
315.378
314.824
314.282
313.754
313.24
312.739
312.251
311.777
311.316
310.868
310.434
310.012
309.603
309.207
308.823
308.451
308.092
307.744
307.408
307.083
306.769
306.466
306.173
305.891
305.618
305.356
305.103
304.858
304.623
304.397
304.178
303.968
303.765
303.57
303.382
303.201
303.027
302.859
302.697
302.541
302.39
302.244
302.104
301.968
301.837
301.71
301.587
301.467
301.351
301.238
301.129
301.021
300.917
300.814
300.714
300.615
300.518
300.422
300.327
300.233
300.14
300.047
341.118
340.749
340.33
339.866
339.362
338.82
338.245
337.64
337.009
336.353
335.677
334.982
334.272
333.549
332.816
332.073
331.325
330.571
329.815
329.058
328.301
327.547
326.795
326.047
325.306
324.571
323.843
323.124
322.414
321.714
321.025
320.346
319.68
319.025
318.383
317.754
317.138
316.536
315.947
315.372
314.81
314.263
313.729
313.21
312.704
312.212
311.734
311.27
310.819
310.382
309.958
309.547
309.149
308.764
308.391
308.03
307.682
307.345
307.019
306.705
306.401
306.109
305.826
305.554
305.291
305.038
304.794
304.559
304.333
304.115
303.905
303.702
303.507
303.32
303.139
302.965
302.797
302.635
302.478
302.327
302.182
302.041
301.905
301.773
301.645
301.521
301.401
301.284
301.17
301.059
300.951
300.844
300.74
300.638
300.537
300.438
300.339
300.242
300.145
300.048
342.574
342.191
341.758
341.278
340.756
340.195
339.6
338.973
338.319
337.64
336.94
336.221
335.486
334.737
333.977
333.209
332.434
331.654
330.871
330.087
329.304
328.522
327.743
326.97
326.202
325.441
324.687
323.943
323.208
322.483
321.769
321.067
320.377
319.699
319.034
318.383
317.745
317.121
316.512
315.916
315.335
314.768
314.215
313.677
313.154
312.645
312.15
311.669
311.203
310.75
310.311
309.885
309.473
309.074
308.688
308.315
307.954
307.605
307.268
306.942
306.628
306.325
306.032
305.75
305.479
305.216
304.964
304.721
304.486
304.26
304.043
303.833
303.632
303.437
303.25
303.07
302.896
302.728
302.566
302.41
302.259
302.113
301.972
301.836
301.704
301.575
301.451
301.33
301.212
301.097
300.984
300.874
300.766
300.66
300.556
300.453
300.351
300.25
300.15
300.05
344.019
343.624
343.175
342.679
342.139
341.56
340.944
340.296
339.62
338.918
338.194
337.45
336.69
335.916
335.131
334.336
333.535
332.728
331.919
331.108
330.298
329.49
328.685
327.885
327.091
326.304
325.525
324.755
323.995
323.246
322.508
321.782
321.068
320.368
319.68
319.007
318.348
317.703
317.072
316.456
315.855
315.269
314.698
314.142
313.6
313.074
312.562
312.065
311.583
311.115
310.661
310.221
309.795
309.382
308.983
308.597
308.224
307.863
307.514
307.178
306.853
306.54
306.237
305.946
305.665
305.394
305.132
304.881
304.639
304.405
304.18
303.964
303.755
303.554
303.36
303.174
302.994
302.82
302.653
302.492
302.336
302.185
302.039
301.898
301.761
301.629
301.5
301.375
301.253
301.134
301.018
300.904
300.792
300.683
300.575
300.469
300.363
300.259
300.155
300.052
345.454
345.045
344.582
344.07
343.512
342.914
342.278
341.609
340.911
340.186
339.438
338.671
337.886
337.087
336.276
335.455
334.628
333.795
332.959
332.122
331.286
330.451
329.62
328.794
327.974
327.161
326.357
325.562
324.777
324.004
323.241
322.492
321.755
321.031
320.322
319.626
318.946
318.279
317.628
316.993
316.372
315.767
315.177
314.603
314.044
313.5
312.972
312.458
311.96
311.477
311.008
310.554
310.114
309.688
309.276
308.877
308.492
308.119
307.759
307.412
307.076
306.753
306.44
306.139
305.849
305.569
305.3
305.04
304.79
304.549
304.316
304.093
303.877
303.67
303.47
303.277
303.091
302.912
302.74
302.573
302.412
302.256
302.106
301.96
301.819
301.682
301.549
301.42
301.294
301.171
301.051
300.933
300.818
300.705
300.594
300.484
300.375
300.267
300.16
300.053
346.877
346.456
345.978
345.45
344.875
344.258
343.602
342.912
342.192
341.444
340.673
339.882
339.072
338.248
337.412
336.565
335.712
334.853
333.991
333.128
332.265
331.405
330.548
329.696
328.85
328.012
327.182
326.362
325.553
324.755
323.969
323.196
322.436
321.69
320.958
320.241
319.539
318.852
318.18
317.525
316.885
316.26
315.652
315.06
314.483
313.923
313.378
312.849
312.335
311.836
311.353
310.884
310.431
309.991
309.566
309.155
308.757
308.373
308.002
307.644
307.298
306.964
306.642
306.332
306.032
305.744
305.466
305.198
304.94
304.691
304.452
304.221
303.999
303.785
303.578
303.38
303.188
303.003
302.825
302.653
302.487
302.327
302.172
302.021
301.876
301.735
301.597
301.464
301.334
301.208
301.084
300.963
300.844
300.727
300.612
300.499
300.387
300.276
300.165
300.055
348.289
347.855
347.363
346.819
346.226
345.59
344.915
344.204
343.462
342.693
341.898
341.083
340.249
339.4
338.538
337.667
336.787
335.903
335.015
334.126
333.237
332.35
331.467
330.59
329.719
328.855
328.001
327.156
326.323
325.501
324.691
323.894
323.112
322.343
321.589
320.85
320.127
319.42
318.728
318.052
317.393
316.75
316.124
315.513
314.92
314.342
313.781
313.236
312.706
312.193
311.695
311.212
310.745
310.292
309.854
309.431
309.021
308.625
308.243
307.874
307.518
307.174
306.842
306.522
306.214
305.917
305.63
305.354
305.088
304.832
304.586
304.348
304.119
303.899
303.686
303.482
303.284
303.094
302.91
302.733
302.562
302.397
302.237
302.082
301.932
301.787
301.645
301.508
301.374
301.244
301.116
300.992
300.869
300.749
300.631
300.514
300.398
300.284
300.17
300.057
349.689
349.242
348.736
348.176
347.566
346.912
346.217
345.486
344.722
343.93
343.113
342.273
341.416
340.542
339.655
338.758
337.854
336.944
336.03
335.115
334.2
333.288
332.38
331.477
330.58
329.692
328.813
327.944
327.086
326.24
325.407
324.587
323.782
322.991
322.215
321.455
320.711
319.982
319.271
318.576
317.897
317.236
316.591
315.963
315.352
314.758
314.18
313.619
313.075
312.546
312.034
311.537
311.056
310.591
310.14
309.704
309.283
308.875
308.482
308.102
307.736
307.382
307.04
306.711
306.394
306.088
305.793
305.51
305.236
304.972
304.719
304.474
304.239
304.012
303.793
303.582
303.379
303.184
302.995
302.812
302.636
302.466
302.302
302.143
301.988
301.839
301.693
301.552
301.414
301.28
301.149
301.02
300.895
300.771
300.649
300.529
300.41
300.292
300.175
300.058
351.076
350.617
350.097
349.521
348.894
348.222
347.508
346.756
345.971
345.157
344.317
343.454
342.572
341.674
340.763
339.841
338.911
337.975
337.036
336.095
335.155
334.218
333.284
332.356
331.434
330.521
329.617
328.724
327.842
326.973
326.116
325.274
324.446
323.633
322.835
322.054
321.289
320.54
319.809
319.094
318.397
317.717
317.054
316.409
315.781
315.17
314.576
313.999
313.44
312.897
312.37
311.859
311.365
310.886
310.423
309.975
309.542
309.123
308.719
308.329
307.952
307.588
307.237
306.899
306.573
306.258
305.955
305.663
305.382
305.111
304.85
304.599
304.357
304.124
303.899
303.683
303.474
303.273
303.078
302.891
302.71
302.535
302.366
302.202
302.044
301.89
301.74
301.595
301.454
301.316
301.181
301.049
300.92
300.792
300.667
300.544
300.421
300.3
300.18
300.06
352.451
351.979
351.445
350.854
350.211
349.52
348.786
348.015
347.209
346.372
345.509
344.624
343.718
342.796
341.86
340.913
339.958
338.997
338.033
337.067
336.102
335.139
334.18
333.226
332.28
331.343
330.414
329.497
328.591
327.699
326.819
325.954
325.104
324.269
323.45
322.648
321.862
321.093
320.342
319.608
318.892
318.194
317.513
316.851
316.206
315.578
314.969
314.376
313.801
313.244
312.703
312.179
311.671
311.179
310.704
310.244
309.799
309.369
308.954
308.553
308.166
307.792
307.432
307.084
306.75
306.427
306.116
305.816
305.527
305.249
304.981
304.723
304.474
304.235
304.004
303.782
303.567
303.361
303.161
302.969
302.783
302.603
302.43
302.262
302.099
301.941
301.787
301.638
301.493
301.351
301.213
301.077
300.944
300.814
300.685
300.558
300.433
300.308
300.185
300.062
353.813
353.329
352.781
352.175
351.514
350.806
350.053
349.261
348.434
347.576
346.691
345.782
344.853
343.907
342.947
341.976
340.996
340.01
339.021
338.03
337.039
336.051
335.067
334.089
333.119
332.156
331.204
330.263
329.334
328.418
327.516
326.628
325.756
324.899
324.059
323.236
322.43
321.641
320.87
320.117
319.383
318.666
317.968
317.288
316.626
315.983
315.357
314.75
314.16
313.588
313.033
312.495
311.974
311.47
310.982
310.51
310.053
309.612
309.186
308.775
308.378
307.995
307.625
307.268
306.925
306.594
306.274
305.967
305.671
305.385
305.11
304.845
304.59
304.345
304.108
303.88
303.66
303.448
303.243
303.046
302.855
302.671
302.493
302.32
302.153
301.991
301.834
301.681
301.532
301.386
301.244
301.105
300.969
300.835
300.703
300.573
300.444
300.316
300.19
300.063
355.162
354.666
354.104
353.482
352.806
352.079
351.308
350.496
349.648
348.769
347.861
346.93
345.977
345.007
344.023
343.028
342.023
341.013
339.998
338.983
337.967
336.955
335.946
334.944
333.949
332.962
331.986
331.021
330.069
329.13
328.205
327.295
326.401
325.523
324.662
323.818
322.992
322.183
321.393
320.622
319.869
319.134
318.418
317.721
317.043
316.383
315.742
315.119
314.515
313.928
313.359
312.808
312.274
311.757
311.257
310.773
310.305
309.853
309.416
308.995
308.588
308.195
307.816
307.451
307.098
306.759
306.432
306.116
305.813
305.52
305.238
304.967
304.705
304.454
304.211
303.977
303.752
303.534
303.325
303.122
302.927
302.738
302.555
302.379
302.207
302.041
301.88
301.723
301.57