/*--------------------------------*- C++ -*----------------------------------*\
| =========                 |                                                 |
| \\      /  F ield         | OpenFOAM: The Open Source CFD Toolbox           |
|  \\    /   O peration     | Version:  2406                                  |
|   \\  /    A nd           | Website:  www.openfoam.com                      |
|    \\/     M anipulation  |                                                 |
\*---------------------------------------------------------------------------*/
FoamFile
{
    version     2.0;
    format      ascii;
    arch        "LSB;label=32;scalar=64";
    class       volVectorField;
    location    "130";
    object      flux;
}
// * * * * * * * * * * * * * * * * * * * * * * * * * * * * * * * * * * * * * //

dimensions      [0 1 -1 1 0 0 0];

internalField   nonuniform List<vector> 
20000
(
(0.0017514 -0.000358497 0)
(0.00163604 0.00302672 0)
(0.00152487 0.00618528 0)
(0.00141785 0.00912581 0)
(0.00131487 0.0118563 0)
(0.00121587 0.0143849 0)
(0.00112094 0.0167196 0)
(0.00103012 0.0188685 0)
(0.000943042 0.0208397 0)
(0.000859688 0.0226403 0)
(0.000780253 0.0242783 0)
(0.000704564 0.0257612 0)
(0.000632403 0.0270964 0)
(0.000563712 0.0282906 0)
(0.000498485 0.0293511 0)
(0.000436656 0.0302845 0)
(0.00037811 0.0310976 0)
(0.000322725 0.0317968 0)
(0.000270399 0.0323884 0)
(0.000221046 0.0328784 0)
(0.000174584 0.0332725 0)
(0.000130924 0.0335766 0)
(8.99718e-05 0.0337962 0)
(5.16297e-05 0.0339365 0)
(1.57986e-05 0.0340027 0)
(-1.76191e-05 0.0339997 0)
(-4.87185e-05 0.0339322 0)
(-7.75928e-05 0.0338048 0)
(-0.000104333 0.0336219 0)
(-0.00012903 0.0333875 0)
(-0.00015177 0.0331058 0)
(-0.000172641 0.0327805 0)
(-0.000191729 0.0324153 0)
(-0.000209117 0.0320136 0)
(-0.000224888 0.0315789 0)
(-0.00023912 0.0311141 0)
(-0.000251894 0.0306224 0)
(-0.000263284 0.0301066 0)
(-0.000273365 0.0295694 0)
(-0.000282209 0.0290132 0)
(-0.000289886 0.0284406 0)
(-0.000296463 0.0278537 0)
(-0.000302007 0.0272548 0)
(-0.00030658 0.0266458 0)
(-0.000310244 0.0260286 0)
(-0.000313057 0.0254049 0)
(-0.000315078 0.0247764 0)
(-0.00031636 0.0241447 0)
(-0.000316956 0.0235111 0)
(-0.000316918 0.0228769 0)
(-0.000316292 0.0222435 0)
(-0.000315128 0.0216118 0)
(-0.000313467 0.020983 0)
(-0.000311355 0.020358 0)
(-0.000308831 0.0197377 0)
(-0.000305934 0.0191228 0)
(-0.000302702 0.018514 0)
(-0.00029917 0.0179121 0)
(-0.000295371 0.0173174 0)
(-0.000291338 0.0167306 0)
(-0.000287102 0.0161521 0)
(-0.000282691 0.0155823 0)
(-0.000278132 0.0150215 0)
(-0.000273452 0.0144698 0)
(-0.000268675 0.0139277 0)
(-0.000263824 0.0133952 0)
(-0.000258922 0.0128725 0)
(-0.000253988 0.0123596 0)
(-0.000249043 0.0118566 0)
(-0.000244105 0.0113635 0)
(-0.000239191 0.0108802 0)
(-0.000234317 0.0104068 0)
(-0.000229498 0.00994302 0)
(-0.000224749 0.00948884 0)
(-0.000220082 0.00904408 0)
(-0.000215511 0.00860856 0)
(-0.000211047 0.00818209 0)
(-0.0002067 0.00776443 0)
(-0.00020248 0.00735534 0)
(-0.000198398 0.00695456 0)
(-0.000194461 0.0065618 0)
(-0.000190677 0.00617676 0)
(-0.000187055 0.00579913 0)
(-0.0001836 0.00542859 0)
(-0.000180319 0.00506478 0)
(-0.000177218 0.00470735 0)
(-0.000174302 0.00435595 0)
(-0.000171576 0.00401019 0)
(-0.000169044 0.00366969 0)
(-0.000166709 0.00333406 0)
(-0.000164577 0.00300289 0)
(-0.000162649 0.00267579 0)
(-0.000160928 0.00235234 0)
(-0.000159418 0.00203212 0)
(-0.000158119 0.0017147 0)
(-0.000157034 0.00139968 0)
(-0.000156165 0.00108661 0)
(-0.000155512 0.000775057 0)
(-0.000155076 0.000464598 0)
(-0.000154857 0.000154793 0)
(0.00525377 -0.000358427 0)
(0.00490774 0.00302605 0)
(0.00457422 0.00618384 0)
(0.00425313 0.00912356 0)
(0.00394422 0.0118533 0)
(0.00364748 0.0143813 0)
(0.00336268 0.0167156 0)
(0.00308994 0.0188639 0)
(0.00282879 0.0208344 0)
(0.00257895 0.0226347 0)
(0.00234065 0.0242724 0)
(0.00211349 0.025755 0)
(0.00189699 0.0270897 0)
(0.00169098 0.0282836 0)
(0.00149536 0.0293438 0)
(0.00130989 0.030277 0)
(0.00113424 0.0310899 0)
(0.000968088 0.031789 0)
(0.000811119 0.0323804 0)
(0.000663077 0.0328702 0)
(0.000523707 0.0332643 0)
(0.000392742 0.0335683 0)
(0.000269897 0.0337879 0)
(0.00015488 0.0339281 0)
(4.73938e-05 0.0339943 0)
(-5.28522e-05 0.0339913 0)
(-0.000146144 0.0339239 0)
(-0.00023276 0.0337965 0)
(-0.000312975 0.0336136 0)
(-0.000387057 0.0333793 0)
(-0.000455273 0.0330976 0)
(-0.000517882 0.0327724 0)
(-0.000575141 0.0324073 0)
(-0.0006273 0.0320057 0)
(-0.000674607 0.0315711 0)
(-0.000717302 0.0311065 0)
(-0.000755619 0.0306149 0)
(-0.000789787 0.0300992 0)
(-0.000820027 0.0295621 0)
(-0.000846557 0.0290061 0)
(-0.000869586 0.0284336 0)
(-0.000889317 0.0278469 0)
(-0.000905946 0.0272481 0)
(-0.000919664 0.0266392 0)
(-0.000930655 0.0260221 0)
(-0.000939095 0.0253986 0)
(-0.000945156 0.0247703 0)
(-0.000949002 0.0241387 0)
(-0.000950791 0.0235053 0)
(-0.000950674 0.0228713 0)
(-0.000948799 0.022238 0)
(-0.000945305 0.0216065 0)
(-0.000940325 0.0209779 0)
(-0.000933988 0.020353 0)
(-0.000926416 0.0197328 0)
(-0.000917727 0.0191181 0)
(-0.000908031 0.0185095 0)
(-0.000897435 0.0179076 0)
(-0.00088604 0.0173132 0)
(-0.000873943 0.0167265 0)
(-0.000861235 0.0161482 0)
(-0.000848002 0.0155785 0)
(-0.000834327 0.0150177 0)
(-0.000820288 0.0144663 0)
(-0.000805958 0.0139243 0)
(-0.000791407 0.0133919 0)
(-0.000776702 0.0128693 0)
(-0.000761903 0.0123565 0)
(-0.000747069 0.0118537 0)
(-0.000732256 0.0113607 0)
(-0.000717514 0.0108775 0)
(-0.000702893 0.0104042 0)
(-0.000688438 0.00994057 0)
(-0.000674191 0.0094865 0)
(-0.000660193 0.00904185 0)
(-0.00064648 0.00860644 0)
(-0.000633088 0.00818007 0)
(-0.000620048 0.00776251 0)
(-0.000607391 0.00735352 0)
(-0.000595144 0.00695284 0)
(-0.000583335 0.00656018 0)
(-0.000571985 0.00617524 0)
(-0.000561119 0.0057977 0)
(-0.000550755 0.00542725 0)
(-0.000540914 0.00506353 0)
(-0.000531611 0.00470619 0)
(-0.000522864 0.00435488 0)
(-0.000514685 0.0040092 0)
(-0.000507089 0.00366878 0)
(-0.000500087 0.00333323 0)
(-0.00049369 0.00300215 0)
(-0.000487906 0.00267513 0)
(-0.000482745 0.00235176 0)
(-0.000478214 0.00203161 0)
(-0.000474318 0.00171428 0)
(-0.000471064 0.00139933 0)
(-0.000468456 0.00108634 0)
(-0.000466496 0.000774866 0)
(-0.000465189 0.000464484 0)
(-0.000464534 0.000154755 0)
(0.00875493 -0.000358337 0)
(0.0081783 0.0030245 0)
(0.00762238 0.00618085 0)
(0.0070873 0.00911908 0)
(0.00657257 0.0118475 0)
(0.00607815 0.0143742 0)
(0.00560361 0.0167073 0)
(0.00514897 0.0188546 0)
(0.00471381 0.0208241 0)
(0.00429765 0.0226235 0)
(0.00390051 0.0242604 0)
(0.00352185 0.0257423 0)
(0.00316106 0.0270763 0)
(0.00281782 0.0282696 0)
(0.00249188 0.0293293 0)
(0.00218282 0.0302621 0)
(0.00189011 0.0310746 0)
(0.0016132 0.0317733 0)
(0.00135162 0.0323644 0)
(0.00110493 0.032854 0)
(0.000872697 0.0332479 0)
(0.000654465 0.0335518 0)
(0.000449761 0.0337712 0)
(0.000258096 0.0339114 0)
(7.89805e-05 0.0339775 0)
(-8.80709e-05 0.0339745 0)
(-0.000243533 0.0339071 0)
(-0.00038787 0.0337798 0)
(-0.00052154 0.033597 0)
(-0.00064499 0.0333628 0)
(-0.000758664 0.0330813 0)
(-0.000862995 0.0327562 0)
(-0.00095841 0.0323913 0)
(-0.00104533 0.0319899 0)
(-0.00112416 0.0315555 0)
(-0.00119531 0.0310911 0)
(-0.00125916 0.0305998 0)
(-0.00131609 0.0300843 0)
(-0.00136649 0.0295475 0)
(-0.0014107 0.0289917 0)
(-0.00144907 0.0284195 0)
(-0.00148195 0.0278331 0)
(-0.00150966 0.0272346 0)
(-0.00153252 0.0266261 0)
(-0.00155084 0.0260093 0)
(-0.0015649 0.0253861 0)
(-0.001575 0.0247581 0)
(-0.00158141 0.0241268 0)
(-0.00158439 0.0234937 0)
(-0.0015842 0.02286 0)
(-0.00158107 0.022227 0)
(-0.00157525 0.0215958 0)
(-0.00156695 0.0209675 0)
(-0.00155639 0.020343 0)
(-0.00154377 0.0197231 0)
(-0.00152929 0.0191086 0)
(-0.00151314 0.0185003 0)
(-0.00149548 0.0178988 0)
(-0.00147649 0.0173046 0)
(-0.00145633 0.0167183 0)
(-0.00143515 0.0161402 0)
(-0.0014131 0.0155708 0)
(-0.00139032 0.0150103 0)
(-0.00136692 0.0144591 0)
(-0.00134304 0.0139174 0)
(-0.0013188 0.0133853 0)
(-0.00129429 0.012863 0)
(-0.00126963 0.0123504 0)
(-0.00124491 0.0118478 0)
(-0.00122023 0.0113551 0)
(-0.00119566 0.0108722 0)
(-0.0011713 0.0103991 0)
(-0.00114721 0.00993566 0)
(-0.00112347 0.00948181 0)
(-0.00110014 0.00903738 0)
(-0.00107729 0.00860219 0)
(-0.00105497 0.00817603 0)
(-0.00103324 0.00775868 0)
(-0.00101215 0.0073499 0)
(-0.000991744 0.00694941 0)
(-0.000972064 0.00655694 0)
(-0.000953152 0.00617219 0)
(-0.000935044 0.00579484 0)
(-0.000917774 0.00542457 0)
(-0.000901374 0.00506103 0)
(-0.000885873 0.00470387 0)
(-0.000871296 0.00435273 0)
(-0.000857668 0.00400722 0)
(-0.00084501 0.00366697 0)
(-0.000833342 0.00333159 0)
(-0.000822681 0.00300067 0)
(-0.000813044 0.00267381 0)
(-0.000804443 0.0023506 0)
(-0.000796892 0.00203061 0)
(-0.000790401 0.00171344 0)
(-0.000784978 0.00139864 0)
(-0.000780631 0.0010858 0)
(-0.000777366 0.000774484 0)
(-0.000775187 0.000464254 0)
(-0.000774096 0.000154679 0)
(0.0122539 -0.000358074 0)
(0.0114469 0.00302208 0)
(0.0106688 0.00617623 0)
(0.00991978 0.00911232 0)
(0.00919932 0.0118388 0)
(0.00850725 0.0143636 0)
(0.00784311 0.0166949 0)
(0.00720678 0.0188406 0)
(0.00659771 0.0208087 0)
(0.00601527 0.0226068 0)
(0.00545938 0.0242425 0)
(0.00492933 0.0257232 0)
(0.00442435 0.0270562 0)
(0.00394399 0.0282487 0)
(0.00348781 0.0293076 0)
(0.00305523 0.0302397 0)
(0.0026455 0.0310516 0)
(0.00225791 0.0317498 0)
(0.00189179 0.0323405 0)
(0.00154651 0.0328297 0)
(0.00122147 0.0332233 0)
(0.00091603 0.0335269 0)
(0.000629518 0.0337462 0)
(0.000361253 0.0338863 0)
(0.00011055 0.0339524 0)
(-0.000123267 0.0339494 0)
(-0.000340862 0.033882 0)
(-0.000542885 0.0337548 0)
(-0.000729977 0.0335721 0)
(-0.000902765 0.0333381 0)
(-0.00106187 0.0330568 0)
(-0.0012079 0.032732 0)
(-0.00134144 0.0323673 0)
(-0.0014631 0.0319662 0)
(-0.00157344 0.0315321 0)
(-0.00167302 0.0310681 0)
(-0.00176239 0.0305771 0)
(-0.00184208 0.0300621 0)
(-0.00191261 0.0295256 0)
(-0.00197449 0.0289703 0)
(-0.0020282 0.0283985 0)
(-0.00207422 0.0278125 0)
(-0.00211301 0.0272145 0)
(-0.002145 0.0266064 0)
(-0.00217064 0.02599 0)
(-0.00219032 0.0253673 0)
(-0.00220446 0.0247397 0)
(-0.00221343 0.0241089 0)
(-0.0022176 0.0234763 0)
(-0.00221733 0.0228431 0)
(-0.00221295 0.0222105 0)
(-0.0022048 0.0215798 0)
(-0.00219319 0.020952 0)
(-0.00217841 0.0203279 0)
(-0.00216075 0.0197085 0)
(-0.00214048 0.0190945 0)
(-0.00211787 0.0184866 0)
(-0.00209315 0.0178855 0)
(-0.00206658 0.0172918 0)
(-0.00203836 0.0167059 0)
(-0.00200872 0.0161282 0)
(-0.00197786 0.0155592 0)
(-0.00194596 0.0149992 0)
(-0.00191322 0.0144484 0)
(-0.0018798 0.0139071 0)
(-0.00184586 0.0133754 0)
(-0.00181156 0.0128534 0)
(-0.00177704 0.0123413 0)
(-0.00174244 0.011839 0)
(-0.00170789 0.0113467 0)
(-0.00167351 0.0108641 0)
(-0.00163941 0.0103914 0)
(-0.00160569 0.0099283 0)
(-0.00157247 0.00947479 0)
(-0.00153982 0.00903069 0)
(-0.00150783 0.00859582 0)
(-0.0014766 0.00816998 0)
(-0.00144618 0.00775294 0)
(-0.00141666 0.00734445 0)
(-0.0013881 0.00694426 0)
(-0.00136055 0.00655208 0)
(-0.00133408 0.00616762 0)
(-0.00130874 0.00579055 0)
(-0.00128457 0.00542055 0)
(-0.00126161 0.00505728 0)
(-0.00123992 0.00470039 0)
(-0.00121951 0.0043495 0)
(-0.00120044 0.00400425 0)
(-0.00118272 0.00366426 0)
(-0.00116639 0.00332912 0)
(-0.00115147 0.00299845 0)
(-0.00113798 0.00267183 0)
(-0.00112594 0.00234885 0)
(-0.00111537 0.00202911 0)
(-0.00110629 0.00171217 0)
(-0.0010987 0.00139761 0)
(-0.00109261 0.001085 0)
(-0.00108804 0.00077391 0)
(-0.00108499 0.000463911 0)
(-0.00108347 0.000154564 0)
(0.0157497 -0.000357551 0)
(0.0147126 0.00301911 0)
(0.0137126 0.0061701 0)
(0.0127498 0.00910331 0)
(0.0118238 0.011827 0)
(0.0109343 0.0143494 0)
(0.0100807 0.0166784 0)
(0.00926282 0.018822 0)
(0.00847998 0.0207882 0)
(0.0077314 0.0225845 0)
(0.00701689 0.0242185 0)
(0.00633558 0.0256978 0)
(0.00568656 0.0270295 0)
(0.00506919 0.0282208 0)
(0.00448289 0.0292786 0)
(0.00392688 0.0302098 0)
(0.00340024 0.031021 0)
(0.00290206 0.0317185 0)
(0.00243148 0.0323085 0)
(0.00198771 0.0327972 0)
(0.00156995 0.0331904 0)
(0.00117737 0.0334938 0)
(0.000809123 0.0337128 0)
(0.000464323 0.0338528 0)
(0.000142094 0.0339189 0)
(-0.000158432 0.0339159 0)
(-0.000438107 0.0338486 0)
(-0.000697767 0.0337215 0)
(-0.000938235 0.033539 0)
(-0.00116032 0.0333052 0)
(-0.00136481 0.0330241 0)
(-0.0015525 0.0326996 0)
(-0.00172415 0.0323353 0)
(-0.00188051 0.0319347 0)
(-0.00202233 0.031501 0)
(-0.00215031 0.0310374 0)
(-0.00226518 0.0305469 0)
(-0.00236761 0.0300324 0)
(-0.00245826 0.0294964 0)
(-0.00253779 0.0289417 0)
(-0.00260683 0.0283704 0)
(-0.00266598 0.0277851 0)
(-0.00271583 0.0271876 0)
(-0.00275695 0.0265801 0)
(-0.0027899 0.0259644 0)
(-0.0028152 0.0253422 0)
(-0.00283337 0.0247153 0)
(-0.0028449 0.0240851 0)
(-0.00285026 0.0234531 0)
(-0.00284991 0.0228205 0)
(-0.00284429 0.0221886 0)
(-0.00283382 0.0215585 0)
(-0.00281889 0.0209313 0)
(-0.00279989 0.0203078 0)
(-0.00277719 0.019689 0)
(-0.00275114 0.0190756 0)
(-0.00272208 0.0184684 0)
(-0.00269031 0.0178679 0)
(-0.00265615 0.0172747 0)
(-0.00261989 0.0166894 0)
(-0.00258179 0.0161123 0)
(-0.00254212 0.0155439 0)
(-0.00250113 0.0149844 0)
(-0.00245904 0.0144342 0)
(-0.00241608 0.0138934 0)
(-0.00237246 0.0133622 0)
(-0.00232838 0.0128407 0)
(-0.00228402 0.0123291 0)
(-0.00223955 0.0118273 0)
(-0.00219514 0.0113355 0)
(-0.00215095 0.0108534 0)
(-0.00210712 0.0103811 0)
(-0.00206379 0.00991849 0)
(-0.00202108 0.00946543 0)
(-0.00197911 0.00902177 0)
(-0.00193801 0.00858733 0)
(-0.00189786 0.00816191 0)
(-0.00185877 0.00774528 0)
(-0.00182082 0.0073372 0)
(-0.00178411 0.0069374 0)
(-0.00174871 0.00654561 0)
(-0.00171469 0.00616153 0)
(-0.00168211 0.00578483 0)
(-0.00165104 0.0054152 0)
(-0.00162154 0.00505229 0)
(-0.00159365 0.00469574 0)
(-0.00156743 0.00434521 0)
(-0.00154291 0.0040003 0)
(-0.00152014 0.00366064 0)
(-0.00149915 0.00332583 0)
(-0.00147997 0.00299549 0)
(-0.00146264 0.00266919 0)
(-0.00144716 0.00234653 0)
(-0.00143358 0.0020271 0)
(-0.0014219 0.00171048 0)
(-0.00141215 0.00139623 0)
(-0.00140433 0.00108393 0)
(-0.00139845 0.000773146 0)
(-0.00139453 0.000463452 0)
(-0.00139257 0.000154412 0)
(0.0192416 -0.000357044 0)
(0.0179746 0.00301547 0)
(0.016753 0.00616247 0)
(0.0155767 0.00909205 0)
(0.0144454 0.0118124 0)
(0.0133586 0.0143316 0)
(0.0123158 0.0166578 0)
(0.0113166 0.0187988 0)
(0.0103601 0.0207625 0)
(0.00944561 0.0225566 0)
(0.00857266 0.0241886 0)
(0.00774028 0.025666 0)
(0.00694737 0.0269961 0)
(0.00619315 0.0281859 0)
(0.00547686 0.0292425 0)
(0.00479755 0.0301725 0)
(0.00415413 0.0309826 0)
(0.00354548 0.0316793 0)
(0.00297057 0.0322686 0)
(0.00242841 0.0327567 0)
(0.00191804 0.0331494 0)
(0.00143843 0.0334524 0)
(0.000988531 0.0336712 0)
(0.00056728 0.033811 0)
(0.000173603 0.0338769 0)
(-0.000193558 0.033874 0)
(-0.000535244 0.0338067 0)
(-0.000852477 0.0336798 0)
(-0.00114626 0.0334975 0)
(-0.00141758 0.033264 0)
(-0.00166742 0.0329833 0)
(-0.00189672 0.0326592 0)
(-0.00210642 0.0322954 0)
(-0.00229746 0.0318952 0)
(-0.00247071 0.031462 0)
(-0.00262708 0.030999 0)
(-0.00276741 0.0305092 0)
(-0.00289255 0.0299953 0)
(-0.00300331 0.02946 0)
(-0.00310047 0.0289059 0)
(-0.00318481 0.0283354 0)
(-0.00325708 0.0277507 0)
(-0.00331798 0.027154 0)
(-0.00336822 0.0265472 0)
(-0.00340847 0.0259323 0)
(-0.00343939 0.0253109 0)
(-0.00346158 0.0246848 0)
(-0.00347567 0.0240554 0)
(-0.00348222 0.0234241 0)
(-0.00348179 0.0227923 0)
(-0.00347493 0.0221612 0)
(-0.00346213 0.0215319 0)
(-0.00344389 0.0209054 0)
(-0.00342068 0.0202827 0)
(-0.00339295 0.0196647 0)
(-0.00336112 0.0190521 0)
(-0.00332561 0.0184455 0)
(-0.00328681 0.0178458 0)
(-0.00324507 0.0172534 0)
(-0.00320077 0.0166688 0)
(-0.00315423 0.0160924 0)
(-0.00310576 0.0155247 0)
(-0.00305568 0.0149659 0)
(-0.00300426 0.0144163 0)
(-0.00295178 0.0138762 0)
(-0.00289849 0.0133457 0)
(-0.00284463 0.0128249 0)
(-0.00279043 0.0123139 0)
(-0.0027361 0.0118127 0)
(-0.00268185 0.0113214 0)
(-0.00262786 0.01084 0)
(-0.00257431 0.0103683 0)
(-0.00252137 0.00990624 0)
(-0.00246919 0.00945374 0)
(-0.00241792 0.00901062 0)
(-0.0023677 0.00857672 0)
(-0.00231865 0.00815182 0)
(-0.00227089 0.00773571 0)
(-0.00222454 0.00732813 0)
(-0.00217968 0.00692883 0)
(-0.00213643 0.00653753 0)
(-0.00209486 0.00615391 0)
(-0.00205507 0.00577768 0)
(-0.00201711 0.00540851 0)
(-0.00198107 0.00504604 0)
(-0.001947 0.00468994 0)
(-0.00191496 0.00433984 0)
(-0.00188501 0.00399536 0)
(-0.00185719 0.00365611 0)
(-0.00183154 0.00332172 0)
(-0.00180811 0.00299178 0)
(-0.00178693 0.00266589 0)
(-0.00176803 0.00234364 0)
(-0.00175143 0.0020246 0)
(-0.00173717 0.00170836 0)
(-0.00172525 0.0013945 0)
(-0.00171569 0.00108259 0)
(-0.00170852 0.000772191 0)
(-0.00170373 0.00046288 0)
(-0.00170133 0.000154221 0)
(0.0227287 -0.000356566 0)
(0.0212321 0.00301102 0)
(0.0197892 0.00615334 0)
(0.0183998 0.00907856 0)
(0.0170634 0.0117949 0)
(0.0157797 0.0143104 0)
(0.0145479 0.0166331 0)
(0.0133675 0.0187709 0)
(0.0122378 0.0207317 0)
(0.0111575 0.0225231 0)
(0.0101263 0.0241527 0)
(0.00914307 0.0256279 0)
(0.00820647 0.026956 0)
(0.00731558 0.0281441 0)
(0.00646948 0.0291991 0)
(0.00566705 0.0301277 0)
(0.00490699 0.0309367 0)
(0.00418802 0.0316323 0)
(0.00350892 0.0322207 0)
(0.00286852 0.0327081 0)
(0.00226565 0.0331002 0)
(0.00169913 0.0334028 0)
(0.0011677 0.0336212 0)
(0.000670099 0.0337608 0)
(0.000205071 0.0338267 0)
(-0.000228636 0.0338237 0)
(-0.00063225 0.0337566 0)
(-0.00100698 0.0336298 0)
(-0.00135401 0.0334478 0)
(-0.0016745 0.0332147 0)
(-0.00196961 0.0329344 0)
(-0.00224047 0.0326108 0)
(-0.00248818 0.0322475 0)
(-0.00271384 0.0318479 0)
(-0.00291849 0.0314154 0)
(-0.0031032 0.030953 0)
(-0.00326897 0.0304639 0)
(-0.00341678 0.0299507 0)
(-0.00354761 0.0294163 0)
(-0.00366238 0.028863 0)
(-0.00376201 0.0282934 0)
(-0.00384737 0.0277095 0)
(-0.00391931 0.0271137 0)
(-0.00397866 0.0265078 0)
(-0.00402621 0.0258938 0)
(-0.00406272 0.0252734 0)
(-0.00408894 0.0246481 0)
(-0.00410558 0.0240197 0)
(-0.00411332 0.0233893 0)
(-0.00411282 0.0227585 0)
(-0.0041047 0.0221283 0)
(-0.00408959 0.0214999 0)
(-0.00406804 0.0208744 0)
(-0.00404063 0.0202526 0)
(-0.00400787 0.0196355 0)
(-0.00397028 0.0190238 0)
(-0.00392833 0.0184182 0)
(-0.00388249 0.0178193 0)
(-0.00383319 0.0172278 0)
(-0.00378086 0.016644 0)
(-0.00372588 0.0160685 0)
(-0.00366863 0.0155016 0)
(-0.00360947 0.0149437 0)
(-0.00354874 0.0143949 0)
(-0.00348674 0.0138556 0)
(-0.00342379 0.0133259 0)
(-0.00336017 0.0128058 0)
(-0.00329615 0.0122956 0)
(-0.00323198 0.0117952 0)
(-0.00316789 0.0113046 0)
(-0.00310412 0.0108239 0)
(-0.00304086 0.0103529 0)
(-0.00297833 0.00989154 0)
(-0.00291669 0.00943971 0)
(-0.00285613 0.00899725 0)
(-0.00279681 0.00856399 0)
(-0.00273887 0.00813973 0)
(-0.00268246 0.00772423 0)
(-0.0026277 0.00731726 0)
(-0.00257472 0.00691855 0)
(-0.00252363 0.00652783 0)
(-0.00247453 0.00614478 0)
(-0.00242752 0.00576911 0)
(-0.00238268 0.00540048 0)
(-0.0023401 0.00503856 0)
(-0.00229986 0.00468298 0)
(-0.00226202 0.0043334 0)
(-0.00222664 0.00398943 0)
(-0.00219377 0.00365069 0)
(-0.00216348 0.00331679 0)
(-0.00213581 0.00298735 0)
(-0.00211079 0.00266194 0)
(-0.00208846 0.00234016 0)
(-0.00206885 0.00202159 0)
(-0.002052 0.00170583 0)
(-0.00203792 0.00139243 0)
(-0.00202664 0.00108098 0)
(-0.00201816 0.000771045 0)
(-0.0020125 0.000462193 0)
(-0.00200967 0.000153992 0)
(0.0262104 -0.000356001 0)
(0.0244845 0.0030058 0)
(0.0228205 0.00614268 0)
(0.0212183 0.00906284 0)
(0.0196772 0.0117744 0)
(0.0181968 0.0142856 0)
(0.0167763 0.0166043 0)
(0.0154152 0.0187384 0)
(0.0141123 0.0206958 0)
(0.0128666 0.0224841 0)
(0.0116775 0.0241108 0)
(0.0105436 0.0255835 0)
(0.00946356 0.0269093 0)
(0.0084362 0.0280953 0)
(0.0074605 0.0291485 0)
(0.00653514 0.0300755 0)
(0.00565864 0.0308831 0)
(0.00482953 0.0315774 0)
(0.00404641 0.0321649 0)
(0.00330792 0.0326514 0)
(0.00261272 0.0330429 0)
(0.00195941 0.0333449 0)
(0.00134658 0.033563 0)
(0.000772753 0.0337023 0)
(0.000236488 0.0337681 0)
(-0.000263657 0.0337651 0)
(-0.000729099 0.0336981 0)
(-0.00116123 0.0335716 0)
(-0.00156142 0.0333899 0)
(-0.00193101 0.0331571 0)
(-0.00227132 0.0328773 0)
(-0.00258367 0.0325543 0)
(-0.00286933 0.0321916 0)
(-0.00312955 0.0317927 0)
(-0.00336555 0.0313609 0)
(-0.00357855 0.0308994 0)
(-0.00376971 0.0304111 0)
(-0.00394017 0.0298989 0)
(-0.00409104 0.0293653 0)
(-0.00422339 0.028813 0)
(-0.00433828 0.0282443 0)
(-0.00443672 0.0276615 0)
(-0.00451968 0.0270667 0)
(-0.00458812 0.0264619 0)
(-0.00464295 0.0258489 0)
(-0.00468506 0.0252296 0)
(-0.00471529 0.0246054 0)
(-0.00473448 0.023978 0)
(-0.0047434 0.0233488 0)
(-0.00474282 0.022719 0)
(-0.00473347 0.02209 0)
(-0.00471603 0.0214627 0)
(-0.00469119 0.0208382 0)
(-0.00465958 0.0202175 0)
(-0.0046218 0.0196015 0)
(-0.00457845 0.0189908 0)
(-0.00453008 0.0183863 0)
(-0.00447722 0.0177884 0)
(-0.00442037 0.0171979 0)
(-0.00436002 0.0166152 0)
(-0.00429662 0.0160407 0)
(-0.0042306 0.0154748 0)
(-0.00416238 0.0149178 0)
(-0.00409234 0.01437 0)
(-0.00402085 0.0138316 0)
(-0.00394825 0.0133028 0)
(-0.00387489 0.0127836 0)
(-0.00380106 0.0122743 0)
(-0.00372706 0.0117748 0)
(-0.00365315 0.0112851 0)
(-0.00357961 0.0108051 0)
(-0.00350667 0.010335 0)
(-0.00343455 0.0098744 0)
(-0.00336348 0.00942336 0)
(-0.00329364 0.00898167 0)
(-0.00322523 0.00854915 0)
(-0.00315841 0.00812562 0)
(-0.00309336 0.00771085 0)
(-0.00303021 0.00730458 0)
(-0.00296912 0.00690656 0)
(-0.0029102 0.00651651 0)
(-0.00285358 0.00613414 0)
(-0.00279937 0.00575911 0)
(-0.00274766 0.00539113 0)
(-0.00269857 0.00502983 0)
(-0.00265216 0.00467487 0)
(-0.00260852 0.00432589 0)
(-0.00256772 0.00398251 0)
(-0.00252982 0.00364436 0)
(-0.00249489 0.00331105 0)
(-0.00246297 0.00298217 0)
(-0.00243412 0.00265732 0)
(-0.00240837 0.0023361 0)
(-0.00238576 0.00201809 0)
(-0.00236633 0.00170287 0)
(-0.00235009 0.00139002 0)
(-0.00233708 0.00107911 0)
(-0.0023273 0.000769709 0)
(-0.00232078 0.000461392 0)
(-0.00231752 0.000153725 0)
(0.0296855 -0.000355311 0)
(0.0277308 0.00299984 0)
(0.0258462 0.0061305 0)
(0.0240315 0.00904488 0)
(0.0222861 0.0117511 0)
(0.0206095 0.0142573 0)
(0.0190006 0.0165713 0)
(0.017459 0.0187012 0)
(0.0159834 0.0206547 0)
(0.0145726 0.0224395 0)
(0.0132258 0.024063 0)
(0.0119416 0.0255328 0)
(0.0107183 0.026856 0)
(0.00955475 0.0280396 0)
(0.00844967 0.0290907 0)
(0.00740161 0.0300159 0)
(0.00640889 0.0308218 0)
(0.00546985 0.0315148 0)
(0.0045829 0.0321011 0)
(0.0037465 0.0325867 0)
(0.00295913 0.0329774 0)
(0.00221921 0.0332788 0)
(0.00152512 0.0334964 0)
(0.000875217 0.0336355 0)
(0.000267848 0.0337011 0)
(-0.000298614 0.0336982 0)
(-0.000825769 0.0336313 0)
(-0.0013152 0.033505 0)
(-0.00176844 0.0333237 0)
(-0.00218704 0.0330914 0)
(-0.00257247 0.0328122 0)
(-0.00292623 0.0324897 0)
(-0.00324976 0.0321278 0)
(-0.00354448 0.0317297 0)
(-0.00381178 0.0312988 0)
(-0.00405302 0.0308382 0)
(-0.00426953 0.0303508 0)
(-0.00446259 0.0298396 0)
(-0.00463346 0.0293071 0)
(-0.00478336 0.0287559 0)
(-0.00491348 0.0281883 0)
(-0.00502497 0.0276067 0)
(-0.00511893 0.0270131 0)
(-0.00519644 0.0264095 0)
(-0.00525854 0.0257977 0)
(-0.00530623 0.0251796 0)
(-0.00534048 0.0245567 0)
(-0.00536221 0.0239305 0)
(-0.00537232 0.0233025 0)
(-0.00537166 0.022674 0)
(-0.00536107 0.0220462 0)
(-0.00534132 0.0214201 0)
(-0.00531318 0.0207969 0)
(-0.00527738 0.0201775 0)
(-0.00523459 0.0195626 0)
(-0.00518549 0.0189532 0)
(-0.00513071 0.0183498 0)
(-0.00507084 0.0177532 0)
(-0.00500645 0.0171638 0)
(-0.0049381 0.0165822 0)
(-0.00486629 0.0160089 0)
(-0.00479152 0.0154441 0)
(-0.00471425 0.0148882 0)
(-0.00463493 0.0143415 0)
(-0.00455396 0.0138042 0)
(-0.00447174 0.0132764 0)
(-0.00438865 0.0127583 0)
(-0.00430503 0.01225 0)
(-0.00422121 0.0117514 0)
(-0.00413751 0.0112627 0)
(-0.00405422 0.0107837 0)
(-0.0039716 0.0103145 0)
(-0.00388993 0.00985483 0)
(-0.00380943 0.00940467 0)
(-0.00373033 0.00896386 0)
(-0.00365285 0.00853221 0)
(-0.00357718 0.00810951 0)
(-0.0035035 0.00769556 0)
(-0.00343198 0.0072901 0)
(-0.00336278 0.00689287 0)
(-0.00329605 0.0065036 0)
(-0.00323193 0.00612197 0)
(-0.00317053 0.0057477 0)
(-0.00311197 0.00538044 0)
(-0.00305636 0.00501986 0)
(-0.0030038 0.0046656 0)
(-0.00295437 0.00431731 0)
(-0.00290816 0.00397462 0)
(-0.00286524 0.00363714 0)
(-0.00282568 0.00330448 0)
(-0.00278953 0.00297626 0)
(-0.00275685 0.00265206 0)
(-0.00272769 0.00233147 0)
(-0.00270208 0.00201409 0)
(-0.00268007 0.0016995 0)
(-0.00266169 0.00138726 0)
(-0.00264695 0.00107697 0)
(-0.00263588 0.000768183 0)
(-0.00262849 0.000460477 0)
(-0.00262479 0.00015342 0)
(0.0331533 -0.000354516 0)
(0.0309703 0.00299314 0)
(0.0288656 0.00611681 0)
(0.0268389 0.00902468 0)
(0.0248896 0.0117249 0)
(0.023017 0.0142254 0)
(0.0212203 0.0165343 0)
(0.0194986 0.0186595 0)
(0.0178506 0.0206086 0)
(0.0162749 0.0223894 0)
(0.0147708 0.0240093 0)
(0.0133366 0.0254758 0)
(0.0119704 0.026796 0)
(0.0106709 0.027977 0)
(0.00943676 0.0290257 0)
(0.00826626 0.0299489 0)
(0.00715756 0.030753 0)
(0.00610882 0.0314445 0)
(0.00511826 0.0320294 0)
(0.00418416 0.0325139 0)
(0.00330482 0.0329037 0)
(0.00247847 0.0332045 0)
(0.0017033 0.0334216 0)
(0.000977467 0.0335604 0)
(0.000299141 0.0336259 0)
(-0.000333496 0.0336229 0)
(-0.000922236 0.0335562 0)
(-0.00146884 0.0334302 0)
(-0.00197503 0.0332493 0)
(-0.00244253 0.0330175 0)
(-0.00287299 0.0327389 0)
(-0.00326808 0.0324172 0)
(-0.0036294 0.032056 0)
(-0.00395855 0.0316588 0)
(-0.00425707 0.0312289 0)
(-0.00452649 0.0307693 0)
(-0.00476829 0.030283 0)
(-0.0049839 0.0297729 0)
(-0.00517473 0.0292416 0)
(-0.00534215 0.0286917 0)
(-0.00548747 0.0281254 0)
(-0.00561198 0.027545 0)
(-0.00571692 0.0269527 0)
(-0.00580348 0.0263505 0)
(-0.00587284 0.0257401 0)
(-0.0059261 0.0251233 0)
(-0.00596435 0.0245018 0)
(-0.00598862 0.0238771 0)
(-0.0059999 0.0232505 0)
(-0.00599917 0.0226234 0)
(-0.00598734 0.0219969 0)
(-0.00596529 0.0213723 0)
(-0.00593386 0.0207505 0)
(-0.00589387 0.0201324 0)
(-0.00584609 0.0195189 0)
(-0.00579126 0.0189108 0)
(-0.00573007 0.0183088 0)
(-0.00566321 0.0177135 0)
(-0.0055913 0.0171255 0)
(-0.00551496 0.0165452 0)
(-0.00543477 0.0159731 0)
(-0.00535126 0.0154096 0)
(-0.00526497 0.014855 0)
(-0.00517637 0.0143095 0)
(-0.00508595 0.0137733 0)
(-0.00499413 0.0132468 0)
(-0.00490133 0.0127298 0)
(-0.00480794 0.0122226 0)
(-0.00471433 0.0117252 0)
(-0.00462085 0.0112375 0)
(-0.00452783 0.0107596 0)
(-0.00443556 0.0102914 0)
(-0.00434434 0.00983282 0)
(-0.00425444 0.00938367 0)
(-0.00416611 0.00894384 0)
(-0.00407957 0.00851315 0)
(-0.00399506 0.0080914 0)
(-0.00391277 0.00767837 0)
(-0.0038329 0.00727382 0)
(-0.00375562 0.00687748 0)
(-0.0036811 0.00648907 0)
(-0.00360948 0.0061083 0)
(-0.0035409 0.00573486 0)
(-0.00347551 0.00536842 0)
(-0.0034134 0.00500865 0)
(-0.0033547 0.00465518 0)
(-0.0032995 0.00430767 0)
(-0.00324789 0.00396574 0)
(-0.00319996 0.00362902 0)
(-0.00315577 0.0032971 0)
(-0.0031154 0.00296961 0)
(-0.0030789 0.00264613 0)
(-0.00304633 0.00232627 0)
(-0.00301774 0.00200959 0)
(-0.00299316 0.0016957 0)
(-0.00297262 0.00138417 0)
(-0.00295616 0.00107456 0)
(-0.0029438 0.000766467 0)
(-0.00293554 0.000459449 0)
(-0.00293141 0.000153078 0)
(0.036613 -0.000353632 0)
(0.0342021 0.0029857 0)
(0.0318778 0.00610161 0)
(0.0296396 0.00900226 0)
(0.0274869 0.0116957 0)
(0.0254189 0.0141901 0)
(0.0234347 0.0164932 0)
(0.0215333 0.0186131 0)
(0.0197134 0.0205574 0)
(0.0179733 0.0223337 0)
(0.0163122 0.0239497 0)
(0.0147283 0.0254125 0)
(0.0132195 0.0267294 0)
(0.0117845 0.0279075 0)
(0.0104215 0.0289536 0)
(0.00912886 0.0298745 0)
(0.00790446 0.0306766 0)
(0.00674628 0.0313663 0)
(0.00565236 0.0319498 0)
(0.00462079 0.0324331 0)
(0.0036497 0.032822 0)
(0.00273712 0.033122 0)
(0.00188105 0.0333386 0)
(0.00107947 0.033477 0)
(0.000330361 0.0335423 0)
(-0.000368297 0.0335394 0)
(-0.00101848 0.0334728 0)
(-0.00162212 0.0333471 0)
(-0.00218114 0.0331667 0)
(-0.00269741 0.0329355 0)
(-0.0031728 0.0326575 0)
(-0.00360911 0.0323366 0)
(-0.00400814 0.0319764 0)
(-0.00437163 0.0315802 0)
(-0.00470131 0.0311513 0)
(-0.00499885 0.0306928 0)
(-0.00526587 0.0302078 0)
(-0.00550399 0.029699 0)
(-0.00571473 0.029169 0)
(-0.00589962 0.0286204 0)
(-0.0060601 0.0280555 0)
(-0.00619761 0.0274766 0)
(-0.0063135 0.0268858 0)
(-0.0064091 0.026285 0)
(-0.00648569 0.0256761 0)
(-0.00654451 0.0250609 0)
(-0.00658675 0.0244409 0)
(-0.00661355 0.0238177 0)
(-0.00662601 0.0231927 0)
(-0.0066252 0.0225672 0)
(-0.00661214 0.0219423 0)
(-0.00658778 0.0213192 0)
(-0.00655308 0.0206989 0)
(-0.00650892 0.0200824 0)
(-0.00645615 0.0194704 0)
(-0.00639559 0.0188639 0)
(-0.00632802 0.0182633 0)
(-0.00625418 0.0176695 0)
(-0.00617477 0.0170829 0)
(-0.00609047 0.0165041 0)
(-0.0060019 0.0159334 0)
(-0.00590968 0.0153713 0)
(-0.00581438 0.0148181 0)
(-0.00571654 0.0142739 0)
(-0.00561668 0.0137391 0)
(-0.00551528 0.0132138 0)
(-0.00541279 0.0126982 0)
(-0.00530966 0.0121922 0)
(-0.00520629 0.011696 0)
(-0.00510305 0.0112096 0)
(-0.00500032 0.0107329 0)
(-0.00489843 0.0102659 0)
(-0.00479769 0.00980839 0)
(-0.00469841 0.00936035 0)
(-0.00460085 0.00892162 0)
(-0.00450529 0.008492 0)
(-0.00441196 0.0080713 0)
(-0.00432108 0.00765929 0)
(-0.00423288 0.00725574 0)
(-0.00414753 0.00686039 0)
(-0.00406523 0.00647295 0)
(-0.00398614 0.00609313 0)
(-0.00391041 0.00572061 0)
(-0.00383819 0.00535508 0)
(-0.0037696 0.0049962 0)
(-0.00370477 0.00464362 0)
(-0.00364381 0.00429697 0)
(-0.00358682 0.00395589 0)
(-0.00353388 0.00362 0)
(-0.00348508 0.00328891 0)
(-0.0034405 0.00296223 0)
(-0.0034002 0.00263956 0)
(-0.00336423 0.00232048 0)
(-0.00333265 0.0020046 0)
(-0.0033055 0.00169149 0)
(-0.00328282 0.00138073 0)
(-0.00326464 0.00107189 0)
(-0.00325099 0.000764563 0)
(-0.00324188 0.000458307 0)
(-0.00323732 0.000152697 0)
(0.0400636 -0.000352663 0)
(0.0374255 0.00297753 0)
(0.0348821 0.00608491 0)
(0.032433 0.00897761 0)
(0.0300774 0.0116637 0)
(0.0278146 0.0141512 0)
(0.0256433 0.0164481 0)
(0.0235627 0.0185621 0)
(0.0215713 0.0205011 0)
(0.0196672 0.0222726 0)
(0.0178495 0.0238841 0)
(0.0161163 0.0253429 0)
(0.0144654 0.0266562 0)
(0.0128951 0.0278311 0)
(0.0114037 0.0288743 0)
(0.00998922 0.0297927 0)
(0.00864942 0.0305926 0)