/*--------------------------------*- C++ -*----------------------------------*\
| =========                 |                                                 |
| \\      /  F ield         | OpenFOAM: The Open Source CFD Toolbox           |
|  \\    /   O peration     | Version:  2406                                  |
|   \\  /    A nd           | Website:  www.openfoam.com                      |
|    \\/     M anipulation  |                                                 |
\*---------------------------------------------------------------------------*/
FoamFile
{
    version     2.0;
    format      ascii;
    arch        "LSB;label=32;scalar=64";
    class       volScalarField;
    location    "50";
    object      gradTx;
}
// * * * * * * * * * * * * * * * * * * * * * * * * * * * * * * * * * * * * * //

dimensions      [0 -1 0 1 0 0 0];

internalField   nonuniform List<scalar> 
20000
(
-7.64764
-7.23776
-6.83451
-6.43914
-6.05283
-5.6783
-5.31642
-4.96708
-4.63135
-4.31009
-4.00366
-3.71217
-3.43559
-3.17386
-2.92682
-2.69425
-2.47583
-2.27121
-2.07995
-1.90159
-1.73562
-1.58151
-1.43871
-1.30668
-1.18484
-1.07263
-0.969495
-0.874885
-0.78826
-0.709097
-0.636887
-0.571141
-0.51139
-0.457184
-0.408098
-0.363727
-0.323687
-0.28762
-0.255186
-0.226071
-0.199978
-0.176634
-0.155784
-0.137192
-0.120642
-0.105933
-0.0928816
-0.0813202
-0.071095
-0.062066
-0.054106
-0.0470995
-0.040942
-0.0355392
-0.0308057
-0.0266653
-0.023049
-0.0198955
-0.0171496
-0.0147623
-0.0126898
-0.0108934
-0.00933853
-0.00799476
-0.00683511
-0.00583582
-0.00497596
-0.00423715
-0.00360326
-0.00306017
-0.00259552
-0.00219856
-0.00185989
-0.00157136
-0.00132589
-0.00111734
-0.000940401
-0.000790492
-0.000663655
-0.000556487
-0.000466064
-0.000389875
-0.000325769
-0.00027191
-0.000226727
-0.000188883
-0.000157241
-0.000130837
-0.000108851
-9.05955e-05
-7.54882e-05
-6.30425e-05
-5.28521e-05
-4.45803e-05
-3.7951e-05
-3.27408e-05
-2.87724e-05
-2.591e-05
-2.40546e-05
-2.31421e-05
-22.9415
-21.712
-20.5012
-19.3152
-18.1575
-17.0339
-15.9477
-14.8998
-13.8929
-12.9293
-12.0101
-11.1356
-10.3059
-9.52079
-8.77973
-8.08207
-7.42689
-6.81307
-6.23935
-5.7043
-5.20643
-4.74413
-4.31579
-3.91971
-3.55422
-3.21762
-2.90824
-2.62444
-2.36459
-2.12712
-1.9105
-1.71328
-1.53404
-1.37144
-1.22419
-1.09109
-0.970981
-0.862788
-0.765495
-0.678156
-0.599884
-0.529858
-0.467313
-0.411542
-0.361895
-0.317772
-0.278622
-0.24394
-0.213267
-0.186183
-0.162305
-0.141287
-0.122816
-0.106609
-0.0924096
-0.0799893
-0.0691415
-0.0596816
-0.0514446
-0.0442832
-0.0380663
-0.0326775
-0.0280133
-0.0239823
-0.0205036
-0.017506
-0.0149267
-0.0127104
-0.0108089
-0.00917975
-0.00778593
-0.00659513
-0.00557921
-0.00471369
-0.00397734
-0.00335174
-0.00282098
-0.00237128
-0.00199081
-0.00166933
-0.00139808
-0.00116953
-0.00097723
-0.000815665
-0.000680127
-0.000566605
-0.000471687
-0.000392479
-0.000326528
-0.000271765
-0.000226447
-0.000189113
-0.000158544
-0.000133731
-0.000113844
-9.82149e-05
-8.63107e-05
-7.7724e-05
-7.21587e-05
-6.94218e-05
-38.2296
-36.181
-34.1631
-32.1865
-30.2579
-28.3855
-26.5748
-24.8286
-23.1509
-21.5453
-20.0136
-18.5564
-17.1738
-15.8654
-14.6305
-13.4679
-12.3761
-11.3532
-10.3972
-9.5056
-8.67595
-7.90559
-7.19179
-6.53178
-5.92272
-5.36182
-4.84628
-4.37334
-3.94033
-3.54461
-3.18365
-2.855
-2.55632
-2.28536
-2.03999
-1.81818
-1.61804
-1.43774
-1.27562
-1.13007
-0.999643
-0.882951
-0.778726
-0.685791
-0.60306
-0.529533
-0.464293
-0.406501
-0.355387
-0.310253
-0.270463
-0.235439
-0.20466
-0.177652
-0.153991
-0.133294
-0.115217
-0.0994529
-0.0857268
-0.0737932
-0.0634335
-0.0544535
-0.0466812
-0.039964
-0.0341671
-0.0291719
-0.0248737
-0.0211806
-0.0180119
-0.0152971
-0.0129744
-0.0109901
-0.00929716
-0.00785487
-0.00662782
-0.00558533
-0.00470086
-0.0039515
-0.00331747
-0.00278176
-0.00232976
-0.0019489
-0.00162845
-0.00135922
-0.00113336
-0.000944189
-0.000786019
-0.000654026
-0.000544126
-0.000452869
-0.000377351
-0.000315138
-0.000264198
-0.000222849
-0.00018971
-0.000163665
-0.000143828
-0.00012952
-0.000120246
-0.000115686
-53.5078
-50.6407
-47.8167
-45.05
-42.3509
-39.73
-37.1953
-34.7512
-32.4033
-30.1561
-28.0122
-25.9726
-24.0373
-22.206
-20.4776
-18.8504
-17.3223
-15.8906
-14.5525
-13.3046
-12.1433
-11.0651
-10.066
-9.14223
-8.28977
-7.5047
-6.78311
-6.12117
-5.5151
-4.96123
-4.45601
-3.99601
-3.57796
-3.19871
-2.85528
-2.54483
-2.26469
-2.01234
-1.78542
-1.58171
-1.39915
-1.23583
-1.08995
-0.959871
-0.844076
-0.741164
-0.649851
-0.568961
-0.497419
-0.434248
-0.378555
-0.329534
-0.286453
-0.248651
-0.215534
-0.186565
-0.161264
-0.1392
-0.119988
-0.103285
-0.088785
-0.0762162
-0.0653376
-0.0559358
-0.0478222
-0.0408307
-0.0348146
-0.0296455
-0.0252105
-0.0214107
-0.0181598
-0.0153824
-0.0130128
-0.0109941
-0.00927668
-0.00781755
-0.0065796
-0.00553075
-0.00464333
-0.00389352
-0.00326086
-0.0027278
-0.00227928
-0.00190245
-0.00158632
-0.00132154
-0.00110016
-0.000915415
-0.000761593
-0.000633864
-0.000528165
-0.000441087
-0.000369788
-0.000311913
-0.000265531
-0.000229077
-0.000201312
-0.000181285
-0.000168305
-0.000161924
-68.7729
-65.0879
-61.4585
-57.9024
-54.4333
-51.0646
-47.8066
-44.6652
-41.6477
-38.7595
-36.004
-33.3824
-30.895
-28.5412
-26.3196
-24.2282
-22.2641
-20.4241
-18.7042
-17.1002
-15.6077
-14.2219
-12.9378
-11.7504
-10.6548
-9.64572
-8.71828
-7.86749
-7.08851
-6.37662
-5.72727
-5.13604
-4.59872
-4.11127
-3.66986
-3.27085
-2.91079
-2.58645
-2.29479
-2.03296
-1.79832
-1.5884
-1.4009
-1.23371
-1.08488
-0.952611
-0.835247
-0.73128
-0.639329
-0.558135
-0.486554
-0.423547
-0.368176
-0.31959
-0.277024
-0.239791
-0.207271
-0.178912
-0.15422
-0.132751
-0.114115
-0.0979601
-0.0839779
-0.0718939
-0.0614656
-0.0524794
-0.044747
-0.0381032
-0.0324029
-0.027519
-0.0233406
-0.0197709
-0.0167253
-0.0141307
-0.0119233
-0.0100479
-0.00845673
-0.00710865
-0.00596805
-0.00500433
-0.00419118
-0.00350603
-0.00292955
-0.00244521
-0.0020389
-0.00169858
-0.00141403
-0.00117658
-0.000978875
-0.000814706
-0.000678851
-0.00056693
-0.000475289
-0.000400903
-0.000341288
-0.000294433
-0.000258747
-0.000233007
-0.000216325
-0.000208123
-84.0212
-79.5192
-75.0851
-70.7405
-66.5022
-62.3865
-58.4061
-54.5683
-50.8818
-47.3534
-43.9869
-40.784
-37.7451
-34.8694
-32.1552
-29.6001
-27.2005
-24.9525
-22.8512
-20.8917
-19.0682
-17.3751
-15.8063
-14.3557
-13.0171
-11.7844
-10.6513
-9.61186
-8.66016
-7.79044
-6.99711
-6.2748
-5.61835
-5.02282
-4.48354
-3.99606
-3.55617
-3.15991
-2.80359
-2.48371
-2.19704
-1.94058
-1.71151
-1.50725
-1.32542
-1.16382
-1.02044
-0.893419
-0.781081
-0.681884
-0.594432
-0.517456
-0.449808
-0.390449
-0.338446
-0.292957
-0.253227
-0.218581
-0.188413
-0.162185
-0.139416
-0.11968
-0.102598
-0.0878343
-0.0750938
-0.0641152
-0.0546684
-0.0465515
-0.0395873
-0.0336206
-0.0285158
-0.0241545
-0.0204337
-0.0172638
-0.0145669
-0.0122757
-0.0103318
-0.00868481
-0.00729131
-0.00611391
-0.00512047
-0.00428341
-0.00357911
-0.00298738
-0.00249097
-0.0020752
-0.00172756
-0.00143746
-0.00119592
-0.00099535
-0.000829372
-0.000692635
-0.000580676
-0.000489796
-0.000416962
-0.000359719
-0.000316121
-0.000284673
-0.000264293
-0.000254273
-99.2487
-93.9308
-88.6931
-83.5611
-78.5547
-73.6931
-68.9912
-64.4579
-60.1034
-55.9356
-51.9589
-48.1755
-44.5858
-41.1889
-37.9828
-34.9646
-32.1302
-29.4747
-26.9927
-24.678
-22.5241
-20.5241
-18.671
-16.9575
-15.3763
-13.9201
-12.5817
-11.3539
-10.2297
-9.20234
-8.26523
-7.41201
-6.63658
-5.93313
-5.29612
-4.72028
-4.20067
-3.7326
-3.31169
-2.93384
-2.59523
-2.29228
-2.02169
-1.78042
-1.56564
-1.37475
-1.20538
-1.05534
-0.92264
-0.805466
-0.702164
-0.611238
-0.531329
-0.461212
-0.399784
-0.346051
-0.299121
-0.258196
-0.222561
-0.191579
-0.164684
-0.14137
-0.121192
-0.103753
-0.0887036
-0.0757352
-0.0645763
-0.0549884
-0.046762
-0.0397139
-0.0336839
-0.0285322
-0.0241371
-0.0203927
-0.017207
-0.0145005
-0.0122043
-0.0102588
-0.00861279
-0.007222
-0.0060485
-0.00505974
-0.0042278
-0.00352882
-0.00294244
-0.00245132
-0.00204067
-0.001698
-0.00141267
-0.00117575
-0.000979692
-0.000818172
-0.000685921
-0.00057857
-0.000492536
-0.000424918
-0.000373418
-0.000336271
-0.000312197
-0.000300362
-114.452
-108.319
-102.279
-96.3611
-90.5878
-84.9815
-79.5592
-74.3316
-69.3102
-64.504
-59.9182
-55.5552
-51.4155
-47.4983
-43.8011
-40.3205
-37.0519
-33.9897
-31.1274
-28.4582
-25.9743
-23.668
-21.531
-19.555
-17.7316
-16.0524
-14.5089
-13.0931
-11.7967
-10.612
-9.53131
-8.54739
-7.65318
-6.84198
-6.10738
-5.44334
-4.84413
-4.30436
-3.81898
-3.38325
-2.99277
-2.64341
-2.33138
-2.05315
-1.80546
-1.58534
-1.39002
-1.217
-1.06397
-0.928849
-0.809723
-0.704868
-0.612719
-0.531862
-0.461024
-0.39906
-0.344941
-0.297747
-0.256653
-0.220926
-0.18991
-0.163026
-0.139757
-0.119646
-0.102292
-0.0873366
-0.0744684
-0.0634117
-0.0539252
-0.0457975
-0.0388438
-0.0329029
-0.0278345
-0.0235165
-0.0198429
-0.0167218
-0.0140739
-0.0118304
-0.00993215
-0.00832832
-0.00697506
-0.00583483
-0.00487545
-0.0040694
-0.0033932
-0.00282683
-0.00235329
-0.00195811
-0.00162908
-0.00135587
-0.00112977
-0.000943511
-0.000791
-0.000667204
-0.00056799
-0.000490014
-0.000430625
-0.000387788
-0.000360026
-0.000346378
-129.627
-122.681
-115.84
-109.137
-102.599
-96.2489
-90.1077
-84.1869
-78.4998
-73.0564
-67.8626
-62.9211
-58.2326
-53.7959
-49.6085
-45.6665
-41.9645
-38.4963
-35.2545
-32.2313
-29.4182
-26.8061
-24.3858
-22.1478
-20.0826
-18.1807
-16.4326
-14.829
-13.3608
-12.019
-10.795
-9.68066
-8.6679
-7.74914
-6.91714
-6.16506
-5.4864
-4.87507
-4.32533
-3.83183
-3.38957
-2.99389
-2.64049
-2.32537
-2.04484
-1.79553
-1.57432
-1.37836
-1.20504
-1.052
-0.917083
-0.798325
-0.693958
-0.60238
-0.52215
-0.451971
-0.390677
-0.337225
-0.290682
-0.250218
-0.21509
-0.184641
-0.158287
-0.13551
-0.115854
-0.0989165
-0.0843421
-0.0718195
-0.0610751
-0.0518697
-0.0439941
-0.0372655
-0.0315251
-0.0266346
-0.0224739
-0.018939
-0.0159399
-0.013399
-0.0112491
-0.00943259
-0.00789991
-0.00660849
-0.0055219
-0.00460898
-0.00384312
-0.00320166
-0.00266532
-0.00221775
-0.00184509
-0.00153565
-0.00127958
-0.00106862
-0.000895887
-0.000755676
-0.000643307
-0.000554992
-0.000487728
-0.000439211
-0.000407768
-0.000392311
-144.769
-137.012
-129.372
-121.886
-114.584
-107.493
-100.634
-94.0216
-87.6702
-81.5909
-75.7903
-70.2715
-65.0353
-60.0803
-55.4037
-51.0012
-46.8667
-42.9933
-39.3729
-35.9966
-32.8548
-29.9375
-27.2345
-24.7351
-22.4287
-20.3046
-18.3523
-16.5613
-14.9216
-13.423
-12.0561
-10.8115
-9.68047
-8.65438
-7.72519
-6.88525
-6.12731
-5.44457
-4.83061
-4.27946
-3.78553
-3.34364
-2.94895
-2.59701
-2.28372
-2.00528
-1.75823
-1.53937
-1.34581
-1.1749
-1.02422
-0.891585
-0.775025
-0.67275
-0.583148
-0.50477
-0.436315
-0.376619
-0.32464
-0.279448
-0.240217
-0.206211
-0.176778
-0.15134
-0.129388
-0.110472
-0.0941951
-0.0802095
-0.06821
-0.0579293
-0.0491336
-0.041619
-0.035208
-0.0297461
-0.0250994
-0.0211515
-0.0178021
-0.0149643
-0.0125633
-0.0105346
-0.00882282
-0.00738053
-0.006167
-0.00514743
-0.0042921
-0.0035757
-0.00297671
-0.00247685
-0.00206066
-0.00171506
-0.00142907
-0.00119347
-0.00100055
-0.000843964
-0.000718467
-0.000619834
-0.000544712
-0.000490527
-0.000455412
-0.000438149
-159.877
-151.31
-142.873
-134.606
-126.541
-118.71
-111.135
-103.833
-96.8189
-90.1053
-83.6994
-77.6046
-71.8219
-66.3498
-61.1853
-56.3233
-51.7574
-47.4798
-43.4816
-39.7529
-36.2833
-33.0616
-30.0765
-27.3162
-24.7691
-22.4234
-20.2674
-18.2896
-16.4787
-14.8237
-13.3142
-11.9398
-10.6907
-9.55749
-8.53134
-7.60375
-6.76672
-6.01272
-5.3347
-4.72603
-4.18057
-3.69255
-3.25668
-2.86802
-2.52203
-2.21454
-1.94171
-1.70001
-1.48625
-1.2975
-1.1311
-0.984625
-0.855902
-0.742954
-0.644002
-0.557445
-0.481847
-0.415921
-0.358517
-0.30861
-0.265285
-0.22773
-0.195226
-0.167134
-0.142891
-0.122
-0.104025
-0.0885799
-0.0753282
-0.0639745
-0.054261
-0.0459622
-0.0388822
-0.0328504
-0.0277187
-0.0233589
-0.0196599
-0.0165259
-0.0138743
-0.0116339
-0.00974356
-0.00815077
-0.00681059
-0.00568462
-0.00474003
-0.00394887
-0.00328736
-0.00273534
-0.00227571
-0.00189405
-0.00157822
-0.00131802
-0.00110498
-0.000932046
-0.000793452
-0.000684525
-0.000601564
-0.000541724
-0.000502944
-0.00048388
-174.944
-165.57
-156.338
-147.292
-138.467
-129.898
-121.609
-113.619
-105.944
-98.5974
-91.5877
-84.9186
-78.5908
-72.603
-66.9517
-61.6315
-56.6353
-51.9546
-47.5795
-43.4994
-39.7028
-36.1775
-32.911
-29.8907
-27.1035
-24.5367
-22.1775
-20.0133
-18.0317
-16.2208
-14.569
-13.065
-11.6982
-10.4582
-9.33538
-8.32037
-7.40445
-6.57939
-5.83747
-5.17144
-4.57457
-4.04056
-3.56361
-3.13832
-2.75973
-2.42325
-2.1247
-1.86023
-1.62633
-1.41979
-1.2377
-1.07742
-0.936568
-0.812975
-0.704697
-0.609982
-0.527259
-0.45512
-0.392307
-0.337696
-0.290287
-0.249193
-0.213625
-0.182886
-0.156358
-0.133499
-0.113829
-0.0969284
-0.0824277
-0.0700041
-0.059375
-0.0502941
-0.0425468
-0.0359465
-0.0303312
-0.0255604
-0.0215129
-0.0180835
-0.015182
-0.0127305
-0.0106619
-0.008919
-0.00745251
-0.00622041
-0.00518679
-0.00432106
-0.00359721
-0.00299316
-0.00249021
-0.00207258
-0.00172698
-0.00144226
-0.00120913
-0.0010199
-0.000868243
-0.00074905
-0.000658269
-0.000592789
-0.000550354
-0.000529494
-189.969
-179.79
-169.765
-159.941
-150.359
-141.054
-132.053
-123.377
-115.042
-107.065
-99.4535
-92.2116
-85.3403
-78.8383
-72.7016
-66.9245
-61.4992
-56.4165
-51.6657
-47.2352
-43.1125
-39.2845
-35.7375
-32.4577
-29.4312
-26.644
-24.0821
-21.732
-19.5803
-17.6139
-15.8202
-14.1871
-12.7029
-11.3564
-10.1371
-9.03493
-8.04036
-7.14444
-6.3388
-5.61558
-4.96744
-4.38757
-3.86966
-3.40784
-2.99674
-2.63137
-2.30718
-2.01999
-1.766
-1.54172
-1.34399
-1.16995
-1.017
-0.882795
-0.765218
-0.662369
-0.572542
-0.494207
-0.425999
-0.366698
-0.315218
-0.270595
-0.231972
-0.198592
-0.169787
-0.144964
-0.123605
-0.105253
-0.089507
-0.0760164
-0.0644744
-0.0546137
-0.046201
-0.0390338
-0.0329362
-0.0277557
-0.0233605
-0.0196367
-0.016486
-0.0138238
-0.0115777
-0.00968504
-0.0080926
-0.00675468
-0.00563229
-0.0046922
-0.00390618
-0.00325025
-0.0027041
-0.0022506
-0.00187531
-0.00156614
-0.00131299
-0.0011075
-0.000942822
-0.000813391
-0.000714814
-0.00064371
-0.00059763
-0.000574978
-204.946
-193.965
-183.149
-172.552
-162.214
-152.175
-142.465
-133.104
-124.113
-115.507
-107.295
-99.4818
-92.0688
-85.0541
-78.4336
-72.201
-66.3479
-60.8645
-55.7392
-50.9594
-46.5116
-42.3818
-38.5551
-35.0168
-31.7516
-28.7446
-25.9808
-23.4454
-21.1241
-19.0026
-17.0675
-15.3056
-13.7044
-12.2518
-10.9364
-9.74727
-8.67428
-7.70773
-6.83857
-6.05832
-5.35908
-4.7335
-4.17475
-3.67653
-3.23301
-2.83883
-2.48908
-2.17925
-1.90524
-1.66327
-1.44996
-1.2622
-1.09719
-0.952398
-0.82555
-0.714592
-0.617683
-0.533172
-0.459587
-0.39561
-0.340071
-0.29193
-0.250262
-0.21425
-0.183173
-0.156394
-0.133351
-0.113552
-0.0965643
-0.08201
-0.069558
-0.0589197
-0.0498438
-0.0421115
-0.0355331
-0.0299442
-0.0252025
-0.021185
-0.0177859
-0.0149138
-0.0124905
-0.0104487
-0.00873071
-0.00728729
-0.0060764
-0.00506219
-0.00421419
-0.00350654
-0.00291733
-0.00242807
-0.00202319
-0.00168964
-0.00141653
-0.00119484
-0.00101717
-0.000877534
-0.000771184
-0.000694473
-0.00064476
-0.000620322
-219.874
-208.092
-196.489
-185.119
-174.028
-163.258
-152.841
-142.798
-133.152
-123.919
-115.109
-106.727
-98.7745
-91.2489
-84.1462
-77.4596
-71.1803
-65.2975
-59.7989
-54.6709
-49.8992
-45.4686
-41.3632
-37.5672
-34.0642
-30.8382
-27.8731
-25.1531
-22.6626
-20.3866
-18.3106
-16.4204
-14.7025
-13.1441
-11.7329
-10.4572
-9.30606
-8.26912
-7.33665
-6.49958
-5.74941
-5.07826
-4.47882
-3.94431
-3.46848
-3.0456
-2.67037
-2.33798
-2.044
-1.78442
-1.55557
-1.35413
-1.1771
-1.02177
-0.885679
-0.76664
-0.662672
-0.572006
-0.493061
-0.424424
-0.364841
-0.313193
-0.26849
-0.229856
-0.196515
-0.167785
-0.143064
-0.121823
-0.103598
-0.0879833
-0.0746244
-0.0632113
-0.0534743
-0.0451788
-0.0381213
-0.0321253
-0.0270382
-0.0227281
-0.0190814
-0.0160002
-0.0134004
-0.0112098
-0.00936666
-0.00781811
-0.00651902
-0.00543093
-0.00452117
-0.00376197
-0.00312984
-0.00260494
-0.00217057
-0.00181272
-0.00151972
-0.00128188
-0.00109127
-0.000941462
-0.000827365
-0.000745067
-0.000691733
-0.000665515
-234.746
-222.168
-209.78
-197.641
-185.8
-174.301
-163.179
-152.458
-142.159
-132.302
-122.896
-113.947
-105.456
-97.4212
-89.8381
-82.6992
-75.9951
-69.7144
-63.8438
-58.369
-53.2746
-48.5442
-44.1611
-40.1083
-36.3684
-32.9242
-29.7585
-26.8545
-24.1956
-21.7656
-19.5492
-17.5311
-15.697
-14.0332
-12.5265
-11.1646
-9.93555
-8.82846
-7.83292
-6.93922
-6.13831
-5.42177
-4.78178
-4.21111
-3.7031
-3.25161
-2.851
-2.49613
-2.18227
-1.90512
-1.66079
-1.44573
-1.25672
-1.09088
-0.94559
-0.818498
-0.707498
-0.610699
-0.526413
-0.453134
-0.38952
-0.334378
-0.286652
-0.245404
-0.209808
-0.179135
-0.152741
-0.130063
-0.110606
-0.0939351
-0.0796725
-0.0674874
-0.0570917
-0.0482351
-0.0407001
-0.0342985
-0.0288673
-0.0242656
-0.0203722
-0.0170826
-0.0143069
-0.0119681
-0.0100003
-0.00834701
-0.00696003
-0.00579834
-0.00482703
-0.00401647
-0.00334158
-0.00278117
-0.00231742
-0.00193536
-0.00162253
-0.00136861
-0.0011651
-0.00100516
-0.000883343
-0.000795478
-0.000738536
-0.000710544
-249.561
-236.189
-223.019
-210.114
-197.526
-185.302
-173.478
-162.079
-151.131
-140.651
-130.652
-121.138
-112.111
-103.569
-95.5077
-87.9183
-80.7912
-74.114
-67.873
-62.0527
-56.6367
-51.6078
-46.9482
-42.6395
-38.6636
-35.0021
-31.6366
-28.5493
-25.7225
-23.1393
-20.7829
-18.6375
-16.6877
-14.9189
-13.3171
-11.8692
-10.5626
-9.38563
-8.32726
-7.37716
-6.52571
-5.76394
-5.08356
-4.47687
-3.9368
-3.45682
-3.03093
-2.65366
-2.31999
-2.02536
-1.7656
-1.53697
-1.33604
-1.15973
-1.00527
-0.870155
-0.752149
-0.649241
-0.559636
-0.481732
-0.414103
-0.355482
-0.304743
-0.260892
-0.22305
-0.190441
-0.162381
-0.138272
-0.117586
-0.0998636
-0.0847009
-0.0717468
-0.060695
-0.0512794
-0.0432689
-0.0364633
-0.0306892
-0.0257972
-0.021658
-0.0181608
-0.0152099
-0.0127235
-0.0106315
-0.00887386
-0.00739934
-0.00616433
-0.00513171
-0.00426999
-0.0035525
-0.00295672
-0.00246369
-0.00205752
-0.00172495
-0.001455
-0.00123865
-0.00106861
-0.000939106
-0.000845694
-0.000785158
-0.0007554
-264.315
-250.152
-236.203
-222.536
-209.203
-196.256
-183.733
-171.661
-160.065
-148.966
-138.376
-128.299
-118.739
-109.692
-101.154
-93.1158
-85.5673
-78.4954
-71.8854
-65.721
-59.9849
-54.6587
-49.7236
-45.1603
-40.9493
-37.0713
-33.5068
-30.237
-27.2432
-24.5072
-22.0115
-19.7393
-17.6742
-15.8008
-14.1044
-12.5708
-11.187
-9.94048
-8.81954
-7.81328
-6.91149
-6.10469
-5.38408
-4.74154
-4.16954
-3.66118
-3.21012
-2.81054
-2.45714
-2.14509
-1.86998
-1.62783
-1.41502
-1.22829
-1.0647
-0.921597
-0.796615
-0.687623
-0.592721
-0.510212
-0.438585
-0.376497
-0.322759
-0.276316
-0.236237
-0.201699
-0.171981
-0.146447
-0.124538
-0.105768
-0.0897085
-0.0759885
-0.0642833
-0.0543111
-0.045827
-0.0386191
-0.0325037
-0.0273224
-0.0229385
-0.0192345
-0.0161092
-0.0134758
-0.0112601
-0.00939852
-0.00783683
-0.0065288
-0.00543513
-0.00452246
-0.00376255
-0.00313155
-0.00260937
-0.00217918
-0.00182695
-0.00154103
-0.00131189
-0.0011318
-0.000994638
-0.000895703
-0.000831588
-0.000800071
-279.003
-264.053
-249.329
-234.902
-220.829
-207.162
-193.943
-181.2
-168.96
-157.244
-146.065
-135.429
-125.337
-115.788
-106.775
-98.2903
-90.3223
-82.8575
-75.8801
-69.3732
-63.3183
-57.6961
-52.4867
-47.6698
-43.2249
-39.1313
-35.3688
-31.9173
-28.7571
-25.8691
-23.2347
-20.8362
-18.6564
-16.6789
-14.8881
-13.2694
-11.8087
-10.4929
-9.30965
-8.24747
-7.29556
-6.44393
-5.68328
-5.00503
-4.40124
-3.86463
-3.3885
-2.96672
-2.59369
-2.2643
-1.9739
-1.71829
-1.49365
-1.29655
-1.12386
-0.972812
-0.840884
-0.725836
-0.62566
-0.538565
-0.462958
-0.39742
-0.340696
-0.291672
-0.249365
-0.212908
-0.181539
-0.154585
-0.131459
-0.111646
-0.094694
-0.0802115
-0.0678559
-0.0573294
-0.0483739
-0.0407653
-0.0343101
-0.0288408
-0.0242133
-0.0203035
-0.0170044
-0.0142247
-0.0118859
-0.00992087
-0.00827239
-0.00689166
-0.00573721
-0.00477382
-0.00397168
-0.0033056
-0.0027544
-0.00230031
-0.0019285
-0.00162669
-0.00138481
-0.00119471
-0.00104993
-0.000945493
-0.000877814
-0.000844545
-293.622
-277.889
-262.394
-247.211
-232.4
-218.017
-204.106
-190.695
-177.814
-165.484
-153.719
-142.525
-131.905
-121.855
-112.37
-103.441
-95.055
-87.199
-79.8561
-73.0082
-66.636
-60.7193
-55.237
-50.1677
-45.4898
-41.1817
-37.2221
-33.5897
-30.2639
-27.2246
-24.4522
-21.928
-19.6339
-17.5528
-15.6683
-13.9647
-12.4274
-11.0427
-9.79746
-8.67962
-7.67784
-6.78158
-5.98108
-5.26728
-4.63186
-4.06714
-3.56606
-3.12218
-2.7296
-2.38294
-2.07733
-1.80833
-1.57192
-1.36449
-1.18275
-1.02379
-0.884946
-0.76387
-0.658444
-0.566786
-0.487217
-0.418245
-0.358548
-0.306955
-0.262432
-0.224065
-0.191052
-0.162686
-0.138348
-0.117496
-0.0996561
-0.0844147
-0.0714117
-0.0603336
-0.0509088
-0.0429015
-0.036108
-0.0303522
-0.0254822
-0.0213674
-0.0178956
-0.0149702
-0.0125088
-0.0104408
-0.00870591
-0.00725283
-0.00603788
-0.005024
-0.00417982
-0.00347884
-0.00289876
-0.00242086
-0.00202957
-0.00171195
-0.00145739
-0.00125733
-0.00110496
-0.000995049
-0.000923824
-0.000888812
-308.169
-291.656
-275.393
-259.458
-243.914
-228.818
-214.218
-200.142
-186.623
-173.682
-161.335
-149.586
-138.44
-127.892
-117.937
-108.565
-99.7643
-91.5191
-83.8124
-76.6252
-69.9374
-63.7275
-57.9735
-52.6531
-47.7435
-43.222
-39.0662
-35.2538
-31.7633
-28.5733
-25.6636
-23.0144
-20.6067
-18.4224
-16.4445
-14.6565
-13.0431
-11.5898
-10.2829
-9.10964
-8.05822
-7.11756
-6.2774
-5.52824
-4.86134
-4.26863
-3.74273
-3.27686
-2.86483
-2.501
-2.18025
-1.89792
-1.6498
-1.43209
-1.24135
-1.07451
-0.92879
-0.801715
-0.691067
-0.594867
-0.511356
-0.438967
-0.376312
-0.322163
-0.275434
-0.235166
-0.200517
-0.170746
-0.145202
-0.123317
-0.104594
-0.0885972
-0.0749499
-0.063323
-0.0534312
-0.0450272
-0.0378971
-0.0318561
-0.0267448
-0.0224262
-0.0187823
-0.0157119
-0.0131286
-0.0109581
-0.00913729
-0.00761221
-0.00633706
-0.00527295
-0.00438694
-0.00365123
-0.0030424
-0.00254083
-0.00213014
-0.00179678
-0.00152961
-0.00131964
-0.00115971
-0.00104436
-0.000969608
-0.00093286
-322.64
-305.352
-288.325
-271.641
-255.367
-239.563
-224.277
-209.541
-195.386
-181.838
-168.91
-156.611
-144.94
-133.897
-123.475
-113.663
-104.449
-95.8166
-87.748
-80.2233
-73.2214
-66.7199
-60.6958
-55.1255
-49.9854
-45.2516
-40.9006
-36.9093
-33.2548
-29.9151
-26.8687
-24.0951
-21.5743
-19.2875
-17.2167
-15.3448
-13.6556
-12.134
-10.7657
-9.5374
-8.43662
-7.45179
-6.57217
-5.78783
-5.08962
-4.46908
-3.91848
-3.43073
-2.99936
-2.61844
-2.28263
-1.98704
-1.72727
-1.49934
-1.29964
-1.12497
-0.972404
-0.839362
-0.723518
-0.622802
-0.535369
-0.45958
-0.393984
-0.337292
-0.288368
-0.24621
-0.209934
-0.178764
-0.152021
-0.129108
-0.109505
-0.0927578
-0.0784696
-0.0662967
-0.0559404
-0.0471418
-0.0396768
-0.0333521
-0.0280008
-0.0234794
-0.0196643
-0.0164498
-0.0137452
-0.0114728
-0.00956642
-0.00796972
-0.00663468
-0.0055206
-0.00459298
-0.00382271
-0.00318529
-0.00266016
-0.00223019
-0.00188117
-0.00160146
-0.00138162
-0.00121419
-0.00109342
-0.00101515
-0.000976679
-337.031
-318.972
-301.186
-283.758
-266.758
-250.249
-234.28
-218.887
-204.102
-189.949
-176.445
-163.596
-151.405
-139.87
-128.982
-118.733
-109.108
-100.09
-91.6619
-83.8017
-76.4874
-69.6959
-63.4031
-57.5844
-52.2149
-47.27
-42.725
-38.5556
-34.7381
-31.2494
-28.0672
-25.1698
-22.5366
-20.1478
-17.9846
-16.0292
-14.2647
-12.6752
-11.2459
-9.96282
-8.81293
-7.78417
-6.86532
-6.046
-5.31664
-4.66842
-4.09327
-3.58376
-3.13314
-2.73524
-2.38445
-2.07567
-1.80432
-1.56621
-1.35761
-1.17515
-1.01578
-0.876803
-0.755791
-0.650582
-0.559249
-0.480081
-0.411558
-0.352337
-0.301231
-0.257192
-0.219298
-0.186738
-0.158802
-0.134868
-0.11439
-0.0968955
-0.08197
-0.0692541
-0.0584358
-0.0492447
-0.0414468
-0.0348399
-0.0292499
-0.0245268
-0.0205416
-0.0171837
-0.0143583
-0.0119846
-0.00999319
-0.00832526
-0.00693067
-0.00576689
-0.00479789
-0.00399326
-0.0033274
-0.00277885
-0.00232969
-0.0019651
-0.00167291
-0.00144327
-0.00126836
-0.0011422
-0.00106045
-0.00102026
-351.339
-332.513
-313.972
-295.804
-278.082
-260.872
-244.226
-228.179
-212.766
-198.013
-183.935
-170.541
-157.833
-145.808
-134.458
-123.774
-113.74
-104.34
-95.5533
-87.3593
-79.7346
-72.6547
-66.0948
-60.029
-54.4316
-49.2768
-44.5388
-40.1924
-36.2128
-32.5761
-29.2587
-26.2383
-23.4934
-21.0032
-18.7481
-16.7097
-14.8703
-13.2133
-11.7233
-10.3858
-9.18707
-8.11464
-7.15678
-6.30267
-5.54235
-4.86661
-4.26704
-3.73591
-3.26616
-2.85136
-2.48567
-2.16379
-1.88092
-1.63271
-1.41525
-1.22504
-1.0589
-0.914027
-0.787878
-0.678203
-0.582992
-0.500462
-0.429031
-0.367296
-0.31402
-0.268111
-0.228608
-0.194666
-0.165544
-0.140594
-0.119247
-0.101009
-0.0854501
-0.0721944
-0.0609168
-0.0513355
-0.0432065
-0.0363191
-0.0304918
-0.0255681
-0.0214137
-0.0179133
-0.014968
-0.0124934
-0.0104175
-0.00867875
-0.00722495
-0.00601175
-0.00500161
-0.00416282
-0.00346869
-0.00289684
-0.00242862
-0.00204855
-0.00174395
-0.00150455
-0.00132222
-0.00119071
-0.00110548
-0.00106359
-365.56
-345.973
-326.681
-307.778
-289.339
-271.432
-254.112
-237.416
-221.379
-206.028
-191.381
-177.444
-164.222
-151.71
-139.901
-128.784
-118.344
-108.563
-99.421
-90.8954
-82.962
-75.5956
-68.7701
-62.4588
-56.6349
-51.2714
-46.3416
-41.8193
-37.6786
-33.8947
-30.443
-27.3004
-24.4443
-21.8533
-19.507
-17.3861
-15.4722
-13.7482
-12.1979
-10.8062
-9.55894
-8.4431
-7.44647
-6.55779
-5.76669
-5.06361
-4.43976
-3.88713
-3.39836
-2.96678
-2.58629
-2.25138
-1.95705
-1.6988
-1.47254
-1.27462
-1.10177
-0.951025
-0.819771
-0.705655
-0.606591
-0.520721
-0.446398
-0.382164
-0.326732
-0.278965
-0.237863
-0.202547
-0.172246
-0.146285
-0.124074
-0.105098
-0.0889092
-0.0751169
-0.0633828
-0.0534136
-0.0449556
-0.0377894
-0.0317262
-0.0266032
-0.0222806
-0.0186385
-0.0155739
-0.0129992
-0.0108392
-0.00903011
-0.00751745
-0.00625514
-0.0052041
-0.00433135
-0.00360912
-0.00301413
-0.00252695
-0.00213149
-0.00181456
-0.00156547
-0.00137576
-0.00123892
-0.00115024
-0.00110665
-379.691
-359.347
-339.309
-319.675
-300.523
-281.924
-263.935
-246.593
-229.936
-213.992
-198.779
-184.304
-170.57
-157.574
-145.309
-133.762
-122.918
-112.76
-103.264
-94.409
-86.169
-78.5179
-71.4285
-64.8732
-58.8242
-53.2533
-48.133
-43.4358
-39.1352
-35.2049
-31.6199
-28.3557
-25.3892
-22.6981
-20.2611
-18.0582
-16.0703
-14.2796
-12.6694
-11.2239
-9.92846
-8.76948
-7.73432
-6.81129
-5.98961
-5.25935
-4.61139
-4.03739
-3.52973
-3.08146
-2.68627
-2.33841
-2.03271
-1.76447
-1.52946
-1.3239
-1.14436
-0.98779
-0.851461
-0.732934
-0.63004
-0.54085
-0.463654
-0.396938
-0.339362
-0.289749
-0.247058
-0.210377
-0.178904
-0.15194
-0.128871
-0.109161
-0.0923464
-0.0780209
-0.0658332
-0.0554786
-0.0466935
-0.0392504
-0.0329527
-0.0276317
-0.023142
-0.019359
-0.0161761
-0.0135018
-0.0112583
-0.00937924
-0.0078081
-0.00649699
-0.00540531
-0.00449882
-0.00374867
-0.00313067
-0.00262465
-0.00221391
-0.00188472
-0.001626
-0.00142896
-0.00128683
-0.00119472
-0.00114945
-393.729
-372.632
-351.854
-331.494
-311.634
-292.347
-273.693
-255.71
-238.437
-221.904
-206.128
-191.118
-176.876
-163.4
-150.681
-138.707
-127.463
-116.928
-107.082
-97.8994
-89.3547
-81.4207
-74.0693
-67.2717
-60.9989
-55.2221
-49.9125
-45.0417
-40.582
-36.5064
-32.7889
-29.4041
-26.3279
-23.5373
-21.0102
-18.7258
-16.6644
-14.8076
-13.1378
-11.6388
-10.2955
-9.09369
-8.02027
-7.06311
-6.21105
-5.45379
-4.78188
-4.18666
-3.66023
-3.19539
-2.78558
-2.42487
-2.10786
-1.8297
-1.58601
-1.37284
-1.18667
-1.02431
-0.882941
-0.760032
-0.653334
-0.560847
-0.480797
-0.411613
-0.35191
-0.300462
-0.256192
-0.218155
-0.185519
-0.157558
-0.133635
-0.113197
-0.0957608
-0.0809056
-0.0682673
-0.0575299
-0.04842
-0.0407016
-0.0341712
-0.0286534
-0.0239977
-0.0200749
-0.0167742
-0.014001
-0.0116746
-0.00972605
-0.00809682
-0.00673723
-0.00560519
-0.00466518
-0.00388729
-0.00324644
-0.00272171
-0.00229578
-0.00195442
-0.00168614
-0.0014818
-0.00133442
-0.00123891
-0.00119196
-407.669
-385.825
-364.311
-343.231
-322.668
-302.698
-283.383
-264.764
-246.879
-229.761
-213.426
-197.884
-183.138
-169.185
-156.016
-143.618
-131.976
-121.068
-110.873
-101.366
-92.5184
-84.3035
-76.6917
-69.6535
-63.1587
-57.1773
-51.6797
-46.6364
-42.0188
-37.799
-33.9498
-30.4451
-27.2601
-24.3706
-21.754
-19.3888
-17.2545
-15.3318
-13.603
-12.0509
-10.66
-9.41567
-8.30423
-7.31319
-6.43096
-5.64689
-4.95119
-4.33489
-3.78983
-3.30853
-2.88421
-2.51072
-2.18249
-1.89448
-1.64216
-1.42145
-1.22868
-1.06058
-0.914203
-0.786943
-0.676467
-0.580705
-0.49782
-0.426188
-0.36437
-0.3111
-0.265264
-0.225879
-0.192088
-0.163137
-0.138367
-0.117206
-0.0991516
-0.0837704
-0.0706846
-0.059567
-0.0501346
-0.0421429
-0.0353812
-0.029668
-0.0248475
-0.0207857
-0.0173682
-0.0144968
-0.012088
-0.0100705
-0.00838355
-0.00697581
-0.00580369
-0.00483039
-0.00402495
-0.00336141
-0.0028181
-0.00237708
-0.00202364
-0.00174585
-0.00153429
-0.00138168
-0.00128279
-0.00123417
-421.509
-398.923
-376.679
-354.883
-333.622
-312.974
-293.004
-273.752
-255.261
-237.561
-220.671
-204.602
-189.356
-174.929
-161.312
-148.494
-136.456
-125.178
-114.637
-104.807
-95.6592
-87.1654
-79.2953
-72.0181
-65.3028
-59.1184
-53.4341
-48.2197
-43.4453
-39.0822
-35.1023
-31.4787
-28.1855
-25.198
-22.4926
-20.047
-17.8402
-15.8523
-14.0648
-12.46
-11.0219
-9.73532
-8.58615
-7.56147
-6.64929
-5.83859
-5.11927
-4.48206
-3.91849
-3.42085
-2.98213
-2.59596
-2.25659
-1.9588
-1.69791
-1.46971
-1.2704
-1.09658
-0.94524
-0.813659
-0.699433
-0.60042
-0.514721
-0.440657
-0.37674
-0.321662
-0.274269
-0.233548
-0.19861
-0.168675
-0.143065
-0.121185
-0.102518
-0.0866146
-0.0730845
-0.0615894
-0.0518367
-0.0435737
-0.0365825
-0.0306753
-0.0256911
-0.0214915
-0.0179579
-0.0149891
-0.0124985
-0.0104124
-0.00866821
-0.00721268
-0.00600076
-0.00499441
-0.00416163
-0.00347555
-0.0029138
-0.0024578
-0.00209236
-0.00180514
-0.00158639
-0.0014286
-0.00132635
-0.00127609
-435.245
-411.923
-388.954
-366.447
-344.493
-323.173
-302.552
-282.673
-263.579
-245.302
-227.862
-211.27
-195.526
-180.629
-166.569
-153.333
-140.903
-129.258
-118.373
-108.222
-98.7765
-90.0059
-81.8793