/*--------------------------------*- C++ -*----------------------------------*\
| =========                 |                                                 |
| \\      /  F ield         | OpenFOAM: The Open Source CFD Toolbox           |
|  \\    /   O peration     | Version:  2406                                  |
|   \\  /    A nd           | Website:  www.openfoam.com                      |
|    \\/     M anipulation  |                                                 |
\*---------------------------------------------------------------------------*/
FoamFile
{
    version     2.0;
    format      ascii;
    arch        "LSB;label=32;scalar=64";
    class       volScalarField;
    location    "50";
    object      T;
}
// * * * * * * * * * * * * * * * * * * * * * * * * * * * * * * * * * * * * * //

dimensions      [0 0 0 1 0 0 0];

internalField   nonuniform List<scalar> 
20000
(
300.506
300.469
300.433
300.4
300.369
300.34
300.312
300.287
300.263
300.24
300.22
300.2
300.182
300.166
300.151
300.137
300.124
300.112
300.101
300.091
300.082
300.074
300.066
300.059
300.053
300.047
300.042
300.038
300.034
300.03
300.027
300.024
300.021
300.018
300.016
300.014
300.013
300.011
300.01
300.009
300.007
300.007
300.006
300.005
300.004
300.004
300.003
300.003
300.002
300.002
300.002
300.002
300.001
300.001
300.001
300.001
300.001
300.001
300.001
300
300
300
300
300
300
300
300
300
300
300
300
300
300
300
300
300
300
300
300
300
300
300
300
300
300
300
300
300
300
300
300
300
300
300
300
300
300
300
300
300
301.517
301.406
301.3
301.201
301.107
301.019
300.937
300.86
300.788
300.721
300.658
300.601
300.547
300.498
300.452
300.41
300.371
300.336
300.303
300.273
300.246
300.221
300.198
300.178
300.159
300.142
300.127
300.113
300.101
300.09
300.08
300.071
300.062
300.055
300.049
300.043
300.038
300.033
300.029
300.026
300.022
300.02
300.017
300.015
300.013
300.011
300.01
300.009
300.007
300.006
300.006
300.005
300.004
300.004
300.003
300.003
300.002
300.002
300.002
300.001
300.001
300.001
300.001
300.001
300.001
300.001
300
300
300
300
300
300
300
300
300
300
300
300
300
300
300
300
300
300
300
300
300
300
300
300
300
300
300
300
300
300
300
300
300
300
302.529
302.343
302.167
302.001
301.845
301.698
301.561
301.433
301.313
301.201
301.097
301.001
300.912
300.829
300.753
300.683
300.618
300.559
300.505
300.455
300.41
300.368
300.331
300.296
300.265
300.237
300.212
300.189
300.168
300.149
300.133
300.118
300.104
300.092
300.081
300.072
300.063
300.055
300.049
300.043
300.037
300.033
300.028
300.025
300.022
300.019
300.016
300.014
300.012
300.011
300.009
300.008
300.007
300.006
300.005
300.004
300.004
300.003
300.003
300.002
300.002
300.002
300.001
300.001
300.001
300.001
300.001
300.001
300.001
300
300
300
300
300
300
300
300
300
300
300
300
300
300
300
300
300
300
300
300
300
300
300
300
300
300
300
300
300
300
300
303.539
303.279
303.033
302.801
302.582
302.377
302.185
302.005
301.837
301.681
301.536
301.401
301.276
301.161
301.054
300.956
300.865
300.783
300.707
300.637
300.574
300.516
300.463
300.415
300.371
300.332
300.296
300.264
300.235
300.209
300.186
300.164
300.146
300.129
300.114
300.1
300.088
300.078
300.068
300.06
300.052
300.046
300.04
300.035
300.03
300.026
300.023
300.02
300.017
300.015
300.013
300.011
300.01
300.008
300.007
300.006
300.005
300.004
300.004
300.003
300.003
300.002
300.002
300.002
300.001
300.001
300.001
300.001
300.001
300.001
300.001
300
300
300
300
300
300
300
300
300
300
300
300
300
300
300
300
300
300
300
300
300
300
300
300
300
300
300
300
300
304.549
304.214
303.898
303.6
303.319
303.055
302.808
302.577
302.361
302.161
301.974
301.801
301.64
301.492
301.355
301.228
301.112
301.006
300.908
300.819
300.737
300.663
300.595
300.533
300.477
300.427
300.381
300.34
300.302
300.269
300.239
300.211
300.187
300.165
300.146
300.129
300.113
300.1
300.087
300.077
300.067
300.059
300.051
300.045
300.039
300.034
300.029
300.025
300.022
300.019
300.016
300.014
300.012
300.011
300.009
300.008
300.007
300.006
300.005
300.004
300.004
300.003
300.003
300.002
300.002
300.002
300.001
300.001
300.001
300.001
300.001
300.001
300
300
300
300
300
300
300
300
300
300
300
300
300
300
300
300
300
300
300
300
300
300
300
300
300
300
300
300
305.557
305.148
304.762
304.398
304.055
303.733
303.431
303.149
302.885
302.64
302.412
302.2
302.004
301.822
301.655
301.501
301.359
301.229
301.109
301
300.901
300.81
300.727
300.652
300.583
300.521
300.465
300.415
300.369
300.328
300.291
300.258
300.229
300.202
300.178
300.157
300.138
300.122
300.107
300.094
300.082
300.072
300.063
300.055
300.048
300.041
300.036
300.031
300.027
300.023
300.02
300.017
300.015
300.013
300.011
300.01
300.008
300.007
300.006
300.005
300.004
300.004
300.003
300.003
300.002
300.002
300.002
300.001
300.001
300.001
300.001
300.001
300.001
300
300
300
300
300
300
300
300
300
300
300
300
300
300
300
300
300
300
300
300
300
300
300
300
300
300
300
306.564
306.082
305.625
305.195
304.789
304.409
304.053
303.719
303.408
303.118
302.849
302.599
302.367
302.153
301.955
301.773
301.605
301.452
301.311
301.182
301.064
300.956
300.859
300.77
300.689
300.616
300.55
300.49
300.436
300.388
300.344
300.305
300.27
300.239
300.211
300.186
300.164
300.144
300.126
300.111
300.097
300.085
300.074
300.064
300.056
300.049
300.042
300.037
300.032
300.028
300.024
300.021
300.018
300.015
300.013
300.011
300.01
300.008
300.007
300.006
300.005
300.004
300.004
300.003
300.003
300.002
300.002
300.002
300.001
300.001
300.001
300.001
300.001
300.001
300
300
300
300
300
300
300
300
300
300
300
300
300
300
300
300
300
300
300
300
300
300
300
300
300
300
307.57
307.013
306.487
305.99
305.523
305.084
304.673
304.289
303.93
303.596
303.285
302.997
302.729
302.482
302.254
302.044
301.851
301.674
301.511
301.363
301.227
301.103
300.99
300.888
300.795
300.71
300.634
300.565
300.503
300.447
300.397
300.352
300.311
300.275
300.243
300.214
300.189
300.166
300.146
300.128
300.112
300.098
300.085
300.074
300.065
300.056
300.049
300.042
300.037
300.032
300.027
300.024
300.02
300.018
300.015
300.013
300.011
300.01
300.008
300.007
300.006
300.005
300.004
300.004
300.003
300.003
300.002
300.002
300.002
300.001
300.001
300.001
300.001
300.001
300.001
300
300
300
300
300
300
300
300
300
300
300
300
300
300
300
300
300
300
300
300
300
300
300
300
300
308.574
307.943
307.347
306.785
306.255
305.759
305.293
304.857
304.451
304.072
303.721
303.394
303.091
302.812
302.553
302.315
302.097
301.896
301.712
301.543
301.389
301.249
301.121
301.005
300.9
300.804
300.718
300.64
300.57
300.506
300.45
300.399
300.353
300.312
300.275
300.243
300.214
300.188
300.165
300.145
300.127
300.111
300.097
300.084
300.073
300.064
300.055
300.048
300.042
300.036
300.031
300.027
300.023
300.02
300.017
300.015
300.013
300.011
300.009
300.008
300.007
300.006
300.005
300.004
300.003
300.003
300.003
300.002
300.002
300.002
300.001
300.001
300.001
300.001
300.001
300.001
300
300
300
300
300
300
300
300
300
300
300
300
300
300
300
300
300
300
300
300
300
300
300
300
309.575
308.871
308.205
307.577
306.986
306.431
305.911
305.425
304.971
304.548
304.155
303.79
303.452
303.14
302.852
302.586
302.342
302.117
301.912
301.724
301.552
301.395
301.252
301.123
301.005
300.898
300.802
300.715
300.636
300.566
300.502
300.445
300.394
300.348
300.307
300.271
300.239
300.21
300.184
300.161
300.141
300.124
300.108
300.094
300.082
300.071
300.062
300.054
300.046
300.04
300.035
300.03
300.026
300.022
300.019
300.016
300.014
300.012
300.01
300.009
300.007
300.006
300.005
300.005
300.004
300.003
300.003
300.002
300.002
300.002
300.001
300.001
300.001
300.001
300.001
300.001
300
300
300
300
300
300
300
300
300
300
300
300
300
300
300
300
300
300
300
300
300
300
300
300
310.574
309.797
309.061
308.368
307.715
307.102
306.528
305.991
305.49
305.023
304.589
304.186
303.813
303.468
303.149
302.856
302.586
302.338
302.111
301.903
301.714
301.541
301.383
301.24
301.11
300.992
300.886
300.789
300.703
300.625
300.554
300.492
300.435
300.385
300.34
300.299
300.263
300.232
300.203
300.178
300.156
300.136
300.119
300.104
300.09
300.079
300.068
300.059
300.051
300.044
300.038
300.033
300.029
300.025
300.021
300.018
300.016
300.013
300.011
300.01
300.008
300.007
300.006
300.005
300.004
300.004
300.003
300.003
300.002
300.002
300.002
300.001
300.001
300.001
300.001
300.001
300.001
300
300
300
300
300
300
300
300
300
300
300
300
300
300
300
300
300
300
300
300
300
300
300
311.571
310.72
309.915
309.156
308.442
307.772
307.143
306.556
306.007
305.496
305.021
304.58
304.172
303.794
303.446
303.125
302.83
302.559
302.31
302.083
301.875
301.686
301.513
301.357
301.214
301.086
300.969
300.864
300.769
300.684
300.607
300.538
300.476
300.421
300.372
300.327
300.288
300.253
300.223
300.195
300.171
300.149
300.13
300.114
300.099
300.086
300.075
300.065
300.056
300.049
300.042
300.036
300.031
300.027
300.023
300.02
300.017
300.015
300.012
300.011
300.009
300.008
300.007
300.006
300.005
300.004
300.003
300.003
300.002
300.002
300.002
300.001
300.001
300.001
300.001
300.001
300.001
300
300
300
300
300
300
300
300
300
300
300
300
300
300
300
300
300
300
300
300
300
300
300
312.565
311.64
310.767
309.943
309.167
308.439
307.757
307.119
306.523
305.968
305.452
304.974
304.53
304.12
303.742
303.393
303.073
302.778
302.509
302.262
302.036
301.831
301.643
301.473
301.319
301.179
301.052
300.938
300.835
300.742
300.659
300.584
300.517
300.457
300.403
300.356
300.313
300.275
300.242
300.212
300.185
300.162
300.142
300.123
300.108
300.093
300.081
300.07
300.061
300.053
300.046
300.039
300.034
300.029
300.025
300.021
300.018
300.016
300.013
300.012
300.01
300.008
300.007
300.006
300.005
300.004
300.004
300.003
300.003
300.002
300.002
300.002
300.001
300.001
300.001
300.001
300.001
300.001
300
300
300
300
300
300
300
300
300
300
300
300
300
300
300
300
300
300
300
300
300
300
313.555
312.558
311.616
310.727
309.89
309.105
308.368
307.68
307.037
306.439
305.882
305.366
304.887
304.445
304.037
303.661
303.315
302.997
302.706
302.44
302.197
301.975
301.773
301.589
301.423
301.272
301.135
301.012
300.901
300.801
300.711
300.63
300.558
300.493
300.435
300.384
300.338
300.297
300.261
300.229
300.2
300.175
300.153
300.133
300.116
300.101
300.088
300.076
300.066
300.057
300.049
300.042
300.037
300.031
300.027
300.023
300.02
300.017
300.015
300.012
300.011
300.009
300.008
300.007
300.006
300.005
300.004
300.003
300.003
300.002
300.002
300.002
300.001
300.001
300.001
300.001
300.001
300.001
300
300
300
300
300
300
300
300
300
300
300
300
300
300
300
300
300
300
300
300
300
300
314.543
313.473
312.462
311.508
310.611
309.768
308.978
308.239
307.55
306.908
306.311
305.757
305.243
304.769
304.331
303.927
303.556
303.216
302.903
302.618
302.357
302.119
301.902
301.705
301.526
301.364
301.218
301.086
300.966
300.859
300.763
300.676
300.598
300.529
300.467
300.412
300.362
300.319
300.28
300.245
300.215
300.188
300.164
300.143
300.124
300.108
300.094
300.082
300.071
300.061
300.053
300.046
300.039
300.034
300.029
300.025
300.021
300.018
300.016
300.013
300.011
300.01
300.008
300.007
300.006
300.005
300.004
300.004
300.003
300.003
300.002
300.002
300.002
300.001
300.001
300.001
300.001
300.001
300.001
300
300
300
300
300
300
300
300
300
300
300
300
300
300
300
300
300
300
300
300
300
315.526
314.384
313.305
312.286
311.328
310.428
309.585
308.797
308.061
307.375
306.738
306.146
305.598
305.092
304.624
304.193
303.797
303.433
303.1
302.795
302.516
302.262
302.031
301.82
301.63
301.457
301.3
301.159
301.032
300.917
300.814
300.722
300.639
300.565
300.498
300.439
300.387
300.34
300.299
300.262
300.229
300.2
300.175
300.153
300.133
300.116
300.1
300.087
300.075
300.065
300.056
300.049
300.042
300.036
300.031
300.027
300.023
300.019
300.017
300.014
300.012
300.01
300.009
300.007
300.006
300.005
300.005
300.004
300.003
300.003
300.002
300.002
300.002
300.001
300.001
300.001
300.001
300.001
300.001
300
300
300
300
300
300
300
300
300
300
300
300
300
300
300
300
300
300
300
300
300
316.506
315.292
314.144
313.062
312.043
311.087
310.19
309.352
308.569
307.84
307.163
306.534
305.951
305.413
304.916
304.458
304.037
303.65
303.295
302.971
302.675
302.405
302.159
301.935
301.732
301.549
301.382
301.232
301.097
300.975
300.866
300.767
300.679
300.6
300.53
300.467
300.411
300.362
300.317
300.278
300.244
300.213
300.186
300.162
300.141
300.123
300.107
300.093
300.08
300.069
300.06
300.052
300.045
300.038
300.033
300.028
300.024
300.021
300.018
300.015
300.013
300.011
300.009
300.008
300.007
300.006
300.005
300.004
300.003
300.003
300.002
300.002
300.002
300.001
300.001
300.001
300.001
300.001
300.001
300
300
300
300
300
300
300
300
300
300
300
300
300
300
300
300
300
300
300
300
300
317.482
316.196
314.98
313.834
312.755
311.742
310.793
309.905
309.076
308.304
307.586
306.92
306.303
305.733
305.206
304.721
304.275
303.866
303.49
303.147
302.833
302.547
302.286
302.05
301.835
301.64
301.464
301.305
301.162
301.033
300.917
300.813
300.719
300.636
300.561
300.495
300.436
300.383
300.336
300.295
300.258
300.226
300.197
300.172
300.15
300.13
300.113
300.098
300.085
300.073
300.063
300.055
300.047
300.041
300.035
300.03
300.026
300.022
300.019
300.016
300.014
300.012
300.01
300.008
300.007
300.006
300.005
300.004
300.004
300.003
300.003
300.002
300.002
300.002
300.001
300.001
300.001
300.001
300.001
300.001
300
300
300
300
300
300
300
300
300
300
300
300
300
300
300
300
300
300
300
300
318.453
317.096
315.813
314.603
313.464
312.394
311.392
310.455
309.58
308.765
308.008
307.305
306.654
306.051
305.496
304.984
304.513
304.08
303.684
303.322
302.99
302.688
302.414
302.164
301.937
301.731
301.545
301.378
301.226
301.09
300.968
300.858
300.759
300.671
300.592
300.522
300.46
300.404
300.355
300.311
300.272
300.238
300.208
300.181
300.158
300.137
300.119
300.103
300.09
300.077
300.067
300.058
300.05
300.043
300.037
300.032
300.027
300.023
300.02
300.017
300.014
300.012
300.01
300.009
300.008
300.006
300.005
300.005
300.004
300.003
300.003
300.002
300.002
300.002
300.001
300.001
300.001
300.001
300.001
300.001
300
300
300
300
300
300
300
300
300
300
300
300
300
300
300
300
300
300
300
300
319.42
317.992
316.642
315.368
314.169
313.044
311.989
311.003
310.082
309.225
308.427
307.688
307.002
306.369
305.784
305.245
304.749
304.294
303.877
303.496
303.147
302.829
302.54
302.277
302.038
301.822
301.626
301.45
301.291
301.147
301.018
300.903
300.799
300.706
300.624
300.55
300.484
300.425
300.373
300.327
300.287
300.251
300.219
300.191
300.166
300.145
300.125
300.109
300.094
300.082
300.07
300.061
300.052
300.045
300.039
300.033
300.028
300.024
300.021
300.018
300.015
300.013
300.011
300.009
300.008
300.007
300.006
300.005
300.004
300.003
300.003
300.002
300.002
300.002
300.001
300.001
300.001
300.001
300.001
300.001
300
300
300
300
300
300
300
300
300
300
300
300
300
300
300
300
300
300
300
300
320.383
318.883
317.466
316.129
314.871
313.69
312.583
311.548
310.582
309.682
308.845
308.068
307.349
306.684
306.07
305.505
304.985
304.507
304.069
303.669
303.303
302.97
302.666
302.39
302.139
301.912
301.707
301.522
301.355
301.204
301.069
300.947
300.839
300.741
300.654
300.577
300.508
300.446
300.392
300.344
300.301
300.263
300.23
300.2
300.174
300.152
300.132
300.114
300.099
300.086
300.074
300.064
300.055
300.047
300.041
300.035
300.03
300.026
300.022
300.019
300.016
300.014
300.012
300.01
300.008
300.007
300.006
300.005
300.004
300.004
300.003
300.003
300.002
300.002
300.001
300.001
300.001
300.001
300.001
300.001
300.001
300
300
300
300
300
300
300
300
300
300
300
300
300
300
300
300
300
300
300
321.34
319.77
318.286
316.887
315.57
314.333
313.174
312.09
311.079
310.136
309.26
308.447
307.694
306.998
306.355
305.763
305.219
304.719
304.26
303.841
303.458
303.109
302.791
302.502
302.24
302.002
301.787
301.593
301.418
301.261
301.119
300.992
300.878
300.776
300.685
300.604
300.532
300.467
300.41
300.36
300.315
300.275
300.24
300.21
300.183
300.159
300.138
300.12
300.104
300.09
300.077
300.067
300.058
300.05
300.043
300.037
300.031
300.027
300.023
300.02
300.017
300.014
300.012
300.01
300.009
300.007
300.006
300.005
300.004
300.004
300.003
300.003
300.002
300.002
300.002
300.001
300.001
300.001
300.001
300.001
300.001
300
300
300
300
300
300
300
300
300
300
300
300
300
300
300
300
300
300
300
322.291
320.652
319.102
317.64
316.264
314.972
313.762
312.63
311.573
310.589
309.673
308.824
308.037
307.31
306.639
306.02
305.451
304.929
304.45
304.012
303.612
303.248
302.915
302.614
302.34
302.091
301.867
301.664
301.481
301.317
301.169
301.036
300.917
300.811
300.716
300.631
300.555
300.488
300.429
300.376
300.329
300.288
300.251
300.219
300.191
300.166
300.144
300.125
300.108
300.094
300.081
300.07
300.06
300.052
300.044
300.038
300.033
300.028
300.024
300.02
300.017
300.015
300.013
300.011
300.009
300.008
300.007
300.006
300.005
300.004
300.003
300.003
300.002
300.002
300.002
300.001
300.001
300.001
300.001
300.001
300.001
300
300
300
300
300
300
300
300
300
300
300
300
300
300
300
300
300
300
300
323.238
321.529
319.913
318.389
316.955
315.608
314.346
313.166
312.064
311.038
310.084
309.199
308.379
307.62
306.921
306.276
305.683
305.138
304.639
304.183
303.766
303.385
303.039
302.725
302.439
302.18
301.946
301.735
301.544
301.373
301.219
301.08
300.956
300.845
300.746
300.658
300.579
300.509
300.447
300.392
300.343
300.3
300.262
300.228
300.199
300.173
300.15
300.13
300.113
300.098
300.084
300.073
300.063
300.054
300.046
300.04
300.034
300.029
300.025
300.021
300.018
300.015
300.013
300.011
300.009
300.008
300.007
300.006
300.005
300.004
300.003
300.003
300.002
300.002
300.002
300.001
300.001
300.001
300.001
300.001
300.001
300
300
300
300
300
300
300
300
300
300
300
300
300
300
300
300
300
300
300
324.178
322.4
320.719
319.133
317.641
316.24
314.927
313.699
312.552
311.485
310.492
309.571
308.718
307.929
307.201
306.53
305.913
305.346
304.827
304.352
303.918
303.523
303.162
302.835
302.538
302.268
302.025
301.805
301.607
301.428
301.268
301.124
300.995
300.879
300.776
300.684
300.602
300.53
300.465
300.408
300.357
300.312
300.272
300.238
300.207
300.18
300.156
300.136
300.117
300.102
300.088
300.076
300.065
300.056
300.048
300.041
300.035
300.03
300.026
300.022
300.019
300.016
300.014
300.012
300.01
300.008
300.007
300.006
300.005
300.004
300.004
300.003
300.003
300.002
300.002
300.001
300.001
300.001
300.001
300.001
300.001
300
300
300
300
300
300
300
300
300
300
300
300
300
300
300
300
300
300
300
325.113
323.266
321.52
319.873
318.323
316.867
315.504
314.228
313.038
311.929
310.898
309.941
309.055
308.235
307.479
306.782
306.141
305.553
305.014
304.52
304.07
303.659
303.285
302.944
302.636
302.356
302.103
301.875
301.669
301.483
301.317
301.167
301.033
300.913
300.806
300.711
300.626
300.55
300.483
300.423
300.371
300.324
300.283
300.247
300.215
300.187
300.162
300.141
300.122
300.105
300.091
300.079
300.068
300.058
300.05
300.043
300.037
300.032
300.027
300.023
300.02
300.017
300.014
300.012
300.01
300.009
300.007
300.006
300.005
300.004
300.004
300.003
300.003
300.002
300.002
300.002
300.001
300.001
300.001
300.001
300.001
300.001
300
300
300
300
300
300
300
300
300
300
300
300
300
300
300
300
300
300
326.042
324.126
322.315
320.607
319
317.491
316.077
314.754
313.52
312.37
311.301
310.309
309.389
308.54
307.755
307.033
306.368
305.758
305.199
304.688
304.22
303.794
303.406
303.053
302.733
302.443
302.181
301.944
301.731
301.538
301.366
301.21
301.071
300.947
300.836
300.737
300.649
300.57
300.501
300.439
300.384
300.336
300.293
300.256
300.223
300.194
300.168
300.146
300.126
300.109
300.094
300.081
300.07
300.06
300.052
300.045
300.038
300.033
300.028
300.024
300.02
300.017
300.015
300.013
300.011
300.009
300.008
300.006
300.005
300.005
300.004
300.003
300.003
300.002
300.002
300.002
300.001
300.001
300.001
300.001
300.001
300.001
300
300
300
300
300
300
300
300
300
300
300
300
300
300
300
300
300
300
326.964
324.98
323.105
321.337
319.673
318.11
316.646
315.277
313.998
312.808
311.701
310.674
309.722
308.842
308.03
307.282
306.594
305.962
305.383
304.853
304.37
303.928
303.527
303.161
302.83
302.53
302.258
302.013
301.792
301.593
301.414
301.253
301.109
300.981
300.866
300.763
300.672
300.591
300.519
300.455
300.398
300.348
300.304
300.265
300.231
300.201
300.174
300.151
300.131
300.113
300.098
300.084
300.073
300.063
300.054
300.046
300.04
300.034
300.029
300.025
300.021
300.018
300.015
300.013
300.011
300.009
300.008
300.007
300.006
300.005
300.004
300.003
300.003
300.002
300.002
300.002
300.001
300.001
300.001
300.001
300.001
300.001
300
300
300
300
300
300
300
300
300
300
300
300
300
300
300
300
300
300
327.879
325.828
323.89
322.061
320.341
318.725
317.211
315.795
314.474
313.243
312.098
311.036
310.052
309.142
308.303
307.529
306.818
306.165
305.566
305.018
304.518
304.062
303.646
303.269
302.926
302.616
302.335
302.081
301.853
301.647
301.462
301.296
301.147
301.014
300.895
300.789
300.695
300.611
300.536
300.47
300.412
300.36
300.314
300.274
300.239
300.207
300.18
300.156
300.135
300.117
300.101
300.087
300.075
300.065
300.056
300.048
300.041
300.035
300.03
300.026
300.022
300.019
300.016
300.013
300.011
300.01
300.008
300.007
300.006
300.005
300.004
300.003
300.003
300.002
300.002
300.002
300.001
300.001
300.001
300.001
300.001
300.001
300
300
300
300
300
300
300
300
300
300
300
300
300
300
300
300
300
300
328.787
326.67
324.668
322.78
321.004
319.335
317.772
316.31
314.945
313.674
312.492
311.395
310.38
309.44
308.573
307.775
307.04
306.365
305.747
305.182
304.665
304.194
303.765
303.375
303.021
302.701
302.411
302.149
301.913
301.701
301.51
301.338
301.184
301.047
300.924
300.815
300.717
300.631
300.554
300.485
300.425
300.372
300.324
300.283
300.246
300.214
300.186
300.161
300.14
300.121
300.104
300.09
300.078
300.067
300.057
300.049
300.042
300.036
300.031
300.026
300.022
300.019
300.016
300.014
300.012
300.01
300.008
300.007
300.006
300.005
300.004
300.004
300.003
300.003
300.002
300.002
300.001
300.001
300.001
300.001
300.001
300.001
300
300
300
300
300
300
300
300
300
300
300
300
300
300
300
300
300
300
329.689
327.505
325.441
323.494
321.661
319.941
318.328
316.821
315.413
314.102
312.883
311.752
310.705
309.736
308.842
308.018
307.26
306.565
305.927
305.344
304.811
304.325
303.883
303.481
303.116
302.785
302.486
302.216
301.973
301.754
301.557
301.38
301.222
301.08
300.953
300.84
300.74
300.65
300.571
300.501
300.438
300.383
300.335
300.292
300.254
300.221
300.192
300.166
300.144
300.125
300.108
300.093
300.08
300.069
300.059
300.051
300.044
300.037
300.032
300.027
300.023
300.02
300.017
300.014
300.012
300.01
300.009
300.007
300.006
300.005
300.004
300.004
300.003
300.003
300.002
300.002
300.002
300.001
300.001
300.001
300.001
300.001
300.001
300
300
300
300
300
300
300
300
300
300
300
300
300
300
300
300
300
330.583
328.333
326.207
324.201
322.314
320.541
318.88
317.327
315.877
314.527
313.271
312.106
311.027
310.029
309.108
308.259
307.479
306.763
306.106
305.505
304.956
304.456
304
303.586
303.21
302.869
302.561
302.283
302.032
301.807
301.604
301.422
301.258
301.112
300.982
300.866
300.762
300.67
300.588
300.516
300.451
300.395
300.345
300.301
300.262
300.228
300.198
300.171
300.148
300.128
300.111
300.096
300.082
300.071
300.061
300.052
300.045
300.038
300.033
300.028
300.024
300.02
300.017
300.015
300.012
300.011
300.009
300.008
300.006
300.005
300.005
300.004
300.003
300.003
300.002
300.002
300.002
300.001
300.001
300.001
300.001
300.001
300.001
300
300
300
300
300
300
300
300
300
300
300
300
300
300
300
300
300
331.469
329.155
326.966
324.903
322.961
321.137
319.428
317.829
316.338
314.948
313.656
312.457
311.347
310.32
309.372
308.499
307.696
306.959
306.283
305.665
305.1
304.585
304.116
303.69
303.303
302.953
302.636
302.349
302.091
301.859
301.65
301.463
301.295
301.145
301.01
300.891
300.784
300.689
300.605
300.531
300.465
300.406
300.355
300.309
300.269
300.234
300.203
300.176
300.153
300.132
300.114
300.098
300.085
300.073
300.063
300.054
300.046
300.04
300.034
300.029
300.025
300.021
300.018
300.015
300.013
300.011
300.009
300.008
300.007
300.006
300.005
300.004
300.003
300.003
300.002
300.002
300.002
300.001
300.001
300.001
300.001
300.001
300.001
300
300
300
300
300
300
300
300
300
300
300
300
300
300
300
300
300
332.348
329.969
327.719
325.598
323.602
321.727
319.97
318.327
316.794
315.365
314.037
312.805
311.663
310.608
309.634
308.736
307.911
307.153
306.458
305.823
305.242
304.713
304.231
303.793
303.395
303.035
302.709
302.415
302.15
301.911
301.696
301.504
301.331
301.177
301.039
300.916
300.806
300.709
300.622
300.545
300.477
300.417
300.365
300.318
300.277
300.241
300.209
300.181
300.157
300.136
300.117
300.101
300.087
300.075
300.064
300.055
300.047
300.041
300.035
300.03
300.025
300.022
300.018
300.016
300.013
300.011
300.009
300.008
300.007
300.006
300.005
300.004
300.003
300.003
300.002
300.002
300.002
300.001
300.001
300.001
300.001
300.001
300.001
300
300
300
300
300
300
300
300
300
300
300
300
300
300
300
300
300
333.219
330.775
328.466
326.287
324.237
322.312
320.508
318.821
317.246
315.779
314.415
313.15
311.977
310.893
309.893
308.971
308.124
307.345
306.632
305.979
305.383
304.84
304.345
303.895
303.487
303.117
302.782
302.48
302.208
301.962
301.742
301.544
301.367
301.208
301.067
300.94
300.828
300.728
300.639
300.56
300.49
300.429
300.374
300.326
300.284
300.247
300.215
300.186
300.161
300.139
300.12
300.104
300.09
300.077
300.066
300.057
300.049
300.042
300.036
300.03
300.026
300.022
300.019
300.016
300.014
300.011
300.01
300.008
300.007
300.006
300.005
300.004
300.003
300.003
300.002
300.002
300.002
300.001
300.001
300.001
300.001
300.001
300.001
300
300
300
300
300
300
300
300
300
300
300
300
300
300
300
300
300
334.082
331.575
329.205
326.97
324.866
322.891
321.04
319.309
317.694
316.189
314.79
313.491
312.288
311.176
310.15
309.204
308.335
307.536
306.804
306.135
305.523
304.965
304.457
303.996
303.577
303.198
302.854
302.544
302.265
302.013
301.787
301.584
301.402
301.24
301.094
300.965
300.849
300.747
300.655
300.575
300.503
300.44
300.384
300.335
300.292
300.254
300.22
300.191
300.165
300.143
300.124
300.107
300.092
300.079
300.068
300.058
300.05
300.043
300.037
300.031
300.027
300.023
300.019
300.016
300.014
300.012
300.01
300.008
300.007
300.006
300.005
300.004
300.004
300.003
300.003
300.002
300.002
300.001
300.001
300.001
300.001
300.001
300.001
300
300
300
300
300
300
300
300
300
300
300
300
300
300
300
300
300
334.936
332.366
329.937
327.646
325.49
323.465
321.568
319.793
318.137
316.595
315.16
313.829
312.596
311.456
310.404
309.435
308.543
307.725
306.975
306.288
305.661
305.09
304.569
304.096
303.667
303.278
302.926
302.608
302.322
302.064
301.832
301.624
301.437
301.271
301.122
300.989
300.87
300.765
300.672
300.589
300.516
300.451
300.394
300.343
300.299
300.26
300.226
300.196
300.17
300.147
300.127
300.109
300.094
300.081
300.07
300.06
300.051
300.044
300.037
300.032
300.027
300.023
300.02
300.017
300.014
300.012
300.01
300.009
300.007
300.006
300.005
300.004
300.004
300.003
300.003
300.002
300.002
300.002
300.001
300.001
300.001
300.001
300.001
300
300
300
300
300
300
300
300
300
300
300
300
300
300
300
300
300
335.781
333.149
330.661
328.315
326.106
324.033
322.09
320.272
318.576
316.996
315.527
314.164
312.901
311.734
310.656
309.663
308.75
307.912
307.144
306.441
305.799
305.213
304.68
304.195
303.755
303.357
302.997
302.671
302.378
302.114
301.876
301.663
301.472
301.301
301.149
301.013
300.892
300.784
300.688
300.603
300.528
300.462
300.403
300.352
300.306
300.266
300.231
300.201
300.174
300.15
300.13
300.112
300.096
300.083
300.071
300.061
300.052
300.045
300.038
300.033
300.028
300.024
300.02
300.017
300.015
300.012
300.01
300.009
300.007
300.006
300.005
300.004
300.004
300.003
300.003
300.002
300.002
300.002
300.001
300.001
300.001
300.001
300.001
300.001
300
300
300
300
300
300
300
300
300
300
300
300
300
300
300
300
336.618
333.924
331.378
328.977
326.717
324.595
322.606
320.746
319.011
317.394
315.89
314.495
313.203
312.008
310.905
309.889
308.955
308.097
307.311
306.591
305.934
305.335
304.789
304.293
303.843
303.436
303.067
302.734
302.433
302.163
301.92
301.702
301.507
301.332
301.176
301.036
300.912
300.802
300.704
300.617
300.541
300.473
300.413
300.36
300.313
300.272
300.237
300.205
300.178
300.154
300.133
300.115
300.099
300.085
300.073
300.063
300.054
300.046
300.039
300.034
300.029
300.024
300.021
300.018
300.015
300.013
300.011
300.009
300.008
300.006
300.005
300.005
300.004
300.003
300.003
300.002
300.002
300.002
300.001
300.001
300.001
300.001
300.001
300.001
300
300
300
300
300
300
300
300
300
300
300
300
300
300
300
300
337.446
334.691
332.087
329.632
327.321
325.151
323.117
321.215
319.44
317.787
316.249
314.823
313.501
312.279
311.152
310.113
309.157
308.28
307.476
306.74
306.068
305.455
304.897
304.39
303.93
303.513
303.136
302.796
302.488
302.212
301.964
301.741
301.541
301.362
301.202
301.06
300.933
300.82
300.72
300.631
300.553
300.483
300.422
300.368
300.32
300.279
300.242
300.21
300.182
300.157
300.136
300.117
300.101
300.087
300.075
300.064
300.055
300.047
300.04
300.034
300.029
300.025
300.021
300.018
300.015
300.013
300.011
300.009
300.008
300.007
300.006
300.005
300.004
300.003
300.003
300.002
300.002
300.002
300.001
300.001
300.001
300.001
300.001
300.001
300
300
300
300
300
300
300
300
300
300
300
300
300
300
300
300
338.264
335.449
332.789
330.279
327.918
325.7
323.622
321.679
319.865
318.176
316.605
315.147
313.796
312.548
311.396
310.334
309.357
308.461
307.639
306.888
306.201
305.575
305.005
304.486
304.016
303.59
303.205
302.857
302.543
302.26
302.006
301.779
301.574
301.392
301.229
301.083
300.953
300.838
300.736
300.645
300.565
300.494
300.431
300.376
300.327
300.285
300.247
300.214
300.186
300.161
300.139
300.12
300.103
300.089
300.076
300.065
300.056
300.048
300.041
300.035
300.03
300.025
300.022
300.018
300.016
300.013
300.011
300.009
300.008
300.007
300.006
300.005
300.004
300.003
300.003
300.002
300.002
300.002
300.001
300.001
300.001
300.001
300.001
300.001
300
300
300
300
300
300
300
300
300
300
300
300
300
300
300
300
339.073
336.199
333.482
330.92
328.508
326.244
324.122
322.137
320.285
318.56
316.956
315.467