/*--------------------------------*- C++ -*----------------------------------*\
| =========                 |                                                 |
| \\      /  F ield         | OpenFOAM: The Open Source CFD Toolbox           |
|  \\    /   O peration     | Version:  2406                                  |
|   \\  /    A nd           | Website:  www.openfoam.com                      |
|    \\/     M anipulation  |                                                 |
\*---------------------------------------------------------------------------*/
FoamFile
{
    version     2.0;
    format      ascii;
    arch        "LSB;label=32;scalar=64";
    class       volScalarField;
    location    "170";
    object      T;
}
// * * * * * * * * * * * * * * * * * * * * * * * * * * * * * * * * * * * * * //

dimensions      [0 0 0 1 0 0 0];

internalField   nonuniform List<scalar> 
20000
(
299.589
299.62
299.65
299.68
299.708
299.736
299.763
299.788
299.813
299.836
299.859
299.88
299.9
299.919
299.936
299.953
299.969
299.983
299.997
300.009
300.021
300.031
300.041
300.05
300.057
300.065
300.071
300.077
300.082
300.086
300.09
300.093
300.096
300.098
300.099
300.1
300.101
300.102
300.102
300.102
300.101
300.1
300.099
300.098
300.096
300.095
300.093
300.091
300.089
300.087
300.085
300.083
300.08
300.078
300.076
300.073
300.071
300.068
300.066
300.063
300.061
300.059
300.056
300.054
300.052
300.049
300.047
300.045
300.043
300.041
300.039
300.037
300.035
300.033
300.032
300.03
300.028
300.027
300.025
300.024
300.022
300.021
300.019
300.018
300.017
300.015
300.014
300.013
300.012
300.011
300.01
300.009
300.007
300.006
300.005
300.004
300.003
300.002
300.001
300
298.766
298.86
298.951
299.039
299.125
299.208
299.288
299.365
299.439
299.509
299.576
299.639
299.699
299.756
299.809
299.859
299.906
299.949
299.99
300.027
300.062
300.093
300.122
300.149
300.172
300.194
300.213
300.23
300.245
300.258
300.269
300.279
300.287
300.293
300.298
300.301
300.304
300.305
300.305
300.305
300.303
300.301
300.297
300.294
300.289
300.285
300.279
300.274
300.268
300.261
300.255
300.248
300.241
300.234
300.227
300.219
300.212
300.205
300.197
300.19
300.183
300.176
300.169
300.162
300.155
300.148
300.142
300.135
300.129
300.123
300.117
300.111
300.106
300.1
300.095
300.09
300.085
300.08
300.075
300.071
300.066
300.062
300.058
300.054
300.05
300.046
300.042
300.039
300.035
300.032
300.029
300.026
300.022
300.019
300.016
300.013
300.01
300.007
300.004
300.001
297.944
298.1
298.252
298.399
298.542
298.681
298.814
298.942
299.064
299.181
299.293
299.398
299.498
299.593
299.681
299.765
299.843
299.915
299.983
300.045
300.102
300.155
300.204
300.248
300.287
300.323
300.355
300.383
300.408
300.43
300.449
300.464
300.478
300.488
300.496
300.502
300.506
300.508
300.509
300.508
300.505
300.501
300.496
300.489
300.482
300.474
300.465
300.456
300.446
300.435
300.424
300.413
300.401
300.389
300.377
300.365
300.353
300.341
300.329
300.317
300.305
300.293
300.281
300.27
300.258
300.247
300.236
300.226
300.215
300.205
300.195
300.186
300.176
300.167
300.158
300.15
300.141
300.133
300.125
300.118
300.11
300.103
300.096
300.09
300.083
300.077
300.071
300.065
300.059
300.053
300.048
300.043
300.037
300.032
300.027
300.022
300.017
300.012
300.007
300.002
297.122
297.34
297.553
297.759
297.96
298.153
298.34
298.519
298.691
298.854
299.01
299.158
299.298
299.43
299.554
299.671
299.78
299.881
299.976
300.063
300.143
300.217
300.285
300.346
300.402
300.452
300.497
300.537
300.572
300.602
300.628
300.65
300.668
300.683
300.695
300.703
300.709
300.712
300.712
300.71
300.707
300.701
300.694
300.685
300.675
300.664
300.651
300.638
300.624
300.609
300.594
300.578
300.562
300.545
300.528
300.511
300.494
300.477
300.46
300.444
300.427
300.41
300.394
300.378
300.362
300.346
300.331
300.316
300.301
300.287
300.273
300.26
300.247
300.234
300.221
300.209
300.198
300.186
300.175
300.165
300.155
300.145
300.135
300.126
300.116
300.108
300.099
300.091
300.083
300.075
300.067
300.06
300.052
300.045
300.038
300.031
300.024
300.017
300.01
300.003
296.301
296.581
296.855
297.12
297.378
297.627
297.866
298.097
298.317
298.527
298.728
298.918
299.098
299.267
299.427
299.577
299.717
299.847
299.969
300.081
300.184
300.279
300.366
300.445
300.517
300.581
300.639
300.69
300.735
300.774
300.807
300.836
300.859
300.878
300.893
300.904
300.911
300.915
300.915
300.913
300.908
300.901
300.892
300.881
300.868
300.853
300.837
300.82
300.802
300.783
300.763
300.743
300.722
300.701
300.679
300.657
300.635
300.614
300.592
300.57
300.548
300.527
300.506
300.485
300.465
300.445
300.425
300.406
300.387
300.369
300.351
300.334
300.317
300.301
300.285
300.269
300.254
300.24
300.225
300.212
300.199
300.186
300.173
300.161
300.15
300.138
300.127
300.117
300.106
300.096
300.086
300.077
300.067
300.058
300.049
300.04
300.031
300.022
300.013
300.004
295.481
295.823
296.157
296.482
296.796
297.1
297.393
297.675
297.944
298.201
298.445
298.678
298.897
299.105
299.3
299.483
299.654
299.814
299.962
300.099
300.225
300.341
300.447
300.544
300.631
300.71
300.78
300.843
300.898
300.945
300.986
301.021
301.05
301.073
301.091
301.104
301.113
301.117
301.118
301.116
301.11
301.101
301.09
301.076
301.06
301.042
301.023
301.002
300.98
300.957
300.932
300.907
300.882
300.856
300.83
300.803
300.776
300.75
300.723
300.696
300.67
300.644
300.618
300.593
300.568
300.544
300.52
300.496
300.473
300.451
300.429
300.408
300.387
300.367
300.348
300.329
300.31
300.293
300.275
300.259
300.243
300.227
300.212
300.197
300.183
300.169
300.156
300.143
300.13
300.117
300.105
300.094
300.082
300.071
300.059
300.048
300.038
300.027
300.016
300.005
294.663
295.066
295.461
295.844
296.216
296.575
296.921
297.253
297.571
297.875
298.164
298.438
298.698
298.943
299.173
299.389
299.591
299.78
299.955
300.117
300.266
300.403
300.529
300.643
300.746
300.839
300.922
300.995
301.06
301.117
301.165
301.206
301.24
301.267
301.288
301.304
301.314
301.32
301.321
301.318
301.311
301.3
301.287
301.271
301.252
301.231
301.208
301.183
301.157
301.13
301.101
301.072
301.042
301.011
300.98
300.949
300.917
300.885
300.854
300.823
300.792
300.761
300.73
300.7
300.671
300.642
300.614
300.586
300.559
300.533
300.507
300.482
300.457
300.434
300.411
300.388
300.367
300.346
300.325
300.306
300.287
300.268
300.25
300.233
300.216
300.2
300.184
300.168
300.153
300.139
300.124
300.11
300.097
300.083
300.07
300.057
300.044
300.032
300.019
300.006
293.845
294.311
294.765
295.208
295.636
296.05
296.449
296.832
297.199
297.549
297.882
298.199
298.498
298.781
299.046
299.296
299.529
299.746
299.948
300.135
300.307
300.465
300.61
300.741
300.86
300.967
301.063
301.148
301.223
301.288
301.343
301.391
301.43
301.461
301.486
301.504
301.516
301.522
301.523
301.52
301.512
301.5
301.484
301.465
301.444
301.42
301.393
301.365
301.335
301.303
301.27
301.236
301.201
301.166
301.13
301.094
301.058
301.021
300.985
300.949
300.913
300.877
300.842
300.808
300.774
300.74
300.708
300.676
300.645
300.614
300.584
300.556
300.527
300.5
300.474
300.448
300.423
300.399
300.375
300.353
300.331
300.309
300.289
300.269
300.249
300.23
300.212
300.194
300.177
300.16
300.144
300.127
300.112
300.096
300.081
300.066
300.051
300.036
300.022
300.007
293.029
293.556
294.071
294.572
295.058
295.527
295.978
296.412
296.828
297.224
297.602
297.96
298.299
298.619
298.92
299.202
299.466
299.712
299.941
300.153
300.348
300.527
300.69
300.839
300.974
301.095
301.204
301.3
301.385
301.458
301.521
301.575
301.619
301.655
301.683
301.703
301.717
301.724
301.725
301.721
301.712
301.699
301.681
301.66
301.635
301.608
301.578
301.546
301.512
301.476
301.438
301.4
301.361
301.321
301.28
301.239
301.198
301.157
301.115
301.074
301.034
300.994
300.954
300.915
300.876
300.839
300.802
300.765
300.73
300.696
300.662
300.629
300.597
300.566
300.536
300.507
300.479
300.452
300.425
300.399
300.374
300.35
300.327
300.304
300.282
300.261
300.24
300.22
300.2
300.181
300.163
300.144
300.126
300.109
300.092
300.075
300.058
300.041
300.025
300.008
292.214
292.804
293.379
293.938
294.48
295.004
295.509
295.993
296.457
296.9
297.321
297.722
298.1
298.458
298.794
299.109
299.404
299.679
299.934
300.17
300.388
300.588
300.771
300.937
301.088
301.223
301.345
301.452
301.546
301.629
301.699
301.759
301.808
301.848
301.879
301.902
301.917
301.925
301.927
301.922
301.912
301.897
301.877
301.854
301.826
301.796
301.762
301.726
301.688
301.648
301.606
301.564
301.52
301.475
301.429
301.384
301.338
301.292
301.246
301.2
301.155
301.11
301.065
301.022
300.979
300.937
300.895
300.855
300.815
300.777
300.739
300.703
300.667
300.633
300.599
300.567
300.535
300.504
300.475
300.446
300.418
300.391
300.365
300.34
300.315
300.291
300.268
300.246
300.224
300.202
300.182
300.161
300.141
300.122
300.102
300.083
300.065
300.046
300.028
300.009
291.402
292.053
292.688
293.305
293.904
294.483
295.04
295.575
296.087
296.576
297.042
297.484
297.902
298.297
298.668
299.016
299.342
299.645
299.927
300.188
300.429
300.65
300.851
301.035
301.202
301.351
301.485
301.603
301.708
301.799
301.877
301.942
301.997
302.041
302.076
302.101
302.117
302.126
302.128
302.123
302.112
302.095
302.073
302.047
302.017
301.983
301.946
301.906
301.864
301.82
301.774
301.727
301.678
301.629
301.579
301.528
301.477
301.426
301.376
301.325
301.275
301.225
301.177
301.128
301.081
301.034
300.989
300.944
300.9
300.858
300.816
300.776
300.737
300.699
300.662
300.626
300.591
300.557
300.524
300.492
300.462
300.432
300.403
300.375
300.348
300.322
300.296
300.271
300.247
300.224
300.2
300.178
300.156
300.134
300.113
300.092
300.071
300.051
300.03
300.01
290.592
291.304
291.999
292.675
293.33
293.963
294.572
295.158
295.719
296.254
296.763
297.247
297.704
298.136
298.542
298.923
299.28
299.612
299.92
300.206
300.469
300.711
300.932
301.133
301.315
301.478
301.625
301.755
301.869
301.968
302.053
302.126
302.185
302.234
302.271
302.299
302.317
302.327
302.328
302.323
302.311
302.292
302.269
302.24
302.207
302.17
302.13
302.086
302.04
301.992
301.941
301.889
301.836
301.782
301.727
301.672
301.616
301.561
301.505
301.45
301.395
301.341
301.287
301.235
301.183
301.132
301.082
301.033
300.985
300.939
300.893
300.849
300.806
300.764
300.724
300.685
300.646
300.609
300.574
300.539
300.505
300.473
300.441
300.411
300.381
300.352
300.324
300.297
300.27
300.245
300.219
300.195
300.171
300.147
300.124
300.101
300.078
300.056
300.033
300.011
289.784
290.557
291.312
292.045
292.757
293.444
294.106
294.742
295.351
295.932
296.485
297.01
297.507
297.976
298.417
298.831
299.218
299.579
299.914
300.224
300.509
300.772
301.012
301.23
301.428
301.605
301.764
301.905
302.029
302.137
302.23
302.308
302.373
302.426
302.466
302.496
302.516
302.526
302.528
302.522
302.509
302.489
302.463
302.432
302.397
302.356
302.312
302.265
302.215
302.163
302.108
302.052
301.994
301.935
301.876
301.816
301.755
301.695
301.635
301.575
301.515
301.456
301.398
301.341
301.284
301.229
301.175
301.122
301.07
301.019
300.97
300.922
300.875
300.83
300.786
300.743
300.702
300.662
300.623
300.585
300.549
300.513
300.479
300.446
300.414
300.382
300.352
300.322
300.294
300.266
300.238
300.212
300.185
300.16
300.134
300.109
300.085
300.06
300.036
300.012
288.978
289.812
290.626
291.418
292.186
292.927
293.642
294.328
294.984
295.611
296.208
296.775
297.311
297.816
298.292
298.739
299.156
299.545
299.907
300.241
300.549
300.833
301.092
301.327
301.54
301.732
301.903
302.056
302.189
302.306
302.406
302.49
302.56
302.617
302.661
302.693
302.714
302.726
302.728
302.721
302.707
302.685
302.658
302.624
302.585
302.542
302.495
302.444
302.39
302.333
302.274
302.213
302.151
302.088
302.024
301.959
301.894
301.828
301.763
301.699
301.635
301.571
301.508
301.446
301.386
301.326
301.267
301.21
301.154
301.1
301.047
300.995
300.944
300.896
300.848
300.802
300.757
300.714
300.672
300.631
300.592
300.554
300.517
300.481
300.446
300.412
300.38
300.348
300.317
300.287
300.257
300.228
300.2
300.172
300.145
300.118
300.091
300.065
300.039
300.013
288.176
289.07
289.944
290.793
291.617
292.412
293.179
293.914
294.619
295.292
295.932
296.54
297.115
297.657
298.168
298.647
299.095
299.512
299.9
300.259
300.59
300.893
301.171
301.424
301.652
301.858
302.042
302.205
302.349
302.473
302.581
302.671
302.747
302.807
302.854
302.889
302.912
302.924
302.926
302.919
302.904
302.881
302.851
302.815
302.774
302.727
302.676
302.622
302.564
302.503
302.44
302.375
302.308
302.24
302.171
302.101
302.032
301.962
301.892
301.822
301.754
301.685
301.618
301.552
301.487
301.422
301.36
301.298
301.238
301.18
301.123
301.067
301.013
300.961
300.91
300.86
300.812
300.766
300.721
300.677
300.635
300.594
300.554
300.516
300.479
300.442
300.407
300.373
300.34
300.307
300.276
300.245
300.214
300.185
300.155
300.127
300.098
300.07
300.042
300.014
287.376
288.331
289.264
290.17
291.05
291.899
292.717
293.503
294.255
294.973
295.657
296.306
296.92
297.499
298.044
298.555
299.034
299.479
299.893
300.276
300.629
300.954
301.25
301.52
301.764
301.984
302.18
302.354
302.508
302.641
302.755
302.852
302.932
302.997
303.048
303.084
303.109
303.122
303.124
303.117
303.1
303.076
303.044
303.006
302.961
302.912
302.858
302.799
302.737
302.672
302.605
302.535
302.464
302.391
302.318
302.244
302.169
302.094
302.02
301.946
301.872
301.799
301.728
301.657
301.587
301.519
301.452
301.386
301.322
301.26
301.199
301.139
301.082
301.026
300.971
300.919
300.867
300.818
300.77
300.723
300.678
300.634
300.592
300.551
300.511
300.472
300.435
300.398
300.363
300.328
300.294
300.261
300.229
300.197
300.166
300.135
300.105
300.075
300.045
300.015
286.579
287.595
288.586
289.55
290.485
291.388
292.258
293.093
293.892
294.656
295.383
296.072
296.725
297.341
297.921
298.464
298.973
299.446
299.886
300.294
300.669
301.014
301.329
301.616
301.876
302.109
302.318
302.503
302.666
302.807
302.929
303.032
303.118
303.186
303.24
303.279
303.305
303.319
303.321
303.313
303.296
303.27
303.236
303.195
303.148
303.096
303.038
302.976
302.91
302.841
302.769
302.695
302.62
302.542
302.464
302.385
302.306
302.227
302.147
302.069
301.99
301.913
301.837
301.761
301.687
301.615
301.543
301.474
301.406
301.339
301.274
301.211
301.15
301.091
301.033
300.977
300.922
300.869
300.818
300.769
300.721
300.674
300.629
300.586
300.543
300.502
300.462
300.423
300.386
300.349
300.313
300.278
300.243
300.21
300.176
300.144
300.111
300.079
300.048
300.016
285.786
286.861
287.911
288.932
289.922
290.879
291.8
292.684
293.531
294.34
295.11
295.84
296.532
297.184
297.798
298.374
298.912
299.414
299.88
300.311
300.709
301.074
301.408
301.711
301.986
302.234
302.455
302.651
302.823
302.973
303.102
303.211
303.302
303.375
303.431
303.473
303.501
303.515
303.518
303.509
303.491
303.463
303.428
303.384
303.334
303.279
303.217
303.152
303.082
303.009
302.933
302.855
302.774
302.693
302.61
302.526
302.442
302.358
302.274
302.191
302.108
302.026
301.945
301.865
301.787
301.71
301.635
301.561
301.489
301.418
301.35
301.283
301.218
301.155
301.094
301.034
300.977
300.921
300.867
300.814
300.763
300.714
300.666
300.62
300.575
300.532
300.49
300.448
300.408
300.37
300.331
300.294
300.258
300.222
300.187
300.152
300.118
300.084
300.05
300.017
284.996
286.131
287.239
288.317
289.362
290.372
291.344
292.278
293.172
294.025
294.838
295.609
296.339
297.027
297.675
298.283
298.851
299.381
299.873
300.328
300.748
301.134
301.486
301.807
302.097
302.358
302.591
302.798
302.98
303.139
303.275
303.39
303.485
303.562
303.622
303.666
303.695
303.71
303.713
303.704
303.685
303.656
303.618
303.572
303.52
303.461
303.396
303.327
303.253
303.176
303.096
303.013
302.929
302.842
302.755
302.667
302.578
302.489
302.401
302.313
302.225
302.139
302.053
301.969
301.886
301.805
301.725
301.648
301.571
301.497
301.425
301.354
301.286
301.219
301.155
301.092
301.031
300.972
300.915
300.859
300.806
300.754
300.703
300.655
300.607
300.561
300.517
300.473
300.431
300.39
300.35
300.311
300.272
300.234
300.197
300.161
300.125
300.089
300.053
300.018
284.209
285.404
286.571
287.705
288.805
289.867
290.891
291.873
292.814
293.712
294.567
295.379
296.147
296.872
297.554
298.193
298.791
299.349
299.866
300.345
300.787
301.193
301.564
301.901
302.207
302.481
302.727
302.945
303.136
303.303
303.446
303.567
303.668
303.749
303.812
303.858
303.889
303.905
303.908
303.898
303.878
303.847
303.808
303.76
303.704
303.642
303.574
303.501
303.424
303.343
303.258
303.171
303.082
302.991
302.899
302.806
302.713
302.62
302.526
302.434
302.342
302.251
302.161
302.072
301.985
301.9
301.816
301.734
301.654
301.576
301.499
301.425
301.353
301.283
301.215
301.149
301.085
301.023
300.963
300.904
300.848
300.793
300.74
300.689
300.639
300.591
300.544
300.498
300.454
300.41
300.368
300.327
300.286
300.247
300.208
300.169
300.131
300.093
300.056
300.019
283.427
284.681
285.905
287.096
288.25
289.365
290.439
291.471
292.458
293.401
294.298
295.15
295.956
296.717
297.432
298.104
298.731
299.316
299.86
300.363
300.826
301.252
301.641
301.995
302.316
302.604
302.862
303.091
303.292
303.467
303.617
303.744
303.85
303.935
304.001
304.049
304.081
304.098
304.101
304.091
304.07
304.038
303.996
303.946
303.888
303.823
303.751
303.675
303.593
303.508
303.42
303.328
303.235
303.139
303.043
302.945
302.847
302.749
302.652
302.554
302.458
302.362
302.268
302.175
302.083
301.994
301.906
301.82
301.736
301.654
301.574
301.496
301.42
301.347
301.275
301.206
301.139
301.074
301.01
300.949
300.89
300.833
300.777
300.723
300.671
300.62
300.571
300.523
300.476
300.431
300.386
300.343
300.301
300.259
300.218
300.178
300.138
300.098
300.059
300.02
282.649
283.962
285.244
286.49
287.698
288.866
289.99
291.07
292.104
293.091
294.031
294.922
295.766
296.563
297.312
298.015
298.672
299.284
299.853
300.38
300.865
301.311
301.718
302.089
302.425
302.727
302.997
303.236
303.446
303.63
303.787
303.92
304.03
304.119
304.189
304.239
304.273
304.291
304.294
304.284
304.261
304.228
304.184
304.131
304.07
304.002
303.927
303.847
303.762
303.673
303.58
303.485
303.387
303.287
303.186
303.084
302.981
302.879
302.776
302.674
302.573
302.473
302.374
302.277
302.181
302.087
301.995
301.905
301.817
301.731
301.648
301.566
301.487
301.41
301.335
301.263
301.192
301.124
301.058
300.994
300.932
300.872
300.814
300.757
300.702
300.649
300.598
300.547
300.499
300.451
300.405
300.359
300.315
300.271
300.228
300.186
300.144
300.103
300.061
300.02
281.875
283.247
284.585
285.888
287.15
288.369
289.544
290.672
291.752
292.783
293.764
294.696
295.577
296.409
297.192
297.926
298.613
299.252
299.847
300.397
300.904
301.369
301.795
302.182
302.533
302.848
303.13
303.38
303.6
303.791
303.956
304.095
304.21
304.303
304.375
304.428
304.464
304.482
304.485
304.475
304.451
304.416
304.37
304.315
304.252
304.181
304.103
304.019
303.93
303.837
303.74
303.64
303.538
303.433
303.328
303.221
303.114
303.007
302.9
302.794
302.688
302.583
302.48
302.379
302.279
302.18
302.084
301.99
301.898
301.809
301.721
301.636
301.553
301.473
301.395
301.319
301.245
301.174
301.105
301.038
300.973
300.911
300.85
300.791
300.734
300.678
300.624
300.572
300.521
300.471
300.423
300.375
300.329
300.283
300.238
300.194
300.15
300.107
300.064
300.021
281.105
282.535
283.931
285.288
286.604
287.875
289.1
290.276
291.402
292.476
293.5
294.471
295.39
296.257
297.073
297.838
298.554
299.221
299.84
300.413
300.942
301.427
301.871
302.275
302.64
302.969
303.263
303.524
303.753
303.952
304.124
304.269
304.389
304.486
304.561
304.616
304.653
304.672
304.676
304.665
304.64
304.604
304.556
304.499
304.432
304.358
304.277
304.189
304.097
304
303.899
303.795
303.688
303.579
303.469
303.358
303.246
303.135
303.023
302.912
302.802
302.693
302.586
302.48
302.375
302.273
302.173
302.075
301.979
301.885
301.794
301.705
301.619
301.535
301.454
301.375
301.298
301.224
301.152
301.082
301.015
300.949
300.886
300.824
300.765
300.707
300.651
300.596
300.543
300.491
300.441
300.391
300.343
300.295
300.248
300.202
300.157
300.112
300.067
300.022
280.341
281.828
283.281
284.693
286.062
287.385
288.659
289.882
291.054
292.172
293.236
294.247
295.203
296.105
296.954
297.751
298.495
299.189
299.834
300.43
300.98
301.485
301.947
302.367
302.747
303.089
303.395
303.666
303.905
304.112
304.291
304.442
304.567
304.667
304.746
304.803
304.841
304.861
304.865
304.853
304.828
304.79
304.74
304.681
304.612
304.534
304.45
304.359
304.263
304.162
304.057
303.948
303.837
303.724
303.609
303.494
303.378
303.261
303.145
303.03
302.915
302.802
302.69
302.58
302.471
302.365
302.261
302.159
302.059
301.962
301.867
301.774
301.685
301.597
301.513
301.43
301.351
301.273
301.199
301.126
301.056
300.988
300.922
300.858
300.796
300.736
300.677
300.62
300.565
300.511
300.458
300.407
300.357
300.307
300.259
300.211
300.163
300.116
300.07
300.023
279.581
281.126
282.634
284.101
285.523
286.897
288.22
289.491
290.708
291.869
292.975
294.024
295.018
295.955
296.837
297.664
298.437
299.158
299.827
300.447
301.018
301.543
302.022
302.459
302.853
303.209
303.526
303.808
304.056
304.271
304.457
304.613
304.743
304.848
304.929
304.989
305.029
305.049
305.053
305.041
305.015
304.975
304.924
304.862
304.79
304.71
304.622
304.528
304.427
304.322
304.213
304.101
303.985
303.868
303.749
303.629
303.508
303.388
303.267
303.147
303.028
302.91
302.794
302.68
302.567
302.456
302.348
302.242
302.138
302.037
301.939
301.843
301.75
301.659
301.571
301.486
301.403
301.323
301.245
301.17
301.097
301.026
300.957
300.891
300.827
300.764
300.703
300.644
300.587
300.531
300.476
300.423
300.37
300.319
300.269
300.219
300.169
300.121
300.072
300.024
278.826
280.428
281.992
283.513
284.988
286.413
287.785
289.103
290.364
291.569
292.715
293.803
294.833
295.805
296.72
297.577
298.379
299.127
299.821
300.463
301.056
301.6
302.097
302.549
302.959
303.327
303.657
303.949
304.206
304.429
304.621
304.784
304.918
305.027
305.112
305.173
305.214
305.236
305.24
305.227
305.2
305.159
305.106
305.041
304.967
304.884
304.793
304.695
304.591
304.482
304.369
304.252
304.133
304.011
303.888
303.763
303.638
303.513
303.388
303.263
303.14
303.018
302.897
302.779
302.662
302.547
302.435
302.325
302.218
302.113
302.011
301.911
301.814
301.72
301.629
301.541
301.455
301.372
301.291
301.213
301.137
301.064
300.993
300.924
300.857
300.792
300.729
300.668
300.608
300.55
300.494
300.438
300.384
300.331
300.278
300.227
300.176
300.125
300.075
300.025
278.076
279.735
281.355
282.93
284.456
285.932
287.352
288.717
290.023
291.27
292.457
293.584
294.65
295.657
296.603
297.491
298.322
299.096
299.814
300.48
301.093
301.656
302.171
302.64
303.064
303.445
303.786
304.089
304.355
304.586
304.785
304.953
305.093
305.205
305.293
305.357
305.399
305.421
305.425
305.413
305.384
305.342
305.286
305.22
305.143
305.057
304.962
304.861
304.754
304.641
304.524
304.403
304.279
304.153
304.025
303.896
303.767
303.637
303.508
303.379
303.251
303.125
303
302.877
302.756
302.637
302.521
302.407
302.296
302.188
302.082
301.979
301.879
301.781
301.687
301.595
301.506
301.42
301.337
301.256
301.177
301.101
301.028
300.957
300.887
300.82
300.755
300.692
300.63
300.57
300.511
300.454
300.398
300.343
300.288
300.235
300.182
300.13
300.078
300.026
277.332
279.047
280.722
282.35
283.929
285.454
286.923
288.334
289.684
290.974
292.201
293.366
294.469
295.509
296.488
297.406
298.265
299.065
299.808
300.496
301.13
301.712
302.245
302.729
303.168
303.562
303.915
304.228
304.503
304.742
304.947
305.121
305.265
305.382
305.472
305.538
305.582
305.606
305.61
305.596
305.567
305.523
305.466
305.397
305.317
305.228
305.131
305.026
304.915
304.799
304.677
304.552
304.424
304.294
304.162
304.029
303.895
303.761
303.627
303.494
303.362
303.231
303.102
302.975
302.85
302.727
302.607
302.489
302.374
302.262
302.152
302.046
301.942
301.842
301.744
301.649
301.558
301.468
301.382
301.298
301.217
301.139
301.063
300.989
300.918
300.848
300.781
300.715
300.651
300.589
300.529
300.469
300.411
300.354
300.298
300.243
300.188
300.134
300.08
300.027
276.593
278.365
280.093
281.775
283.405
284.98
286.497
287.954
289.348
290.68
291.947
293.15
294.289
295.363
296.374
297.322
298.208
299.034
299.802
300.512
301.167
301.768
302.318
302.818
303.271
303.678
304.042
304.365
304.649
304.896
305.109
305.288
305.437
305.557
305.651
305.719
305.764
305.788
305.792
305.779
305.748
305.703
305.644
305.573
305.491
305.399
305.298
305.19
305.075
304.955
304.83
304.701
304.569
304.434
304.298
304.16
304.022
303.883
303.745
303.608
303.471
303.336
303.203
303.072
302.943
302.816
302.692
302.57
302.451
302.336
302.223
302.113
302.006
301.902
301.801
301.703
301.608
301.516
301.427
301.341
301.257
301.176
301.097
301.021
300.947
300.876
300.806
300.739
300.673
300.608
300.546
300.485
300.425
300.366
300.308
300.251
300.194
300.138
300.083
300.028
275.86
277.687
279.47
281.204
282.885
284.51
286.074
287.576
289.015
290.388
291.695
292.936
294.11
295.218
296.26
297.238
298.152
299.004
299.796
300.528
301.204
301.824
302.391
302.906
303.373
303.793
304.169
304.502
304.795
305.05
305.269
305.454
305.607
305.731
305.827
305.898
305.945
305.969
305.974
305.96
305.928
305.882
305.821
305.747
305.663
305.568
305.464
305.352
305.234
305.11
304.981
304.848
304.712
304.573
304.432
304.29
304.148
304.005
303.862
303.721
303.58
303.441
303.303
303.168
303.035
302.904
302.776
302.651
302.528
302.409
302.292
302.179
302.069
301.961
301.857
301.756
301.659
301.564
301.472
301.383
301.296
301.213
301.132
301.053
300.977
300.903
300.831
300.762
300.694
300.628
300.563
300.5
300.438
300.377
300.317
300.259
300.2
300.143
300.085
300.028
275.133
277.015
278.852
280.638
282.37
284.043
285.655
287.202
288.684
290.098
291.445
292.723
293.932
295.074
296.147
297.155
298.096
298.974
299.789
300.544
301.24
301.879
302.463
302.994
303.475
303.908
304.294
304.638
304.939
305.202
305.427
305.618
305.776
305.904
306.003
306.076
306.124
306.149
306.154
306.139
306.107
306.059
305.996
305.92
305.833
305.735
305.629
305.514
305.392
305.264
305.131
304.994
304.854
304.711
304.566
304.419
304.272
304.125
303.979
303.833
303.688
303.544
303.403
303.263
303.126
302.991
302.859
302.73
302.604
302.481
302.361
302.244
302.131
302.021
301.913
301.809
301.709
301.611
301.516
301.424
301.335
301.249
301.166
301.085
301.007
300.93
300.856
300.785
300.715
300.646
300.58
300.515
300.451
300.389
300.327
300.266
300.206
300.147
300.088
300.029
274.412
276.349
278.239
280.077
281.859
283.581
285.239
286.831
288.356
289.811
291.197
292.512
293.756
294.931
296.036
297.072
298.041
298.944
299.783
300.56
301.276
301.933
302.534
303.081
303.576
304.021
304.419
304.772
305.082
305.353
305.585
305.781
305.944
306.075
306.177
306.252
306.301
306.327
306.332
306.317
306.284
306.234
306.17
306.092
306.002
305.902
305.792
305.673
305.548
305.417
305.28
305.139
304.994
304.847
304.698
304.547
304.396
304.245
304.094
303.944
303.795
303.647
303.501
303.358
303.217
303.078
302.942
302.81
302.68
302.553
302.43
302.31
302.193
302.079
301.969
301.862
301.758
301.658
301.56
301.466
301.374
301.286
301.2
301.116
301.036
300.957
300.881
300.807
300.735
300.665
300.597
300.53
300.464
300.4
300.336
300.274
300.212
300.151
300.091
300.03
273.698
275.688
277.631
279.521
281.352
283.122
284.827
286.464
288.031
289.527
290.951
292.303
293.582
294.789
295.925
296.99
297.987
298.915
299.777
300.575
301.311
301.987
302.605
303.167
303.676
304.133
304.542
304.905
305.224
305.502
305.741
305.942
306.11
306.245
306.349
306.426
306.477
306.504
306.509
306.493
306.459
306.408
306.342
306.262
306.17
306.067
305.953
305.832
305.703
305.568
305.427
305.282
305.134
304.982
304.829
304.674
304.519
304.363
304.208
304.054
303.901
303.749
303.599
303.452
303.307
303.164
303.025
302.888
302.755
302.624
302.498
302.374
302.254
302.137
302.024
301.914
301.807
301.704
301.604
301.507
301.413
301.321
301.233
301.148
301.065
300.984
300.906
300.83
300.756
300.684
300.613
300.545
300.477
300.411
300.346
300.282
300.218
300.156
300.093
300.031
272.99
275.034
277.029
278.969
280.85
282.668
284.418
286.099
287.709
289.245
290.707
292.096
293.409
294.649
295.815
296.909
297.932
298.886
299.771
300.591
301.347
302.041
302.675
303.252
303.774
304.245
304.665
305.037
305.365
305.65
305.895
306.102
306.274
306.413
306.52
306.599
306.652
306.679
306.684
306.668
306.633
306.581
306.513
306.431
306.336
306.23
306.114
305.989
305.857
305.718
305.573
305.424
305.272
305.117
304.959
304.8
304.641
304.481
304.322
304.163
304.006
303.85
303.696
303.545
303.396
303.249
303.106
302.966
302.829
302.695
302.565
302.438
302.315
302.195
302.078
301.965
301.856
301.75
301.647
301.547
301.451
301.357
301.266
301.179
301.093
301.011
300.93
300.852
300.776
300.702
300.63
300.559
300.49
300.422
300.355
300.289
300.224
300.16
300.096
300.032
272.289
274.386
276.433
278.423
280.353
282.218
284.014
285.738
287.389
288.966
290.466
291.89
293.238
294.51
295.707
296.829
297.879
298.857
299.765
300.606
301.382
302.093
302.744
303.337
303.872
304.355
304.786
305.168
305.504
305.797
306.048
306.261
306.437
306.579
306.69
306.771
306.824
306.853
306.858
306.841
306.805
306.752
306.682
306.598
306.5
306.392
306.272
306.144
306.009
305.866
305.718
305.565
305.409
305.249
305.088
304.925
304.761
304.597
304.434
304.271
304.11
303.95
303.792
303.637
303.484
303.334
303.187
303.043
302.902
302.765
302.631
302.501
302.375
302.252
302.132
302.016
301.904
301.795
301.69
301.587
301.488
301.392
301.299
301.209
301.122
301.037
300.954
300.874
300.796
300.72
300.646
300.574
300.503
300.433
300.364
300.297
300.23
300.164
300.098
300.033
271.594
273.744
275.842
277.883
279.861
281.772
283.613
285.381
287.073
288.689
290.227
291.687
293.069
294.373
295.599
296.75
297.826
298.828
299.76
300.621
301.416
302.146
302.813
303.42
303.97
304.464
304.906
305.298
305.642
305.942
306.2
306.418
306.598
306.744
306.857
306.94
306.995
307.024
307.03
307.013
306.976
306.921
306.85
306.763
306.663
306.552
306.43
306.298
306.159
306.013
305.861
305.705
305.544
305.381
305.215
305.048
304.881
304.713
304.545
304.378
304.213
304.049
303.887
303.728
303.571
303.417
303.266
303.119
302.975
302.834
302.697
302.564
302.434
302.308
302.186
302.067
301.952
301.84
301.732
301.627
301.526
301.427
301.332
301.239
301.15
301.063
300.978
300.896