/*--------------------------------*- C++ -*----------------------------------*\
| =========                 |                                                 |
| \\      /  F ield         | OpenFOAM: The Open Source CFD Toolbox           |
|  \\    /   O peration     | Version:  2406                                  |
|   \\  /    A nd           | Website:  www.openfoam.com                      |
|    \\/     M anipulation  |                                                 |
\*---------------------------------------------------------------------------*/
FoamFile
{
    version     2.0;
    format      ascii;
    arch        "LSB;label=32;scalar=64";
    class       volScalarField;
    location    "30";
    object      gradTx;
}
// * * * * * * * * * * * * * * * * * * * * * * * * * * * * * * * * * * * * * //

dimensions      [0 -1 0 1 0 0 0];

internalField   nonuniform List<scalar> 
20000
(
-6.17646
-5.82878
-5.49534
-5.17603
-4.87081
-4.57928
-4.30098
-4.0357
-3.78351
-3.54375
-3.31579
-3.09966
-2.89509
-2.70149
-2.51838
-2.34545
-2.18239
-2.02884
-1.88435
-1.74852
-1.62096
-1.50129
-1.38917
-1.28424
-1.18615
-1.09456
-1.00911
-0.92948
-0.855347
-0.786404
-0.722354
-0.662913
-0.607807
-0.556773
-0.509561
-0.46593
-0.425648
-0.388498
-0.354271
-0.32277
-0.293805
-0.267201
-0.242789
-0.220411
-0.199918
-0.18117
-0.164035
-0.14839
-0.13412
-0.121116
-0.109278
-0.0985107
-0.0887279
-0.0798477
-0.0717946
-0.0644985
-0.0578945
-0.0519225
-0.0465272
-0.0416575
-0.0372662
-0.03331
-0.0297491
-0.0265469
-0.0236699
-0.0210875
-0.0187715
-0.0166964
-0.0148388
-0.0131774
-0.0116928
-0.0103674
-0.00918519
-0.00813161
-0.00719354
-0.00635909
-0.0056175
-0.00495907
-0.00437504
-0.00385754
-0.00339948
-0.0029945
-0.00263689
-0.00232154
-0.00204389
-0.00179987
-0.00158584
-0.0013986
-0.00123528
-0.00109338
-0.000970696
-0.000865291
-0.000775497
-0.000699878
-0.000637215
-0.000586491
-0.000546878
-0.000517725
-0.000498552
-0.000489041
-18.5278
-17.4849
-16.4848
-15.527
-14.6111
-13.7364
-12.9019
-12.1064
-11.3496
-10.6301
-9.94655
-9.29838
-8.6846
-8.10372
-7.55444
-7.03576
-6.54668
-6.08604
-5.6526
-5.24513
-4.86245
-4.50349
-4.16716
-3.85241
-3.55817
-3.28341
-3.02709
-2.78821
-2.56583
-2.35902
-2.16688
-1.98857
-1.82327
-1.67018
-1.52856
-1.39767
-1.27684
-1.1654
-1.06273
-0.968229
-0.881343
-0.801537
-0.728306
-0.661178
-0.599704
-0.543464
-0.492064
-0.445134
-0.402326
-0.363318
-0.327806
-0.295508
-0.266162
-0.239524
-0.215366
-0.19348
-0.173669
-0.155755
-0.13957
-0.124962
-0.111789
-0.0999217
-0.0892399
-0.079634
-0.0710038
-0.0632572
-0.0563099
-0.0500852
-0.0445129
-0.0395291
-0.0350757
-0.0310997
-0.0275533
-0.0243928
-0.0215789
-0.0190757
-0.0168511
-0.014876
-0.0131241
-0.0115717
-0.0101976
-0.00898277
-0.00791003
-0.00696406
-0.00613118
-0.00539917
-0.00475714
-0.00419545
-0.00370554
-0.00327988
-0.00291185
-0.00259566
-0.0023263
-0.00209946
-0.00191149
-0.00175933
-0.0016405
-0.00155305
-0.00149554
-0.00146701
-30.8745
-29.1365
-27.4702
-25.8742
-24.348
-22.8902
-21.4996
-20.1742
-18.9128
-17.7138
-16.5749
-15.4949
-14.472
-13.5039
-12.5886
-11.7243
-10.9094
-10.1418
-9.41947
-8.74042
-8.10273
-7.50456
-6.94412
-6.41963
-5.92932
-5.47145
-5.04432
-4.64626
-4.27568
-3.93105
-3.61087
-3.31374
-3.03828
-2.78318
-2.54718
-2.32907
-2.12772
-1.94201
-1.77092
-1.61345
-1.46866
-1.33567
-1.21364
-1.10178
-0.999342
-0.905625
-0.819972
-0.741768
-0.670434
-0.60543
-0.546253
-0.492432
-0.44353
-0.39914
-0.358885
-0.322413
-0.289401
-0.259549
-0.232579
-0.208236
-0.186285
-0.166509
-0.148709
-0.132702
-0.11832
-0.105411
-0.0938344
-0.0834616
-0.0741759
-0.065871
-0.0584498
-0.0518244
-0.0459146
-0.040648
-0.0359589
-0.0317876
-0.0280806
-0.0247892
-0.0218698
-0.019283
-0.0169932
-0.0149688
-0.0131812
-0.0116049
-0.010217
-0.00899713
-0.00792727
-0.00699127
-0.00617489
-0.00546558
-0.00485229
-0.00432539
-0.00387653
-0.00349853
-0.00318529
-0.00293174
-0.00273372
-0.00258799
-0.00249215
-0.00244462
-43.2135
-40.7808
-38.4486
-36.215
-34.0789
-32.0384
-30.0919
-28.2368
-26.4714
-24.7931
-23.1992
-21.6876
-20.2558
-18.9007
-17.6196
-16.41
-15.2694
-14.195
-13.184
-12.2335
-11.341
-10.5038
-9.71936
-8.98527
-8.29901
-7.65816
-7.06031
-6.50316
-5.98448
-5.50211
-5.05398
-4.63809
-4.25254
-3.89549
-3.56517
-3.2599
-2.97807
-2.71815
-2.47868
-2.25827
-2.05562
-1.86948
-1.69868
-1.54211
-1.39873
-1.26756
-1.14768
-1.03822
-0.938375
-0.847393
-0.764565
-0.689235
-0.620789
-0.558658
-0.502314
-0.451267
-0.405061
-0.363278
-0.32553
-0.291459
-0.260735
-0.233055
-0.208141
-0.185736
-0.165607
-0.147539
-0.131336
-0.116817
-0.103821
-0.0921966
-0.0818096
-0.0725362
-0.0642646
-0.0568932
-0.05033
-0.0444917
-0.0393031
-0.0346964
-0.0306102
-0.0269895
-0.0237847
-0.0209512
-0.0184491
-0.0162428
-0.0143002
-0.0125929
-0.0110954
-0.00978536
-0.00864272
-0.00764992
-0.00679153
-0.00605406
-0.00542581
-0.00489674
-0.00445831
-0.00410342
-0.00382626
-0.0036223
-0.00348816
-0.00342163
-55.5422
-52.4152
-49.4175
-46.5467
-43.8013
-41.1787
-38.6768
-36.2926
-34.0234
-31.8664
-29.8178
-27.8749
-26.0345
-24.2928
-22.6463
-21.0917
-19.6257
-18.2448
-16.9453
-15.7236
-14.5765
-13.5004
-12.4922
-11.5487
-10.6667
-9.84297
-9.07456
-8.35846
-7.6918
-7.07181
-6.49583
-5.9613
-5.46575
-5.00683
-4.58228
-4.18992
-3.82768
-3.49361
-3.18582
-2.90254
-2.64207
-2.40283
-2.1833
-1.98206
-1.79778
-1.62919
-1.4751
-1.33441
-1.20609
-1.08915
-0.982689
-0.885867
-0.797895
-0.718039
-0.64562
-0.580009
-0.520622
-0.466918
-0.418401
-0.374609
-0.33512
-0.299543
-0.267521
-0.238725
-0.212854
-0.189631
-0.168805
-0.150144
-0.13344
-0.1185
-0.105149
-0.0932302
-0.0825988
-0.0731244
-0.0646887
-0.0571848
-0.050516
-0.044595
-0.039343
-0.0346894
-0.0305702
-0.0269284
-0.0237125
-0.0208767
-0.01838
-0.0161855
-0.0142609
-0.012577
-0.0111084
-0.00983238
-0.0087291
-0.00778123
-0.00697375
-0.00629374
-0.00573024
-0.0052741
-0.00491787
-0.00465572
-0.00448331
-0.0043978
-67.8572
-64.0369
-60.3743
-56.867
-53.5128
-50.3089
-47.2522
-44.3393
-41.5671
-38.9318
-36.429
-34.0553
-31.8069
-29.679
-27.6674
-25.7682
-23.9771
-22.29
-20.7024
-19.2099
-17.8083
-16.4937
-15.262
-14.1093
-13.0317
-12.0254
-11.0866
-10.2117
-9.39722
-8.63976
-7.93608
-7.28303
-6.67761
-6.11694
-5.59826
-5.1189
-4.67635
-4.26821
-3.89218
-3.54609
-3.22787
-2.93558
-2.66738
-2.42153
-2.19638
-1.99041
-1.80216
-1.63028
-1.4735
-1.33063
-1.20057
-1.08228
-0.974803
-0.877242
-0.788767
-0.708609
-0.636054
-0.570443
-0.511168
-0.457667
-0.409423
-0.365958
-0.326836
-0.291655
-0.260048
-0.231676
-0.206232
-0.183434
-0.163026
-0.144773
-0.128463
-0.113901
-0.100913
-0.0893375
-0.0790315
-0.0698638
-0.0617164
-0.0544825
-0.0480662
-0.0423807
-0.0373482
-0.0328989
-0.0289701
-0.0255055
-0.0224552
-0.0197742
-0.0174228
-0.0153656
-0.0135714
-0.0120124
-0.0106645
-0.00950649
-0.00851998
-0.00768919
-0.00700075
-0.00644348
-0.00600827
-0.00568799
-0.00547736
-0.0053729
-80.1554
-75.6427
-71.3162
-67.1733
-63.2112
-59.4266
-55.816
-52.3752
-49.1005
-45.9876
-43.0312
-40.2273
-37.5713
-35.0578
-32.6818
-30.4383
-28.3227
-26.3297
-24.4543
-22.6913
-21.0358
-19.4829
-18.028
-16.6664
-15.3935
-14.2048
-13.0959
-12.0624
-11.1003
-10.2056
-9.37437
-8.60296
-7.88783
-7.22555
-6.61285
-6.04662
-5.52387
-5.04176
-4.59758
-4.18876
-3.81287
-3.46761
-3.1508
-2.86039
-2.59444
-2.35114
-2.12877
-1.92574
-1.74055
-1.57179
-1.41816
-1.27843
-1.15147
-1.03623
-0.931719
-0.837033
-0.751329
-0.673828
-0.60381
-0.540613
-0.483624
-0.432282
-0.38607
-0.344514
-0.307177
-0.273664
-0.243608
-0.216679
-0.192572
-0.171011
-0.151745
-0.134544
-0.119201
-0.105529
-0.0933547
-0.0825256
-0.0729016
-0.0643567
-0.0567775
-0.0500616
-0.0441171
-0.0388614
-0.0342205
-0.0301281
-0.0265248
-0.023358
-0.0205804
-0.0181504
-0.016031
-0.0141895
-0.0125973
-0.0112294
-0.0100641
-0.00908276
-0.00826954
-0.00761127
-0.00709719
-0.00671887
-0.00647007
-0.00634667
-92.4338
-87.2298
-82.2405
-77.463
-72.894
-68.5296
-64.3659
-60.3981
-56.6218
-53.032
-49.6228
-46.3894
-43.3266
-40.428
-37.688
-35.1009
-32.6612
-30.363
-28.2003
-26.1672
-24.258
-22.4673
-20.7895
-19.2194
-17.7515
-16.3807
-15.1019
-13.9102
-12.8007
-11.7689
-10.8103
-9.92078
-9.09609
-8.33236
-7.62582
-6.97285
-6.37003
-5.81406
-5.30184
-4.8304
-4.39694
-3.99879
-3.63345
-3.29855
-2.99186
-2.71129
-2.45486
-2.22073
-2.00717
-1.81256
-1.63539
-1.47426
-1.32786
-1.19496
-1.07444
-0.965251
-0.866419
-0.777046
-0.696303
-0.623425
-0.557707
-0.4985
-0.445209
-0.397287
-0.354231
-0.315584
-0.280925
-0.24987
-0.222071
-0.197207
-0.174989
-0.155154
-0.137461
-0.121694
-0.107655
-0.095167
-0.0840688
-0.074215
-0.0654748
-0.0577301
-0.050875
-0.0448143
-0.0394625
-0.0347431
-0.030588
-0.026936
-0.023733
-0.0209308
-0.0184867
-0.0163631
-0.014527
-0.0129496
-0.0116058
-0.0104741
-0.0095363
-0.00877719
-0.00818437
-0.00774809
-0.00746118
-0.00731888
-104.689
-98.7954
-93.1446
-87.7336
-82.5588
-77.6158
-72.9
-68.4061
-64.1291
-60.0633
-56.2021
-52.5401
-49.0711
-45.7883
-42.6849
-39.7549
-36.9917
-34.3887
-31.9392
-29.6366
-27.4743
-25.4462
-23.546
-21.7676
-20.1051
-18.5526
-17.1042
-15.7545
-14.4979
-13.3293
-12.2437
-11.2361
-10.3021
-9.43712
-8.6369
-7.89736
-7.21461
-6.58493
-6.0048
-5.47085
-4.97991
-4.52898
-4.1152
-3.7359
-3.38855
-3.07077
-2.78034
-2.51517
-2.27329
-2.05288
-1.85222
-1.66973
-1.50391
-1.3534
-1.2169
-1.09323
-0.981294
-0.880072
-0.788623
-0.706083
-0.631651
-0.564595
-0.504238
-0.449962
-0.401198
-0.357426
-0.318172
-0.283
-0.251514
-0.223354
-0.198191
-0.175725
-0.155687
-0.137829
-0.121929
-0.107785
-0.0952152
-0.084055
-0.0741559
-0.0653844
-0.0576204
-0.0507561
-0.0446947
-0.0393497
-0.0346436
-0.0305074
-0.0268797
-0.023706
-0.0209378
-0.0185327
-0.0164531
-0.0146665
-0.0131446
-0.0118628
-0.0108007
-0.00994096
-0.00926953
-0.00877541
-0.00845046
-0.0082893
-116.919
-110.337
-104.026
-97.9826
-92.2032
-86.6828
-81.4161
-76.3973
-71.6206
-67.0798
-62.7676
-58.6778
-54.8035
-51.1372
-47.6714
-44.399
-41.313
-38.406
-35.6703
-33.0987
-30.6838
-28.4188
-26.2966
-24.3105
-22.4538
-20.7199
-19.1023
-17.5949
-16.1915
-14.8864
-13.6739
-12.5487
-11.5056
-10.5396
-9.64585
-8.81992
-8.05741
-7.35418
-6.70627
-6.10995
-5.56166
-5.05805
-4.59593
-4.17232
-3.78439
-3.4295
-3.10514
-2.80899
-2.53886
-2.29269
-2.0686
-1.86478
-1.6796
-1.5115
-1.35906
-1.22094
-1.09593
-0.982881
-0.88075
-0.788567
-0.70544
-0.63055
-0.563143
-0.502526
-0.448066
-0.399181
-0.35534
-0.31606
-0.280896
-0.249446
-0.221343
-0.196253
-0.173874
-0.15393
-0.136172
-0.120376
-0.106338
-0.0938743
-0.0828188
-0.0730226
-0.0643516
-0.0566854
-0.0499159
-0.0439465
-0.0386906
-0.0340713
-0.0300198
-0.0264753
-0.0233838
-0.0206976
-0.0183752
-0.0163799
-0.0146801
-0.0132487
-0.0120625
-0.0111023
-0.0103524
-0.00980057
-0.00943766
-0.00925767
-129.12
-121.851
-114.881
-108.207
-101.825
-95.7284
-89.9121
-84.3696
-79.0944
-74.0798
-69.3176
-64.801
-60.5225
-56.4735
-52.646
-49.0322
-45.6241
-42.4137
-39.3926
-36.5526
-33.8858
-31.3843
-29.0407
-26.8474
-24.7969
-22.8821
-21.0957
-19.431
-17.8811
-16.4398
-15.1008
-13.8582
-12.7062
-11.6394
-10.6524
-9.7403
-8.89822
-8.1216
-7.40609
-6.74754
-6.14204
-5.58587
-5.07553
-4.60771
-4.1793
-3.78737
-3.42917
-3.10212
-2.80379
-2.53194
-2.28446
-2.05938
-1.85487
-1.66923
-1.50088
-1.34835
-1.21029
-1.08545
-0.972659
-0.870856
-0.779055
-0.69635
-0.621909
-0.554966
-0.494823
-0.440837
-0.392421
-0.349042
-0.310209
-0.275477
-0.244441
-0.216733
-0.192018
-0.169993
-0.150382
-0.132938
-0.117435
-0.10367
-0.0914612
-0.0806428
-0.071067
-0.0626008
-0.0551249
-0.0485325
-0.0427282
-0.0376268
-0.0331525
-0.0292381
-0.025824
-0.0228575
-0.0202927
-0.0180892
-0.0162121
-0.0146312
-0.0133212
-0.0122609
-0.0114327
-0.0108233
-0.0104225
-0.0102238
-141.289
-133.334
-125.708
-118.405
-111.421
-104.75
-98.386
-92.321
-86.5487
-81.0615
-75.8504
-70.9082
-66.2264
-61.7959
-57.6077
-53.6533
-49.924
-46.411
-43.1052
-39.9975
-37.0794
-34.3422
-31.7777
-29.3777
-27.134
-25.0386
-23.0839
-21.2623
-19.5664
-17.9892
-16.524
-15.1643
-13.9037
-12.7363
-11.6564
-10.6583
-9.73684
-8.88703
-8.10408
-7.38346
-6.7209
-6.11231
-5.55388
-5.04197
-4.57319
-4.14432
-3.75236
-3.39448
-3.06804
-2.77057
-2.49976
-2.25347
-2.02968
-1.82655
-1.64233
-1.47543
-1.32436
-1.18775
-1.06433
-0.95293
-0.852478
-0.761978
-0.680521
-0.60727
-0.541458
-0.482384
-0.429406
-0.381937
-0.339444
-0.301439
-0.267479
-0.237159
-0.210115
-0.186014
-0.164555
-0.145467
-0.128503
-0.113441
-0.100081
-0.0882431
-0.0777648
-0.0685007
-0.0603202
-0.0531065
-0.0467552
-0.041173
-0.036277
-0.0319937
-0.0282578
-0.0250118
-0.0222053
-0.0197941
-0.01774
-0.0160102
-0.0145767
-0.0134164
-0.0125103
-0.0118434
-0.0114048
-0.0111873
-153.423
-144.785
-136.504
-128.574
-120.991
-113.746
-106.836
-100.25
-93.9817
-88.0232
-82.3646
-76.9979
-71.9141
-67.103
-62.5551
-58.2611
-54.2116
-50.3969
-46.8071
-43.4326
-40.2638
-37.2916
-34.5068
-31.9007
-29.4643
-27.189
-25.0664
-23.0883
-21.2468
-19.5342
-17.9431
-16.4666
-15.0978
-13.8302
-12.6574
-11.5736
-10.5731
-9.65026
-8.80007
-8.01757
-7.2981
-6.63725
-6.03085
-5.47498
-4.96594
-4.50024
-4.07461
-3.686
-3.33153
-3.00851
-2.71445
-2.447
-2.204
-1.98341
-1.78337
-1.60214
-1.43809
-1.28975
-1.15573
-1.03477
-0.92569
-0.827418
-0.738965
-0.659423
-0.587959
-0.523812
-0.466284
-0.414739
-0.368597
-0.327328
-0.29045
-0.257527
-0.22816
-0.201989
-0.178688
-0.15796
-0.139539
-0.123184
-0.108676
-0.0958216
-0.0844434
-0.0743837
-0.0655006
-0.0576674
-0.0507706
-0.044709
-0.0393926
-0.0347414
-0.0306847
-0.0271599
-0.0241123
-0.0214941
-0.0192636
-0.0173852
-0.0158287
-0.0145687
-0.0135847
-0.0128606
-0.0123844
-0.0121482
-165.519
-156.201
-147.266
-138.711
-130.53
-122.715
-115.259
-108.154
-101.391
-94.9631
-88.8585
-83.0687
-77.584
-72.3936
-67.4871
-62.8546
-58.4858
-54.3703
-50.4975
-46.8569
-43.4383
-40.2317
-37.2275
-34.4158
-31.7873
-29.3327
-27.0427
-24.9086
-22.9219
-21.0743
-19.3578
-17.7649
-16.2882
-14.9206
-13.6554
-12.4861
-11.4067
-10.4111
-9.49389
-8.64969
-7.8735
-7.16054
-6.50634
-5.90664
-5.35747
-4.85505
-4.39587
-3.97661
-3.59419
-3.24571
-2.92846
-2.63993
-2.37776
-2.13979
-1.92398
-1.72846
-1.55148
-1.39144
-1.24686
-1.11635
-0.998674
-0.892654
-0.797227
-0.711414
-0.634316
-0.56511
-0.503047
-0.447438
-0.397658
-0.353135
-0.31335
-0.277831
-0.246149
-0.217915
-0.192776
-0.170414
-0.150541
-0.132896
-0.117245
-0.103377
-0.0911012
-0.0802484
-0.070665
-0.0622141
-0.0547736
-0.0482341
-0.0424985
-0.0374806
-0.033104
-0.0293013
-0.0260135
-0.0231888
-0.0207824
-0.0187559
-0.0170767
-0.0157174
-0.0146558
-0.0138746
-0.0133608
-0.013106
-177.575
-167.577
-157.992
-148.814
-140.037
-131.652
-123.653
-116.031
-108.776
-101.88
-95.3304
-89.1189
-83.2347
-77.6663
-72.4025
-67.4325
-62.7455
-58.3303
-54.1754
-50.2697
-46.6021
-43.162
-39.9389
-36.9225
-34.1026
-31.4691
-29.0123
-26.7228
-24.5914
-22.6092
-20.7677
-19.0588
-17.4745
-16.0073
-14.6499
-13.3955
-12.2375
-11.1694
-10.1854
-9.27969
-8.44696
-7.68207
-6.98022
-6.33685
-5.74767
-5.20866
-4.71604
-4.26625
-3.85597
-3.48211
-3.14175
-2.8322
-2.55095
-2.29564
-2.06411
-1.85435
-1.66448
-1.49278
-1.33767
-1.19766
-1.07141
-0.95767
-0.855293
-0.763229
-0.680515
-0.60627
-0.539686
-0.480027
-0.426621
-0.378855
-0.336173
-0.298067
-0.264077
-0.233787
-0.206817
-0.182826
-0.161505
-0.142575
-0.125784
-0.110906
-0.0977366
-0.0860932
-0.0758118
-0.0667455
-0.058763
-0.0517472
-0.0455939
-0.0402105
-0.0355151
-0.0314355
-0.0279082
-0.0248777
-0.0222961
-0.0201221
-0.0183205
-0.0168622
-0.0157233
-0.0148851
-0.014334
-0.0140606
-189.586
-178.913
-168.679
-158.881
-149.509
-140.558
-132.018
-123.88
-116.134
-108.771
-101.779
-95.1472
-88.8649
-82.9198
-77.3
-71.9938
-66.9898
-62.2759
-57.84
-53.67
-49.7544
-46.0816
-42.6405
-39.42
-36.4094
-33.5978
-30.9748
-28.5304
-26.2548
-24.1385
-22.1725
-20.348
-18.6565
-17.0901
-15.6409
-14.3016
-13.0652
-11.9249
-10.8743
-9.90739
-9.01833
-8.20171
-7.45238
-6.76549
-6.13646
-5.56099
-5.03504
-4.55483
-4.1168
-3.71765
-3.35427
-3.02378
-2.7235
-2.45092
-2.20373
-1.97978
-1.77707
-1.59376
-1.42815
-1.27868
-1.14389
-1.02245
-0.913147
-0.814856
-0.726547
-0.64728
-0.576192
-0.512497
-0.455479
-0.404482
-0.358913
-0.318229
-0.28194
-0.249601
-0.220807
-0.195193
-0.17243
-0.152219
-0.134293
-0.118408
-0.104348
-0.0919169
-0.08094
-0.0712604
-0.062738
-0.0552476
-0.048678
-0.0429305
-0.0379175
-0.0335619
-0.029796
-0.0265606
-0.0238043
-0.0214832
-0.0195598
-0.0180028
-0.0167869
-0.0158921
-0.0153036
-0.0150118
-201.551
-190.204
-179.325
-168.908
-158.945
-149.428
-140.349
-131.698
-123.463
-115.636
-108.202
-101.152
-94.4732
-88.1529
-82.1784
-76.5374
-71.2176
-66.2062
-61.4903
-57.0572
-52.8944
-48.9898
-45.3315
-41.9079
-38.7072
-35.7181
-32.9297
-30.331
-27.9118
-25.6619
-23.5718
-21.6321
-19.8339
-18.1686
-16.628
-15.2042
-13.8898
-12.6775
-11.5606
-10.5326
-9.58748
-8.71932
-7.9227
-7.19246
-6.52373
-5.91194
-5.3528
-4.84228
-4.37661
-3.95227
-3.56596
-3.21461
-2.89538
-2.6056
-2.34281
-2.10472
-1.88922
-1.69434
-1.51828
-1.35937
-1.21608
-1.08698
-0.970776
-0.866282
-0.7724
-0.68813
-0.612556
-0.544842
-0.484224
-0.430009
-0.381564
-0.338313
-0.299734
-0.265353
-0.234742
-0.207512
-0.183312
-0.161826
-0.142768
-0.125881
-0.110933
-0.0977179
-0.0860483
-0.0757578
-0.0666975
-0.0587344
-0.0517502
-0.0456399
-0.0403106
-0.0356801
-0.0316765
-0.0282369
-0.0253067
-0.0228391
-0.0207942
-0.019139
-0.0178464
-0.0168951
-0.0162695
-0.0159592
-213.466
-201.448
-189.926
-178.893
-168.341
-158.262
-148.646
-139.483
-130.762
-122.472
-114.599
-107.132
-100.058
-93.3643
-87.0365
-81.0621
-75.4278
-70.1201
-65.1254
-60.4302
-56.0213
-51.8859
-48.0114
-44.3853
-40.9954
-37.8297
-34.8764
-32.1241
-29.5618
-27.179
-24.9653
-22.9109
-21.0064
-19.2427
-17.611
-16.1031
-14.7109
-13.427
-12.244
-11.1553
-10.1543
-9.23478
-8.39107
-7.61766
-6.9094
-6.26144
-5.66925
-5.12854
-4.63534
-4.18591
-3.77677
-3.40465
-3.06655
-2.75964
-2.48131
-2.22915
-2.00091
-1.79451
-1.60804
-1.43974
-1.28797
-1.15124
-1.02817
-0.917494
-0.818062
-0.72881
-0.648768
-0.577051
-0.512851
-0.455431
-0.404121
-0.358313
-0.317453
-0.28104
-0.248619
-0.21978
-0.194149
-0.171393
-0.151208
-0.133323
-0.117492
-0.103495
-0.0911353
-0.0802365
-0.0706405
-0.0622066
-0.0548096
-0.0483381
-0.0426937
-0.0377895
-0.0335492
-0.0299062
-0.0268028
-0.0241893
-0.0220236
-0.0202705
-0.0189014
-0.0178939
-0.0172313
-0.0169027
-225.329
-212.643
-200.48
-188.834
-177.696
-167.057
-156.907
-147.234
-138.029
-129.278
-120.967
-113.085
-105.618
-98.5526
-91.8732
-85.5667
-79.6193
-74.0167
-68.7445
-63.7883
-59.1345
-54.7693
-50.6795
-46.8519
-43.2736
-39.9319
-36.8145
-33.9092
-31.2046
-28.6893
-26.3526
-24.1841
-22.1738
-20.312
-18.5897
-16.9979
-15.5284
-14.1731
-12.9244
-11.7752
-10.7185
-9.74796
-8.85737
-8.04098
-7.29336
-6.60939
-5.98429
-5.41354
-4.89293
-4.41853
-3.98664
-3.59385
-3.23696
-2.91299
-2.6192
-2.35302
-2.1121
-1.89423
-1.6974
-1.51974
-1.35954
-1.21521
-1.0853
-0.96848
-0.863523
-0.769311
-0.684821
-0.609118
-0.54135
-0.480739
-0.426578
-0.378225
-0.335094
-0.296658
-0.262435
-0.231993
-0.204938
-0.180917
-0.159611
-0.140732
-0.124021
-0.109246
-0.0961998
-0.0846953
-0.0745661
-0.0656636
-0.0578555
-0.0510243
-0.0450662
-0.0398895
-0.0354136
-0.0315682
-0.0282923
-0.0255336
-0.0232475
-0.021397
-0.0199519
-0.0188883
-0.0181889
-0.0178421
-237.136
-223.785
-210.985
-198.729
-187.007
-175.81
-165.128
-154.949
-145.261
-136.051
-127.305
-119.011
-111.153
-103.717
-96.6872
-90.0503
-83.7912
-77.8951
-72.3466
-67.1307
-62.233
-57.6391
-53.335
-49.3068
-45.5411
-42.0243
-38.7435
-35.686
-32.8397
-30.1926
-27.7335
-25.4513
-23.3356
-21.3763
-19.5637
-17.8886
-16.342
-14.9157
-13.6017
-12.3922
-11.2802
-10.2587
-9.32148
-8.46231
-7.67551
-6.95571
-6.29786
-5.6972
-5.14931
-4.65005
-4.19554
-3.78216
-3.40657
-3.06563
-2.75644
-2.47632
-2.22277
-1.99348
-1.78634
-1.59938
-1.43078
-1.27889
-1.14217
-1.01923
-0.90877
-0.809622
-0.720705
-0.641035
-0.569716
-0.505929
-0.448931
-0.398043
-0.352653
-0.312202
-0.276187
-0.244149
-0.215677
-0.190397
-0.167975
-0.148106
-0.130519
-0.114971
-0.101241
-0.0891333
-0.0784734
-0.0691043
-0.0608871
-0.053698
-0.0474277
-0.0419797
-0.0372693
-0.0332224
-0.0297748
-0.0268716
-0.0244657
-0.0225182
-0.0209974
-0.0198781
-0.0191421
-0.018777
-248.884
-234.872
-221.438
-208.574
-196.272
-184.52
-173.309
-162.626
-152.458
-142.792
-133.613
-124.907
-116.659
-108.855
-101.477
-94.5116
-87.9425
-81.7542
-75.9308
-70.4566
-65.3162
-60.4947
-55.9773
-51.7496
-47.7973
-44.1063
-40.6629
-37.454
-34.4666
-31.6884
-29.1075
-26.7122
-24.4917
-22.4354
-20.533
-18.7748
-17.1517
-15.6547
-14.2755
-13.0062
-11.839
-10.767
-9.78329
-8.88155
-8.05578
-7.30032
-6.60987
-5.97945
-5.40443
-4.88043
-4.40339
-3.96954
-3.57534
-3.21751
-2.893
-2.599
-2.33289
-2.09225
-1.87484
-1.67861
-1.50166
-1.34225
-1.19876
-1.06972
-0.953793
-0.849733
-0.756411
-0.672794
-0.597942
-0.530995
-0.471172
-0.417764
-0.370125
-0.32767
-0.28987
-0.256245
-0.226362
-0.19983
-0.176297
-0.155444
-0.136986
-0.120667
-0.106256
-0.0935493
-0.0823612
-0.072528
-0.0639037
-0.0563584
-0.0497775
-0.0440596
-0.0391158
-0.0348684
-0.03125
-0.0282029
-0.0256779
-0.0236339
-0.0220377
-0.020863
-0.0200905
-0.0197073
-260.571
-245.901
-231.836
-218.368
-205.488
-193.185
-181.447
-170.262
-159.617
-149.497
-139.887
-130.772
-122.138
-113.966
-106.242
-98.9497
-92.0721
-85.5932
-79.4963
-73.765
-68.3833
-63.3354
-58.6059
-54.1797
-50.0417
-46.1774
-42.5724
-39.2127
-36.0851
-33.1764
-30.4743
-27.9666
-25.6418
-23.4889
-21.4971
-19.6564
-17.9571
-16.3898
-14.9459
-13.6169
-12.3949
-11.2726
-10.2427
-9.29861
-8.43406
-7.64312
-6.92025
-6.26023
-5.6582
-5.1096
-4.61017
-4.15594
-3.74323
-3.36859
-3.02885
-2.72104
-2.44244
-2.19049
-1.96288
-1.75744
-1.57218
-1.40527
-1.25505
-1.11995
-0.998581
-0.889634
-0.79193
-0.704387
-0.62602
-0.555929
-0.493297
-0.437381
-0.387505
-0.343057
-0.303482
-0.268278
-0.236992
-0.209214
-0.184575
-0.162743
-0.143418
-0.126333
-0.111246
-0.0979423
-0.0862288
-0.0759339
-0.0669045
-0.059005
-0.052115
-0.0461286
-0.0409526
-0.0365058
-0.0327175
-0.0295273
-0.0268837
-0.0247438
-0.0230726
-0.0218427
-0.0210339
-0.0206328
-272.193
-256.869
-242.177
-228.108
-214.654
-201.802
-189.541
-177.857
-166.736
-156.165
-146.126
-136.605
-127.585
-119.05
-110.981
-103.363
-96.1789
-89.411
-83.0422
-77.0553
-71.4335
-66.1604
-61.22
-56.5963
-52.2738
-48.2371
-44.4713
-40.9618
-37.6946
-34.6562
-31.8335
-29.214
-26.7855
-24.5366
-22.456
-20.5332
-18.758
-17.1209
-15.6125
-14.2243
-12.9478
-11.7754
-10.6996
-9.71337
-8.81025
-7.98404
-7.22892
-6.53947
-5.91058
-5.33751
-4.8158
-4.34131
-3.91019
-3.51885
-3.16395
-2.84242
-2.55138
-2.2882
-2.05043
-1.83583
-1.6423
-1.46796
-1.31103
-1.16991
-1.04312
-0.929316
-0.827254
-0.735806
-0.653943
-0.580726
-0.515301
-0.45689
-0.404789
-0.358359
-0.317018
-0.280244
-0.247563
-0.218546
-0.192808
-0.170002
-0.149816
-0.131968
-0.116208
-0.102311
-0.0900751
-0.079321
-0.0698889
-0.0616369
-0.0544396
-0.0481862
-0.0427794
-0.0381342
-0.034177
-0.0308444
-0.0280829
-0.0258475
-0.0241018
-0.0228171
-0.0219722
-0.0215532
-283.749
-267.774
-252.458
-237.792
-223.767
-210.369
-197.587
-185.407
-173.815
-162.795
-152.33
-142.404
-133.002
-124.104
-115.693
-107.751
-100.262
-93.2068
-86.5676
-80.3265
-74.4661
-68.9691
-63.819
-58.999
-54.493
-50.285
-46.3592
-42.7008
-39.2949
-36.1275
-33.185
-30.4542
-27.9227
-25.5782
-23.4093
-21.4049
-19.5544
-17.8477
-16.2753
-14.8281
-13.4975
-12.2753
-11.1538
-10.1257
-9.18428
-8.32299
-7.53581
-6.81709
-6.16151
-5.5641
-5.02025
-4.52562
-4.07619
-3.66823
-3.29827
-2.96309
-2.65969
-2.38534
-2.13748
-1.91376
-1.71203
-1.53028
-1.36669
-1.21958
-1.08741
-0.968769
-0.862374
-0.767044
-0.681705
-0.60538
-0.537177
-0.476287
-0.421974
-0.373572
-0.330477
-0.292142
-0.258073
-0.227824
-0.200994
-0.177219
-0.156176
-0.137571
-0.121142
-0.106655
-0.0938992
-0.0826885
-0.072856
-0.0642537
-0.0567509
-0.050232
-0.0445956
-0.0397532
-0.0356279
-0.032154
-0.0292752
-0.0269449
-0.025125
-0.0237858
-0.0229051
-0.0224683
-295.234
-278.613
-262.677
-247.418
-232.824
-218.884
-205.585
-192.912
-180.851
-169.384
-158.496
-148.169
-138.385
-129.127
-120.376
-112.113
-104.32
-96.9796
-90.0716
-83.5779
-77.4803
-71.7609
-66.4022
-61.3872
-56.6988
-52.3204
-48.2357
-44.4292
-40.8854
-37.5898
-34.5282
-31.6869
-29.0529
-26.6136
-24.3569
-22.2713
-20.3459
-18.5701
-16.9341
-15.4283
-14.0438
-12.7722
-11.6053
-10.5356
-9.55603
-8.65988
-7.84085
-7.09303
-6.41091
-5.78932
-5.22345
-4.7088
-4.24119
-3.81672
-3.43178
-3.08302
-2.76735
-2.48189
-2.224
-1.99123
-1.78132
-1.59222
-1.42201
-1.26894
-1.13142
-1.00798
-0.897281
-0.798092
-0.709299
-0.629885
-0.558921
-0.495566
-0.439055
-0.388694
-0.343854
-0.303967
-0.268519
-0.237046
-0.20913
-0.184393
-0.162498
-0.143139
-0.126046
-0.110972
-0.0977001
-0.0860356
-0.0758051
-0.0668547
-0.0590481
-0.0522653
-0.0464008
-0.0413624
-0.0370702
-0.0334555
-0.0304602
-0.0280356
-0.0261421
-0.0247487
-0.0238323
-0.0233778
-306.647
-289.383
-272.831
-256.982
-241.824
-227.346
-213.532
-200.369
-187.842
-175.932
-164.623
-153.896
-143.735
-134.119
-125.029
-116.447
-108.353
-100.728
-93.5535
-86.8087
-80.4754
-74.5349
-68.9691
-63.7602
-58.8905
-54.3429
-50.1004
-46.1466
-42.4659
-39.0429
-35.8629
-32.9118
-30.176
-27.6423
-25.2984
-23.1322
-21.1324
-19.288
-17.5887
-16.0247
-14.5867
-13.2659
-12.0539
-10.9429
-9.92543
-8.99464
-8.14394
-7.36722
-6.65873
-6.01312
-5.42537
-4.89083
-4.40513
-3.96425
-3.56444
-3.2022
-2.87433
-2.57783
-2.30997
-2.0682
-1.85018
-1.65377
-1.47698
-1.31799
-1.17516
-1.04695
-0.931966
-0.828943
-0.736718
-0.654234
-0.580527
-0.514723
-0.456027
-0.403719
-0.357146
-0.315718
-0.278899
-0.24621
-0.217214
-0.191521
-0.168779
-0.148673
-0.130918
-0.115262
-0.101477
-0.0893616
-0.0787355
-0.0694391
-0.0613308
-0.0542858
-0.0481945
-0.0429613
-0.0385032
-0.0347489
-0.0316378
-0.0291194
-0.0271527
-0.0257054
-0.0247536
-0.0242816
-317.984
-300.082
-282.918
-266.483
-250.765
-235.751
-221.427
-207.777
-194.786
-182.436
-170.709
-159.586
-149.049
-139.077
-129.652
-120.752
-112.359
-104.452
-97.0122
-90.0181
-83.4506
-77.2905
-71.5189
-66.1175
-61.0678
-56.352
-51.9526
-47.8527
-44.0359
-40.4864
-37.1888
-34.1286
-31.2916
-28.6643
-26.2337
-23.9874
-21.9137
-20.0011
-18.239
-16.6172
-15.126
-13.7563
-12.4995
-11.3474
-10.2924
-9.32718
-8.44503
-7.63959
-6.90491
-6.23543
-5.62595
-5.07164
-4.568
-4.11082
-3.69622
-3.32059
-2.98059
-2.67314
-2.39537
-2.14466
-1.91859
-1.71491
-1.53158
-1.36672
-1.21861
-1.08565
-0.966422
-0.85959
-0.763956
-0.678422
-0.60199
-0.533753
-0.472887
-0.418645
-0.370351
-0.32739
-0.289211
-0.255312
-0.225245
-0.198602
-0.175019
-0.154169
-0.135758
-0.119523
-0.105229
-0.0926654
-0.0816466
-0.0720064
-0.0635983
-0.0562929
-0.0499764
-0.0445497
-0.0399268
-0.0360337
-0.0328075
-0.0301961
-0.0281567
-0.0266558
-0.0256688
-0.0251793
-329.242
-310.706
-292.935
-275.918
-259.643
-244.098
-229.267
-215.134
-201.683
-188.896
-176.753
-165.236
-154.326
-144.002
-134.242
-125.027
-116.337
-108.151
-100.447
-93.2053
-86.4052
-80.027
-74.0511
-68.4584
-63.2299
-58.3472
-53.792
-49.547
-45.595
-41.9198
-38.5055
-35.337
-32.3995
-29.6792
-27.1625
-24.8367
-22.6895
-20.7092
-18.8847
-17.2055
-15.6615
-14.2434
-12.9421
-11.7492
-10.6568
-9.65741
-8.74403
-7.91008
-7.14938
-6.4562
-5.82514
-5.25121
-4.72973
-4.25636
-3.82709
-3.43816
-3.08612
-2.76778
-2.48018
-2.2206
-1.98652
-1.77563
-1.58581
-1.41511
-1.26175
-1.12409
-1.00064
-0.890025
-0.791005
-0.702442
-0.623304
-0.552651
-0.489631
-0.433468
-0.383463
-0.338982
-0.299451
-0.264352
-0.23322
-0.205634
-0.181216
-0.159628
-0.140565
-0.123755
-0.108955
-0.0959465
-0.0845374
-0.074556
-0.0658502
-0.058286
-0.051746
-0.0461272
-0.0413405
-0.0373095
-0.0339692
-0.0312653
-0.0291537
-0.0275997
-0.0265777
-0.0260709
-340.42
-321.254
-302.88
-285.285
-268.458
-252.384
-237.05
-222.437
-208.53
-195.308
-182.753
-170.846
-159.565
-148.89
-138.799
-129.272
-120.287
-111.822
-103.857
-96.3694
-89.3385
-82.7438
-76.5651
-70.7825
-65.3765
-60.328
-55.6182
-51.229
-47.1429
-43.3429
-39.8127
-36.5366
-33.4994
-30.6867
-28.0847
-25.6799
-23.4598
-21.4123
-19.5258
-17.7896
-16.1932
-14.7269
-13.3814
-12.1481
-11.0186
-9.98527
-9.04088
-8.17861
-7.39209
-6.67538
-6.0229
-5.42948
-4.8903
-4.40086
-3.95701
-3.55488
-3.19089
-2.86175
-2.56438
-2.29598
-2.05396
-1.83591
-1.63964
-1.46315
-1.30459
-1.16225
-1.03461
-0.92024
-0.817858
-0.726289
-0.644464
-0.571413
-0.506253
-0.448184
-0.396482
-0.35049
-0.309617
-0.273327
-0.241137
-0.212615
-0.187368
-0.165047
-0.145337
-0.127957
-0.112654
-0.0992038
-0.0874075
-0.0770871
-0.0680858
-0.0602649
-0.0535027
-0.0476932
-0.0427441
-0.0385762
-0.0351225
-0.0323268
-0.0301435
-0.0285367
-0.0274801
-0.0269561
-351.513
-331.723
-312.75
-294.581
-277.206
-260.609
-244.775
-229.686
-215.325
-201.673
-188.709
-176.413
-164.765
-153.742
-143.322
-133.484
-124.206
-115.466
-107.241
-99.5098
-92.2498
-85.4402
-79.0601
-73.0891
-67.5069
-62.2939
-57.4306
-52.8984
-48.6792
-44.7553
-41.1101
-37.7272
-34.5911
-31.6867
-28.9998
-26.5167
-24.2243
-22.11
-20.1621
-18.3693
-16.7209
-15.2068
-13.8175
-12.5439
-11.3776
-10.3107
-9.33549
-8.44513
-7.63298
-6.89291
-6.21917
-5.60641
-5.04966
-4.54427
-4.08596
-3.67072
-3.29488
-2.955
-2.64795
-2.3708
-2.12089
-1.89573
-1.69308
-1.51083
-1.3471
-1.20013
-1.06832
-0.950229
-0.84451
-0.749957
-0.665466
-0.590034
-0.52275
-0.462789
-0.409402
-0.361912
-0.319706
-0.282234
-0.248995
-0.219543
-0.193474
-0.170426
-0.150074
-0.132126
-0.116325
-0.102437
-0.0902559
-0.0795993
-0.0703046
-0.0622288
-0.0552463
-0.0492475
-0.0441371
-0.0398334
-0.0362671
-0.0333803
-0.0311258
-0.0294667
-0.0283757
-0.0278346
-362.52
-342.11
-322.542
-303.805
-285.886
-268.769
-252.439
-236.878
-222.067
-207.988
-194.618
-181.937
-169.924
-158.556
-147.81
-137.664
-128.095
-119.082
-110.599
-102.626
-95.1383
-88.1155
-81.5356
-75.3776
-69.6207
-64.2444
-59.2289
-54.5548
-50.2034
-46.1567
-42.3973
-38.9085
-35.6742
-32.6789
-29.9079
-27.347
-24.9828
-22.8023
-20.7935
-18.9445
-17.2445
-15.683
-14.2501
-12.9367