/*--------------------------------*- C++ -*----------------------------------*\
| =========                 |                                                 |
| \\      /  F ield         | OpenFOAM: The Open Source CFD Toolbox           |
|  \\    /   O peration     | Version:  2406                                  |
|   \\  /    A nd           | Website:  www.openfoam.com                      |
|    \\/     M anipulation  |                                                 |
\*---------------------------------------------------------------------------*/
FoamFile
{
    version     2.0;
    format      ascii;
    arch        "LSB;label=32;scalar=64";
    class       volScalarField;
    location    "120";
    object      T;
}
// * * * * * * * * * * * * * * * * * * * * * * * * * * * * * * * * * * * * * //

dimensions      [0 0 0 1 0 0 0];

internalField   nonuniform List<scalar> 
20000
(
300.236
300.258
300.277
300.294
300.31
300.325
300.337
300.349
300.359
300.367
300.375
300.381
300.386
300.391
300.394
300.396
300.397
300.398
300.398
300.397
300.395
300.393
300.391
300.388
300.384
300.38
300.375
300.37
300.365
300.36
300.354
300.348
300.342
300.335
300.329
300.322
300.315
300.308
300.301
300.294
300.287
300.28
300.273
300.266
300.259
300.251
300.244
300.237
300.231
300.224
300.217
300.21
300.203
300.197
300.19
300.184
300.178
300.172
300.166
300.16
300.154
300.148
300.143
300.137
300.132
300.127
300.122
300.117
300.112
300.107
300.102
300.098
300.093
300.089
300.085
300.08
300.076
300.072
300.069
300.065
300.061
300.057
300.054
300.05
300.047
300.044
300.04
300.037
300.034
300.031
300.028
300.025
300.022
300.019
300.016
300.013
300.01
300.007
300.004
300.001
300.709
300.772
300.83
300.883
300.931
300.974
301.012
301.046
301.076
301.102
301.125
301.143
301.159
301.171
301.181
301.188
301.192
301.194
301.193
301.191
301.186
301.18
301.172
301.162
301.151
301.139
301.126
301.111
301.095
301.079
301.062
301.044
301.025
301.006
300.986
300.966
300.945
300.925
300.904
300.882
300.861
300.84
300.818
300.797
300.776
300.754
300.733
300.712
300.691
300.671
300.65
300.63
300.61
300.591
300.571
300.552
300.534
300.515
300.497
300.479
300.462
300.445
300.428
300.412
300.396
300.38
300.365
300.35
300.335
300.321
300.307
300.293
300.28
300.267
300.254
300.241
300.229
300.217
300.206
300.194
300.183
300.172
300.162
300.151
300.141
300.131
300.121
300.112
300.102
300.093
300.083
300.074
300.065
300.056
300.048
300.039
300.03
300.022
300.013
300.004
301.181
301.287
301.384
301.472
301.551
301.623
301.687
301.743
301.793
301.837
301.874
301.905
301.931
301.952
301.968
301.979
301.986
301.989
301.989
301.984
301.977
301.966
301.953
301.937
301.919
301.898
301.876
301.851
301.825
301.798
301.769
301.739
301.708
301.676
301.643
301.61
301.575
301.541
301.506
301.471
301.435
301.399
301.364
301.328
301.293
301.257
301.222
301.187
301.152
301.118
301.084
301.05
301.017
300.984
300.952
300.92
300.889
300.858
300.828
300.799
300.77
300.741
300.713
300.686
300.659
300.633
300.608
300.583
300.558
300.534
300.511
300.488
300.466
300.444
300.423
300.402
300.382
300.362
300.343
300.324
300.305
300.287
300.27
300.252
300.235
300.219
300.202
300.186
300.17
300.155
300.139
300.124
300.109
300.094
300.079
300.065
300.05
300.036
300.021
300.007
301.654
301.802
301.937
302.06
302.171
302.271
302.361
302.44
302.51
302.571
302.623
302.667
302.703
302.732
302.755
302.77
302.78
302.785
302.784
302.778
302.767
302.752
302.734
302.711
302.686
302.657
302.625
302.591
302.555
302.517
302.476
302.434
302.391
302.346
302.3
302.253
302.205
302.157
302.108
302.058
302.009
301.959
301.909
301.859
301.809
301.76
301.71
301.661
301.613
301.565
301.517
301.47
301.423
301.378
301.333
301.288
301.244
301.201
301.159
301.118
301.077
301.037
300.998
300.96
300.923
300.886
300.85
300.815
300.781
300.748
300.715
300.683
300.652
300.622
300.592
300.563
300.535
300.507
300.48
300.453
300.428
300.402
300.377
300.353
300.329
300.306
300.283
300.26
300.238
300.216
300.195
300.173
300.152
300.132
300.111
300.091
300.07
300.05
300.03
300.01
302.125
302.316
302.49
302.648
302.791
302.919
303.034
303.136
303.226
303.304
303.371
303.428
303.474
303.512
303.54
303.561
303.574
303.579
303.578
303.57
303.557
303.538
303.514
303.485
303.452
303.415
303.375
303.331
303.284
303.234
303.183
303.128
303.073
303.015
302.956
302.895
302.834
302.772
302.709
302.645
302.582
302.518
302.453
302.389
302.325
302.262
302.198
302.135
302.073
302.011
301.95
301.889
301.83
301.771
301.713
301.656
301.599
301.544
301.49
301.437
301.384
301.333
301.283
301.234
301.186
301.139
301.093
301.048
301.004
300.961
300.919
300.878
300.838
300.799
300.761
300.724
300.687
300.652
300.617
300.583
300.55
300.517
300.485
300.454
300.423
300.393
300.364
300.335
300.306
300.278
300.25
300.223
300.196
300.169
300.143
300.117
300.09
300.065
300.039
300.013
302.597
302.829
303.041
303.235
303.409
303.566
303.707
303.832
303.941
304.037
304.119
304.188
304.245
304.29
304.325
304.35
304.366
304.372
304.371
304.362
304.345
304.322
304.293
304.258
304.217
304.172
304.123
304.069
304.012
303.952
303.888
303.822
303.754
303.683
303.611
303.537
303.462
303.386
303.31
303.232
303.154
303.076
302.997
302.919
302.841
302.763
302.686
302.609
302.532
302.457
302.382
302.308
302.235
302.163
302.092
302.023
301.954
301.887
301.82
301.755
301.691
301.629
301.568
301.508
301.449
301.392
301.335
301.28
301.227
301.174
301.123
301.073
301.024
300.976
300.93
300.884
300.84
300.796
300.754
300.712
300.671
300.632
300.593
300.554
300.517
300.48
300.444
300.409
300.374
300.34
300.306
300.272
300.239
300.207
300.174
300.142
300.111
300.079
300.047
300.016
303.067
303.342
303.593
303.821
304.027
304.213
304.379
304.526
304.656
304.768
304.865
304.947
305.014
305.068
305.109
305.139
305.157
305.165
305.163
305.152
305.133
305.105
305.071
305.029
304.982
304.928
304.87
304.807
304.739
304.668
304.593
304.515
304.434
304.351
304.266
304.179
304.09
304
303.909
303.818
303.726
303.633
303.541
303.448
303.356
303.264
303.172
303.081
302.991
302.902
302.814
302.726
302.64
302.555
302.472
302.389
302.308
302.228
302.15
302.073
301.998
301.924
301.852
301.781
301.712
301.644
301.577
301.513
301.449
301.387
301.327
301.268
301.21
301.153
301.098
301.044
300.992
300.94
300.89
300.841
300.793
300.746
300.7
300.655
300.611
300.567
300.525
300.483
300.442
300.401
300.361
300.322
300.283
300.244
300.206
300.168
300.131
300.093
300.056
300.019
303.537
303.854
304.143
304.406
304.644
304.858
305.05
305.219
305.369
305.499
305.61
305.704
305.782
305.844
305.892
305.926
305.947
305.956
305.954
305.941
305.919
305.887
305.847
305.8
305.745
305.683
305.616
305.543
305.465
305.383
305.296
305.206
305.113
305.017
304.919
304.819
304.717
304.613
304.508
304.403
304.296
304.19
304.083
303.976
303.87
303.764
303.658
303.553
303.45
303.347
303.245
303.144
303.045
302.947
302.85
302.755
302.662
302.57
302.479
302.391
302.304
302.219
302.135
302.054
301.974
301.896
301.819
301.744
301.671
301.6
301.53
301.462
301.395
301.33
301.266
301.204
301.144
301.085
301.027
300.97
300.915
300.86
300.807
300.755
300.704
300.654
300.605
300.557
300.509
300.463
300.417
300.371
300.326
300.282
300.238
300.194
300.151
300.107
300.064
300.021
304.006
304.365
304.692
304.99
305.26
305.502
305.719
305.911
306.081
306.228
306.354
306.461
306.549
306.619
306.673
306.712
306.736
306.746
306.743
306.729
306.703
306.668
306.623
306.568
306.506
306.437
306.36
306.278
306.19
306.096
305.999
305.897
305.791
305.683
305.571
305.458
305.342
305.225
305.106
304.986
304.866
304.745
304.624
304.504
304.383
304.263
304.143
304.025
303.907
303.79
303.675
303.561
303.448
303.337
303.228
303.12
303.015
302.91
302.808
302.708
302.61
302.513
302.419
302.326
302.235
302.147
302.06
301.975
301.893
301.812
301.733
301.655
301.58
301.506
301.434
301.364
301.295
301.228
301.163
301.099
301.036
300.974
300.914
300.855
300.798
300.741
300.685
300.631
300.577
300.524
300.472
300.42
300.369
300.319
300.269
300.22
300.171
300.122
300.073
300.024
304.474
304.875
305.241
305.573
305.874
306.145
306.387
306.602
306.791
306.955
307.096
307.215
307.314
307.393
307.453
307.496
307.522
307.534
307.531
307.515
307.487
307.447
307.396
307.336
307.266
307.189
307.103
307.011
306.913
306.809
306.699
306.586
306.468
306.346
306.222
306.095
305.966
305.835
305.702
305.569
305.434
305.3
305.165
305.03
304.895
304.761
304.627
304.495
304.363
304.233
304.104
303.977
303.851
303.727
303.605
303.485
303.367
303.25
303.136
303.024
302.914
302.807
302.701
302.598
302.497
302.398
302.301
302.206
302.114
302.023
301.935
301.849
301.765
301.682
301.602
301.523
301.447
301.372
301.299
301.227
301.157
301.088
301.021
300.955
300.891
300.828
300.765
300.704
300.644
300.585
300.527
300.469
300.413
300.356
300.301
300.245
300.19
300.136
300.081
300.027
304.941
305.383
305.787
306.155
306.487
306.786
307.054
307.291
307.5
307.681
307.837
307.968
308.077
308.164
308.23
308.278
308.307
308.32
308.317
308.299
308.268
308.224
308.168
308.101
308.025
307.939
307.845
307.743
307.634
307.519
307.398
307.273
307.143
307.009
306.871
306.731
306.588
306.444
306.297
306.15
306.002
305.853
305.704
305.554
305.406
305.258
305.11
304.964
304.819
304.675
304.533
304.392
304.253
304.116
303.981
303.849
303.718
303.59
303.464
303.34
303.218
303.1
302.983
302.869
302.757
302.648
302.541
302.436
302.334
302.235
302.137
302.042
301.949
301.858
301.769
301.682
301.598
301.515
301.434
301.355
301.278
301.202
301.128
301.055
300.984
300.914
300.845
300.778
300.712
300.646
300.582
300.518
300.456
300.393
300.332
300.271
300.21
300.15
300.09
300.03
305.407
305.891
306.333
306.735
307.099
307.426
307.719
307.978
308.206
308.405
308.576
308.719
308.838
308.933
309.006
309.058
309.09
309.104
309.101
309.081
309.047
308.999
308.938
308.865
308.781
308.687
308.584
308.473
308.354
308.228
308.096
307.958
307.816
307.669
307.519
307.366
307.209
307.051
306.891
306.73
306.567
306.404
306.241
306.078
305.915
305.753
305.592
305.432
305.273
305.115
304.96
304.806
304.654
304.504
304.357
304.211
304.068
303.928
303.79
303.655
303.522
303.392
303.264
303.139
303.017
302.897
302.78
302.666
302.554
302.445
302.338
302.234
302.132
302.033
301.936
301.841
301.748
301.658
301.569
301.483
301.398
301.315
301.234
301.154
301.076
301
300.925
300.851
300.779
300.707
300.637
300.567
300.499
300.431
300.363
300.296
300.23
300.164
300.098
300.033
305.871
306.397
306.877
307.313
307.708
308.064
308.381
308.663
308.911
309.127
309.312
309.468
309.597
309.701
309.78
309.836
309.871
309.886
309.882
309.861
309.824
309.772
309.705
309.626
309.535
309.433
309.321
309.2
309.071
308.934
308.791
308.642
308.487
308.328
308.165
307.998
307.829
307.657
307.483
307.307
307.131
306.954
306.777
306.6
306.423
306.247
306.072
305.898
305.726
305.555
305.386
305.219
305.054
304.891
304.731
304.573
304.418
304.265
304.116
303.968
303.824
303.683
303.544
303.409
303.276
303.146
303.019
302.895
302.774
302.655
302.539
302.426
302.316
302.208
302.102
301.999
301.898
301.8
301.704
301.61
301.518
301.428
301.34
301.254
301.169
301.086
301.004
300.924
300.845
300.768
300.691
300.616
300.541
300.468
300.394
300.322
300.25
300.178
300.107
300.036
306.334
306.901
307.419
307.89
308.316
308.699
309.042
309.346
309.614
309.846
310.046
310.215
310.354
310.465
310.551
310.611
310.649
310.665
310.662
310.639
310.599
310.542
310.471
310.385
310.287
310.177
310.056
309.926
309.786
309.639
309.484
309.323
309.156
308.985
308.808
308.629
308.446
308.26
308.073
307.884
307.693
307.503
307.311
307.12
306.93
306.74
306.551
306.363
306.177
305.993
305.81
305.63
305.452
305.277
305.104
304.934
304.766
304.602
304.44
304.281
304.126
303.973
303.824
303.678
303.534
303.394
303.257
303.123
302.992
302.864
302.74
302.617
302.498
302.382
302.268
302.157
302.048
301.942
301.838
301.737
301.638
301.541
301.446
301.352
301.261
301.172
301.084
300.997
300.912
300.828
300.746
300.664
300.584
300.504
300.426
300.347
300.27
300.192
300.115
300.038
306.795
307.404
307.959
308.464
308.922
309.333
309.701
310.027
310.314
310.564
310.778
310.959
311.108
311.228
311.319
311.384
311.425
311.442
311.438
311.414
311.371
311.31
311.233
311.142
311.036
310.918
310.789
310.649
310.499
310.341
310.175
310.002
309.823
309.639
309.45
309.257
309.061
308.862
308.661
308.458
308.254
308.049
307.844
307.639
307.434
307.231
307.028
306.827
306.627
306.429
306.234
306.04
305.849
305.661
305.476
305.293
305.113
304.937
304.763
304.593
304.426
304.263
304.102
303.945
303.792
303.642
303.495
303.351
303.21
303.073
302.939
302.808
302.68
302.555
302.433
302.314
302.197
302.083
301.972
301.863
301.757
301.653
301.551
301.451
301.353
301.257
301.163
301.07
300.979
300.889
300.8
300.713
300.627
300.541
300.457
300.373
300.289
300.206
300.124
300.041
307.255
307.904
308.498
309.037
309.525
309.964
310.357
310.705
311.012
311.278
311.507
311.7
311.859
311.987
312.085
312.154
312.198
312.216
312.212
312.186
312.14
312.075
311.993
311.895
311.783
311.657
311.518
311.369
311.209
311.04
310.863
310.679
310.488
310.291
310.089
309.883
309.674
309.461
309.247
309.03
308.812
308.593
308.374
308.156
307.937
307.72
307.503
307.288
307.075
306.864
306.655
306.449
306.245
306.044
305.846
305.651
305.459
305.271
305.086
304.904
304.726
304.551
304.38
304.212
304.048
303.888
303.731
303.577
303.428
303.281
303.138
302.998
302.861
302.728
302.598
302.47
302.346
302.224
302.106
301.989
301.876
301.765
301.656
301.549
301.444
301.342
301.241
301.142
301.045
300.949
300.854
300.761
300.669
300.578
300.487
300.398
300.309
300.22
300.132
300.044
307.713
308.403
309.034
309.607
310.126
310.593
311.011
311.381
311.707
311.99
312.233
312.438
312.608
312.744
312.847
312.922
312.967
312.987
312.982
312.955
312.906
312.837
312.75
312.646
312.526
312.392
312.245
312.086
311.917
311.737
311.549
311.353
311.15
310.94
310.726
310.507
310.284
310.058
309.83
309.6
309.368
309.136
308.903
308.67
308.438
308.207
307.977
307.748
307.522
307.297
307.075
306.856
306.639
306.425
306.215
306.008
305.804
305.603
305.407
305.213
305.024
304.838
304.656
304.478
304.304
304.133
303.966
303.803
303.644
303.488
303.336
303.187
303.042
302.9
302.762
302.626
302.494
302.365
302.238
302.115
301.994
301.876
301.76
301.647
301.536
301.427
301.319
301.214
301.111
301.009
300.908
300.809
300.711
300.614
300.518
300.423
300.328
300.234
300.14
300.047
308.169
308.9
309.568
310.175
310.725
311.219
311.662
312.054
312.399
312.699
312.956
313.174
313.353
313.497
313.607
313.685
313.734
313.755
313.75
313.721
313.669
313.596
313.504
313.393
313.267
313.125
312.969
312.801
312.621
312.431
312.231
312.024
311.809
311.587
311.36
311.128
310.892
310.653
310.411
310.167
309.922
309.676
309.429
309.183
308.937
308.692
308.448
308.206
307.966
307.729
307.493
307.261
307.032
306.805
306.582
306.363
306.147
305.935
305.726
305.522
305.321
305.124
304.932
304.743
304.558
304.378
304.201
304.028
303.859
303.694
303.533
303.376
303.222
303.072
302.925
302.781
302.641
302.505
302.371
302.24
302.112
301.987
301.864
301.744
301.626
301.511
301.397
301.286
301.176
301.068
300.962
300.857
300.753
300.651
300.549
300.448
300.348
300.248
300.149
300.05
308.622
309.395
310.1
310.741
311.321
311.843
312.31
312.724
313.088
313.404
313.676
313.906
314.095
314.247
314.363
314.446
314.497
314.519
314.514
314.483
314.428
314.351
314.254
314.138
314.004
313.854
313.69
313.512
313.322
313.122
312.911
312.692
312.465
312.231
311.991
311.747
311.498
311.245
310.99
310.732
310.473
310.214
309.953
309.693
309.434
309.175
308.918
308.662
308.409
308.158
307.91
307.664
307.422
307.183
306.948
306.716
306.488
306.264
306.044
305.828
305.617
305.409
305.206
305.006
304.812
304.621
304.434
304.252
304.074
303.9
303.729
303.563
303.401
303.242
303.087
302.936
302.788
302.644
302.503
302.364
302.229
302.097
301.968
301.841
301.717
301.595
301.475
301.357
301.242
301.128
301.015
300.905
300.795
300.687
300.579
300.473
300.367
300.262
300.157
300.052
309.074
309.887
310.629
311.304
311.914
312.463
312.955
313.39
313.774
314.107
314.393
314.634
314.834
314.994
315.116
315.203
315.257
315.28
315.275
315.242
315.184
315.103
315.001
314.879
314.738
314.58
314.407
314.22
314.021
313.809
313.588
313.357
313.118
312.872
312.62
312.362
312.1
311.834
311.566
311.295
311.022
310.749
310.475
310.201
309.928
309.656
309.385
309.116
308.85
308.586
308.324
308.066
307.811
307.56
307.312
307.068
306.828
306.593
306.361
306.134
305.911
305.692
305.478
305.269
305.064
304.863
304.667
304.475
304.287
304.104
303.925
303.75
303.579
303.412
303.249
303.09
302.934
302.782
302.634
302.488
302.346
302.207
302.071
301.938
301.807
301.678
301.552
301.429
301.307
301.187
301.069
300.952
300.837
300.723
300.61
300.498
300.386
300.275
300.165
300.055
309.524
310.377
311.155
311.864
312.504
313.081
313.596
314.054
314.456
314.806
315.106
315.36
315.569
315.736
315.865
315.956
316.013
316.037
316.031
315.997
315.937
315.852
315.744
315.616
315.468
315.303
315.121
314.925
314.715
314.493
314.261
314.019
313.768
313.51
313.245
312.975
312.699
312.421
312.139
311.854
311.568
311.281
310.994
310.706
310.42
310.134
309.85
309.568
309.288
309.011
308.737
308.466
308.198
307.934
307.674
307.418
307.167
306.919
306.676
306.438
306.204
305.974
305.75
305.53
305.315
305.104
304.898
304.696
304.5
304.307
304.119
303.936
303.756
303.581
303.41
303.243
303.08
302.92
302.764
302.612
302.462
302.316
302.174
302.034
301.896
301.762
301.629
301.499
301.372
301.246
301.122
300.999
300.878
300.758
300.64
300.522
300.405
300.289
300.173
300.058
309.971
310.864
311.679
312.421
313.092
313.695
314.235
314.714
315.135
315.501
315.815
316.081
316.3
316.475
316.61
316.705
316.765
316.79
316.784
316.748
316.685
316.596
316.483
316.349
316.194
316.021
315.831
315.626
315.406
315.174
314.931
314.677
314.414
314.144
313.867
313.584
313.296
313.004
312.709
312.411
312.111
311.811
311.51
311.209
310.909
310.61
310.313
310.017
309.724
309.434
309.147
308.863
308.583
308.307
308.035
307.767
307.503
307.244
306.99
306.74
306.495
306.255
306.02
305.79
305.564
305.344
305.128
304.917
304.711
304.509
304.313
304.12
303.933
303.749
303.57
303.395
303.224
303.057
302.894
302.734
302.578
302.425
302.276
302.129
301.985
301.844
301.706
301.57
301.436
301.304
301.174
301.046
300.919
300.794
300.67
300.547
300.424
300.303
300.181
300.06
310.416
311.348
312.2
312.975
313.676
314.306
314.87
315.37
315.81
316.192
316.521
316.798
317.027
317.21
317.35
317.45
317.513
317.539
317.533
317.495
317.429
317.336
317.219
317.078
316.917
316.736
316.537
316.323
316.093
315.851
315.596
315.332
315.057
314.775
314.485
314.19
313.889
313.584
313.275
312.965
312.652
312.338
312.023
311.709
311.396
311.083
310.773
310.464
310.158
309.855
309.555
309.259
308.966
308.677
308.393
308.113
307.838
307.567
307.301
307.041
306.785
306.534
306.288
306.048
305.812
305.582
305.357
305.136
304.921
304.711
304.505
304.304
304.108
303.917
303.729
303.547
303.368
303.194
303.023
302.856
302.693
302.533
302.377
302.224
302.074
301.927
301.782
301.64
301.5
301.362
301.227
301.093
300.96
300.829
300.7
300.571
300.443
300.316
300.19
300.063
310.858
311.83
312.718
313.526
314.256
314.913
315.501
316.022
316.481
316.88
317.222
317.511
317.75
317.941
318.087
318.191
318.256
318.284
318.277
318.238
318.169
318.072
317.95
317.803
317.635
317.446
317.239
317.016
316.777
316.524
316.259
315.982
315.697
315.402
315.1
314.792
314.478
314.161
313.839
313.515
313.189
312.862
312.534
312.206
311.879
311.554
311.23
310.908
310.589
310.273
309.961
309.652
309.347
309.046
308.749
308.458
308.171
307.888
307.611
307.34
307.073
306.811
306.555
306.304
306.059
305.819
305.584
305.354
305.13
304.911
304.696
304.487
304.283
304.083
303.888
303.697
303.511
303.329
303.151
302.977
302.807
302.641
302.478
302.318
302.162
302.008
301.858
301.709
301.564
301.42
301.279
301.139
301.001
300.865
300.729
300.595
300.462
300.33
300.198
300.066
311.298
312.309
313.233
314.073
314.833
315.517
316.128
316.671
317.148
317.563
317.919
318.22
318.468
318.667
318.819
318.928
318.995
319.024
319.017
318.976
318.905
318.804
318.676
318.524
318.349
318.152
317.937
317.704
317.456
317.193
316.917
316.629
316.332
316.026
315.712
315.391
315.065
314.734
314.399
314.062
313.723
313.382
313.041
312.7
312.36
312.021
311.684
311.35
311.018
310.689
310.364
310.042
309.725
309.412
309.104
308.8
308.501
308.208
307.92
307.637
307.359
307.087
306.821
306.56
306.304
306.054
305.81
305.571
305.338
305.109
304.886
304.669
304.456
304.248
304.045
303.847
303.653
303.464
303.279
303.098
302.921
302.748
302.578
302.412
302.249
302.09
301.933
301.779
301.627
301.478
301.33
301.185
301.042
300.9
300.759
300.619
300.481
300.343
300.206
300.068
311.734
312.785
313.744
314.617
315.407
316.117
316.752
317.315
317.811
318.242
318.612
318.924
319.182
319.389
319.547
319.659
319.729
319.759
319.752
319.71
319.635
319.531
319.398
319.24
319.058
318.854
318.63
318.389
318.13
317.857
317.571
317.272
316.963
316.645
316.319
315.986
315.647
315.303
314.956
314.606
314.253
313.9
313.545
313.191
312.838
312.486
312.136
311.789
311.444
311.102
310.764
310.431
310.101
309.776
309.455
309.14
308.83
308.525
308.226
307.932
307.644
307.361
307.084
306.813
306.548
306.288
306.035
305.786
305.544
305.307
305.075
304.849
304.628
304.412
304.202
303.996
303.794
303.598
303.406
303.218
303.034
302.854
302.678
302.505
302.336
302.17
302.007
301.847
301.69
301.535
301.382
301.231
301.082
300.934
300.788
300.643
300.499
300.356
300.214
300.071
312.168
313.258
314.253
315.157
315.976
316.713
317.371
317.956
318.469
318.916
319.3
319.624
319.891
320.105
320.269
320.386
320.459
320.49
320.482
320.439
320.361
320.253
320.115
319.951
319.762
319.551
319.319
319.068
318.801
318.517
318.22
317.911
317.59
317.26
316.922
316.577
316.225
315.869
315.509
315.145
314.78
314.413
314.046
313.679
313.313
312.948
312.585
312.224
311.867
311.513
311.162
310.816
310.474
310.137
309.805
309.478
309.156
308.84
308.53
308.225
307.926
307.633
307.346
307.065
306.79
306.521
306.258
306
305.749
305.503
305.263
305.028
304.799
304.575
304.357
304.143
303.935
303.731
303.532
303.337
303.146
302.96
302.777
302.598
302.423
302.251
302.082
301.916
301.752
301.592
301.433
301.277
301.122
300.969
300.818
300.667
300.518
300.369
300.221
300.074
312.599
313.727
314.757
315.694
316.542
317.304
317.986
318.591
319.123
319.586
319.983
320.319
320.596
320.817
320.987
321.108
321.183
321.215
321.207
321.162
321.082
320.97
320.828
320.658
320.462
320.243
320.003
319.744
319.466
319.173
318.865
318.545
318.213
317.872
317.521
317.164
316.8
316.431
316.058
315.682
315.303
314.924
314.543
314.163
313.784
313.406
313.03
312.657
312.287
311.92
311.558
311.199
310.845
310.496
310.152
309.814
309.481
309.153
308.832
308.516
308.207
307.903
307.606
307.315
307.03
306.752
306.479
306.213
305.952
305.698
305.449
305.206
304.969
304.737
304.511
304.29
304.074
303.863
303.657
303.455
303.258
303.064
302.875
302.69
302.509
302.33
302.155
301.984
301.814
301.648
301.484
301.322
301.162
301.003
300.846
300.691
300.536
300.382
300.229
300.076
313.027
314.193
315.258
316.227
317.103
317.892
318.597
319.222
319.773
320.251
320.662
321.009
321.295
321.524
321.699
321.824
321.902
321.935
321.927
321.881
321.798
321.682
321.535
321.359
321.157
320.931
320.682
320.414
320.127
319.824
319.506
319.175
318.832
318.478
318.116
317.746
317.37
316.989
316.603
316.214
315.823
315.43
315.037
314.644
314.252
313.861
313.473
313.087
312.704
312.325
311.95
311.579
311.213
310.852
310.497
310.147
309.802
309.464
309.132
308.805
308.485
308.172
307.865
307.564
307.269
306.981
306.699
306.424
306.154
305.891
305.634
305.383
305.138
304.898
304.664
304.436
304.212
303.994
303.781
303.572
303.368
303.168
302.973
302.781
302.594
302.409
302.229
302.051
301.876
301.704
301.534
301.367
301.201
301.037
300.875
300.714
300.554
300.395
300.237
300.079
313.451
314.656
315.755
316.756
317.661
318.475
319.203
319.849
320.417
320.911
321.335
321.693
321.989
322.225
322.407
322.536
322.616
322.65
322.642
322.594
322.508
322.388
322.236
322.055
321.846
321.613
321.356
321.079
320.783
320.47
320.141
319.799
319.445
319.08
318.706
318.325
317.936
317.542
317.144
316.742
316.339
315.933
315.527
315.121
314.716
314.313
313.912
313.513
313.118
312.727
312.339
311.957
311.579
311.206
310.839
310.477
310.122
309.772
309.429
309.092
308.762
308.438
308.121
307.81
307.506
307.208
306.918
306.633
306.355
306.083
305.818
305.559
305.305
305.058
304.816
304.58
304.35
304.124
303.904
303.689
303.478
303.272
303.07
302.872
302.678
302.488
302.301
302.118
301.937
301.759
301.584
301.411
301.24
301.071
300.904
300.738
300.573
300.408
300.245
300.082
313.872
315.114
316.249
317.28
318.214
319.053
319.804
320.47
321.056
321.566
322.003
322.372
322.677
322.921
323.108
323.241
323.324
323.359
323.351
323.301
323.213
323.089
322.933
322.745
322.53
322.289
322.025
321.739
321.434
321.111
320.772
320.419
320.054
319.678
319.292
318.898
318.498
318.092
317.681
317.267
316.85
316.432
316.013
315.595
315.177
314.761
314.347
313.936
313.529
313.125
312.726
312.331
311.941
311.557
311.178
310.805
310.439
310.078
309.724
309.377
309.036
308.702
308.375
308.055
307.741
307.434
307.134
306.841
306.554
306.274
306
305.733
305.471
305.216
304.967
304.724
304.486
304.253
304.026
303.804
303.587
303.374
303.166
302.962
302.762
302.566
302.373
302.184
301.998
301.814
301.634
301.455
301.279
301.105
300.932
300.761
300.59
300.421
300.252
300.084
314.29
315.57
316.738
317.801
318.762
319.627
320.401
321.087
321.69
322.215
322.666
323.046
323.36
323.612
323.804
323.941
324.026
324.063
324.054
324.003
323.912
323.785
323.623
323.43
323.209
322.961
322.688
322.394
322.079
321.747
321.398
321.034
320.658
320.27
319.873
319.468
319.055
318.636
318.213
317.787
317.358
316.927
316.496
316.064
315.634
315.206
314.78
314.356
313.936
313.52
313.109
312.702
312.301
311.905
311.515
311.131
310.753
310.382
310.017
309.659
309.308
308.964
308.627
308.297
307.974
307.658
307.349
307.047
306.751
306.463
306.181
305.905
305.636
305.373
305.117
304.866
304.621
304.381
304.147
303.919
303.695
303.476
303.261
303.051
302.845
302.643
302.445
302.25
302.058
301.869
301.683
301.499
301.318
301.138
300.96
300.784
300.608
300.434
300.26
300.087
314.704
316.021
317.223
318.317
319.306
320.196
320.992
321.698
322.319
322.859
323.323
323.714
324.037
324.296
324.494
324.635
324.723
324.76
324.751
324.699
324.605
324.474
324.308
324.11
323.882
323.626
323.346
323.043
322.719
322.377
322.018
321.644
321.257
320.858
320.449
320.032
319.607
319.177
318.741
318.302
317.861
317.418
316.974
316.53
316.087
315.647
315.208
314.772
314.34
313.912
313.489
313.071
312.657
312.25
311.849
311.454
311.065
310.683
310.308
309.939
309.578
309.224
308.877
308.538
308.205
307.88
307.562
307.251
306.947
306.65
306.36
306.076
305.8
305.529
305.265
305.007
304.755
304.508
304.268
304.032
303.802
303.577
303.356
303.14
302.928
302.72
302.516
302.315
302.118
301.923
301.732
301.543
301.356
301.171
300.988
300.806
300.626
300.446
300.268
300.089
315.115
316.468
317.704
318.828
319.845
320.76
321.578
322.304
322.942
323.497
323.974
324.376
324.708
324.974
325.178
325.323
325.413
325.452
325.442
325.388
325.292
325.157
324.987
324.783
324.548
324.286
323.998
323.686
323.354
323.002
322.633
322.248
321.85
321.441
321.02
320.591
320.155
319.712
319.265
318.813
318.359
317.904
317.448
316.992
316.537
316.083
315.633
315.185
314.741
314.301
313.866
313.436
313.011
312.592
312.18
311.773
311.374
310.981
310.595
310.217
309.846
309.482
309.125
308.776
308.434
308.1
307.773
307.454
307.141
306.836
306.537
306.246
305.962
305.684
305.412
305.147
304.888
304.634
304.387
304.145
303.908
303.676
303.45
303.227
303.009
302.796
302.586
302.38
302.177
301.977
301.78
301.586
301.394
301.204
301.015
300.829
300.643
300.459
300.275
300.092
315.522
316.912
318.181
319.335
320.379
321.319
322.159
322.904
323.56
324.13
324.619
325.033
325.374
325.647
325.856
326.005
326.097
326.137
326.127
326.072
325.973
325.835
325.659
325.45
325.209
324.94
324.644
324.324
323.982
323.621
323.242
322.847
322.439
322.018
321.586
321.146
320.697
320.243
319.783
319.32
318.854
318.386
317.917
317.449
316.982
316.516
316.053
315.594
315.138
314.686
314.239
313.797
313.361
312.931
312.507
312.09
311.68
311.277
310.881
310.492
310.111
309.737
309.371
309.012
308.661
308.318
307.982
307.654
307.333
307.02
306.713
306.414
306.122
305.837
305.558
305.285
305.019
304.759
304.505
304.256
304.013
303.775
303.542
303.314
303.09
302.871
302.655
302.444
302.235
302.03
301.828
301.628
301.431
301.236
301.043
300.851
300.661
300.471
300.282
300.094
315.925
317.351
318.653
319.837
320.909
321.873
322.734
323.499
324.172
324.757
325.259
325.683
326.032
326.313
326.527
326.68
326.775
326.816
326.806
326.749
326.647
326.505
326.326
326.111
325.864
325.587
325.284
324.956
324.605
324.234
323.846
323.441
323.021
322.589
322.147
321.695
321.235
320.768
320.297
319.821
319.343
318.863
318.383
317.902
317.423
316.945
316.47
315.999
315.531
315.067
314.609
314.155
313.708
313.267
312.832
312.404
311.983
311.57
311.163
310.764
310.373
309.99
309.614
309.246
308.886
308.534
308.19
307.853
307.524
307.202
306.888
306.581
306.281
305.988
305.702
305.423
305.149
304.883
304.622
304.367
304.117
303.873
303.634
303.4
303.171
302.946
302.724
302.507
302.293
302.083
301.875
301.671
301.468
301.268
301.07
300.873
300.678
300.483
300.29
300.097
316.324
317.786
319.12
320.334
321.433
322.421
323.304
324.088
324.777
325.377
325.892
326.326
326.685
326.972
327.192
327.349
327.446
327.488
327.478
327.419
327.315
327.17
326.985
326.765
326.512
326.229
325.917
325.581
325.222
324.842
324.443
324.028
323.598
323.156
322.702
322.238
321.767
321.289
320.806
320.318
319.828
319.336
318.843
318.351
317.859
317.37
316.883
316.399
315.92
315.445
314.975
314.51
314.052
313.599
313.154
312.715
312.284
311.86
311.443
311.034
310.633
310.24
309.855
309.478
309.109
308.748
308.395
308.05
307.712
307.383
307.06
306.746
306.438
306.138
305.845
305.558
305.279
305.005
304.738
304.476
304.221
303.97
303.725
303.485
303.25
303.019
302.793