/*--------------------------------*- C++ -*----------------------------------*\
| =========                 |                                                 |
| \\      /  F ield         | OpenFOAM: The Open Source CFD Toolbox           |
|  \\    /   O peration     | Version:  2406                                  |
|   \\  /    A nd           | Website:  www.openfoam.com                      |
|    \\/     M anipulation  |                                                 |
\*---------------------------------------------------------------------------*/
FoamFile
{
    version     2.0;
    format      ascii;
    arch        "LSB;label=32;scalar=64";
    class       volScalarField;
    location    "55";
    object      gradTx;
}
// * * * * * * * * * * * * * * * * * * * * * * * * * * * * * * * * * * * * * //

dimensions      [0 -1 0 1 0 0 0];

internalField   nonuniform List<scalar> 
20000
(
-7.62943
-7.37357
-7.11742
-6.86146
-6.6071
-6.35536
-6.10565
-5.85905
-5.61702
-5.37947
-5.14642
-4.91829
-4.6956
-4.4787
-4.26781
-4.06306
-3.86454
-3.67235
-3.48654
-3.30717
-3.13425
-2.96779
-2.80773
-2.65404
-2.50664
-2.36545
-2.23035
-2.10124
-1.97798
-1.86045
-1.74849
-1.64196
-1.54069
-1.44454
-1.35332
-1.26687
-1.18503
-1.10762
-1.03448
-0.965431
-0.900306
-0.838942
-0.781172
-0.726837
-0.675777
-0.627838
-0.582869
-0.540723
-0.501256
-0.464331
-0.429813
-0.397573
-0.367486
-0.339431
-0.313293
-0.288961
-0.26633
-0.245297
-0.225766
-0.207643
-0.190842
-0.175279
-0.160873
-0.14755
-0.135237
-0.123868
-0.113379
-0.10371
-0.0948026
-0.0866048
-0.0790661
-0.0721394
-0.0657803
-0.0599475
-0.0546022
-0.0497084
-0.0452323
-0.0411424
-0.0374094
-0.0340064
-0.030908
-0.028091
-0.0255338
-0.0232166
-0.0211212
-0.0192308
-0.01753
-0.0160049
-0.0146428
-0.0134323
-0.012363
-0.0114258
-0.0106125
-0.00991595
-0.0093301
-0.00884971
-0.00847048
-0.008189
-0.00800274
-0.00791
-22.8866
-22.1186
-21.3499
-20.5831
-19.82
-19.0639
-18.3151
-17.5761
-16.8499
-16.137
-15.4378
-14.7535
-14.0856
-13.435
-12.8024
-12.1882
-11.5927
-11.0161
-10.4588
-9.92069
-9.40199
-8.90262
-8.4225
-7.96147
-7.51931
-7.09575
-6.6905
-6.30319
-5.93346
-5.58089
-5.24504
-4.92547
-4.6217
-4.33325
-4.05962
-3.80031
-3.5548
-3.3226
-3.10319
-2.89605
-2.7007
-2.51662
-2.34332
-2.18033
-2.02716
-1.88336
-1.74846
-1.62203
-1.50365
-1.39288
-1.28933
-1.19262
-1.10237
-1.01821
-0.939802
-0.866813
-0.798924
-0.735831
-0.677241
-0.622879
-0.57248
-0.525793
-0.482579
-0.442612
-0.405678
-0.371575
-0.34011
-0.311103
-0.284384
-0.259793
-0.237179
-0.2164
-0.197325
-0.179828
-0.163793
-0.149113
-0.135686
-0.123417
-0.112219
-0.102011
-0.0927164
-0.084266
-0.0765952
-0.0696442
-0.0633584
-0.0576876
-0.0525857
-0.0480108
-0.0439249
-0.0402937
-0.0370861
-0.0342746
-0.0318348
-0.0297454
-0.027988
-0.026547
-0.0254094
-0.024565
-0.0240063
-0.0237281
-38.1383
-36.8587
-35.5774
-34.2996
-33.028
-31.7673
-30.52
-29.2891
-28.0789
-26.8906
-25.7252
-24.5851
-23.4722
-22.3881
-21.3339
-20.3104
-19.318
-18.3572
-17.4284
-16.5318
-15.6674
-14.8353
-14.0352
-13.2669
-12.5301
-11.8243
-11.149
-10.5036
-9.88747
-9.29995
-8.7403
-8.20777
-7.70157
-7.2209
-6.76492
-6.3328
-5.9237
-5.53676
-5.17113
-4.82596
-4.50042
-4.19367
-3.9049
-3.63329
-3.37805
-3.13842
-2.91363
-2.70295
-2.50566
-2.32108
-2.14854
-1.98738
-1.83698
-1.69674
-1.56608
-1.44445
-1.33132
-1.22618
-1.12855
-1.03796
-0.953977
-0.876177
-0.804166
-0.737566
-0.676019
-0.61919
-0.566757
-0.51842
-0.473896
-0.432917
-0.395233
-0.360608
-0.32882
-0.299663
-0.272944
-0.248481
-0.226106
-0.205661
-0.187001
-0.16999
-0.154502
-0.14042
-0.127638
-0.116055
-0.10558
-0.0961302
-0.0876284
-0.0800049
-0.0731962
-0.0671451
-0.0617999
-0.0571149
-0.0530493
-0.0495676
-0.0466391
-0.0442377
-0.042342
-0.0409349
-0.0400039
-0.0395404
-53.3803
-51.5898
-49.7965
-48.0075
-46.2277
-44.4631
-42.7175
-40.995
-39.301
-37.6373
-36.0062
-34.4105
-32.8529
-31.3357
-29.8602
-28.4275
-27.0385
-25.6937
-24.3937
-23.1387
-21.9289
-20.7642
-19.6444
-18.5691
-17.5378
-16.5499
-15.6047
-14.7014
-13.839
-13.0167
-12.2334
-11.488
-10.7795
-10.1068
-9.46855
-8.86374
-8.29113
-7.74955
-7.23779
-6.75468
-6.29904
-5.86969
-5.46551
-5.08535
-4.7281
-4.3927
-4.07807
-3.78319
-3.50706
-3.24872
-3.00721
-2.78164
-2.57113
-2.37484
-2.19197
-2.02173
-1.86339
-1.71623
-1.57958
-1.45279
-1.33524
-1.22635
-1.12555
-1.03234
-0.946194
-0.866651
-0.793264
-0.725609
-0.663291
-0.605935
-0.55319
-0.504726
-0.460235
-0.419425
-0.382027
-0.347787
-0.31647
-0.287855
-0.261737
-0.237927
-0.216249
-0.19654
-0.178649
-0.162436
-0.147776
-0.134549
-0.12265
-0.111979
-0.102449
-0.0939799
-0.0864986
-0.0799411
-0.0742507
-0.0693775
-0.0652786
-0.0619175
-0.0592642
-0.0572948
-0.0559917
-0.055343
-68.6089
-66.3076
-64.003
-61.7035
-59.4161
-57.1481
-54.9046
-52.6908
-50.5132
-48.3748
-46.2783
-44.2273
-42.2255
-40.2755
-38.3791
-36.5377
-34.7524
-33.0239
-31.353
-29.74
-28.1851
-26.6881
-25.2488
-23.8667
-22.5412
-21.2715
-20.0566
-18.8956
-17.7872
-16.7303
-15.7235
-14.7655
-13.8549
-12.9901
-12.1698
-11.3925
-10.6565
-9.96043
-9.30267
-8.68173
-8.09609
-7.54427
-7.02477
-6.53615
-6.07699
-5.6459
-5.24151
-4.8625
-4.5076
-4.17555
-3.86514
-3.57522
-3.30465
-3.05237
-2.81732
-2.59852
-2.395
-2.20586
-2.03022
-1.86725
-1.71617
-1.57621
-1.44667
-1.32685
-1.21613
-1.1139
-1.01957
-0.932619
-0.852522
-0.778803
-0.71101
-0.648721
-0.591536
-0.539084
-0.491016
-0.447008
-0.406756
-0.369977
-0.336408
-0.305806
-0.277943
-0.252611
-0.229616
-0.208778
-0.189935
-0.172935
-0.15764
-0.143926
-0.131677
-0.120792
-0.111176
-0.102748
-0.0954338
-0.0891703
-0.0839021
-0.0795821
-0.0761718
-0.0736406
-0.0719657
-0.071132
-83.8206
-81.009
-78.1936
-75.3844
-72.5898
-69.819
-67.0781
-64.3735
-61.713
-59.1002
-56.5388
-54.0333
-51.5878
-49.2054
-46.8886
-44.6389
-42.4577
-40.346
-38.3046
-36.334
-34.4342
-32.6054
-30.847
-29.1584
-27.539
-25.9878
-24.5036
-23.0851
-21.731
-20.4397
-19.2097
-18.0393
-16.9267
-15.8703
-14.8681
-13.9184
-13.0193
-12.1688
-11.3653
-10.6066
-9.89116
-9.21698
-8.5823
-7.98534
-7.42438
-6.8977
-6.40365
-5.94061
-5.50702
-5.10135
-4.72212
-4.36791
-4.03736
-3.72914
-3.44197
-3.17466
-2.92602
-2.69494
-2.48036
-2.28126
-2.09668
-1.92569
-1.76742
-1.62104
-1.48578
-1.36087
-1.24563
-1.1394
-1.04154
-0.951479
-0.868655
-0.792555
-0.722691
-0.658609
-0.599884
-0.546119
-0.496942
-0.452008
-0.410997
-0.373609
-0.339569
-0.30862
-0.280526
-0.255068
-0.232047
-0.211278
-0.192592
-0.175837
-0.160873
-0.147574
-0.135826
-0.125529
-0.116593
-0.108941
-0.102505
-0.0972271
-0.0930606
-0.0899683
-0.0879221
-0.0869035
-99.0117
-95.6906
-92.365
-89.0467
-85.7457
-82.4727
-79.235
-76.0403
-72.8975
-69.811
-66.7855
-63.826
-60.9373
-58.1233
-55.3865
-52.7291
-50.1525
-47.6581
-45.2467
-42.9189
-40.6749
-38.5146
-36.4375
-34.443
-32.5301
-30.6977
-28.9445
-27.2689
-25.6694
-24.1441
-22.6911
-21.3086
-19.9945
-18.7466
-17.5628
-16.4409
-15.3788
-14.3743
-13.425
-12.5289
-11.6838
-10.8874
-10.1377
-9.43256
-8.76993
-8.1478
-7.56422
-7.01726
-6.50508
-6.02589
-5.57793
-5.15953
-4.76907
-4.40499
-4.06578
-3.75002
-3.45631
-3.18336
-2.92989
-2.69471
-2.47667
-2.27469
-2.08774
-1.91483
-1.75505
-1.60751
-1.47139
-1.3459
-1.23031
-1.12392
-1.02609
-0.936193
-0.853668
-0.777972
-0.708604
-0.645095
-0.587005
-0.533928
-0.485484
-0.44132
-0.401111
-0.364553
-0.331367
-0.301296
-0.274102
-0.249569
-0.227497
-0.207705
-0.190029
-0.174319
-0.160442
-0.148279
-0.137724
-0.128685
-0.121082
-0.114848
-0.109927
-0.106274
-0.103857
-0.102654
-114.178
-110.349
-106.514
-102.687
-98.8805
-95.106
-91.3724
-87.6883
-84.0639
-80.5046
-77.0156
-73.6029
-70.2718
-67.0267
-63.8708
-60.8062
-57.835
-54.9585
-52.1777
-49.4933
-46.9056
-44.4143
-42.019
-39.719
-37.5131
-35.4
-33.3782
-31.446
-29.6014
-27.8425
-26.167
-24.5727
-23.0572
-21.6182
-20.2531
-18.9594
-17.7346
-16.5761
-15.4815
-14.4481
-13.4735
-12.5552
-11.6906
-10.8775
-10.1133
-9.3959
-8.72291
-8.09218
-7.50154
-6.94894
-6.43236
-5.94987
-5.4996
-5.07975
-4.68858
-4.32445
-3.98576
-3.67099
-3.37869
-3.10749
-2.85605
-2.62313
-2.40754
-2.20815
-2.02389
-1.85375
-1.69678
-1.55207
-1.41877
-1.29608
-1.18326
-1.0796
-0.984434
-0.897143
-0.81715
-0.743911
-0.676923
-0.615716
-0.559851
-0.508923
-0.462554
-0.420396
-0.382126
-0.347449
-0.31609
-0.287798
-0.262345
-0.239522
-0.219138
-0.201022
-0.185019
-0.170993
-0.158821
-0.148398
-0.13963
-0.132441
-0.126765
-0.122553
-0.119766
-0.118378
-129.317
-124.979
-120.636
-116.302
-111.991
-107.716
-103.487
-99.3146
-95.2096
-91.1783
-87.2268
-83.3616
-79.589
-75.9137
-72.3393
-68.8684
-65.5032
-62.2453
-59.0958
-56.0555
-53.1246
-50.3031
-47.5902
-44.9852
-42.4868
-40.0936
-37.8038
-35.6153
-33.5262
-31.5341
-29.6364
-27.8307
-26.1143
-24.4845
-22.9383
-21.4731
-20.086
-18.7739
-17.5341
-16.3638
-15.2599
-14.2198
-13.2406
-12.3197
-11.4542
-10.6417
-9.87946
-9.16509
-8.49615
-7.87028
-7.28521
-6.73875
-6.22878
-5.75326
-5.31023
-4.89781
-4.51422
-4.15771
-3.82666
-3.5195
-3.23472
-2.97092
-2.72675
-2.50092
-2.29223
-2.09954
-1.92175
-1.75785
-1.60688
-1.46793
-1.34015
-1.22274
-1.11496
-1.01609
-0.925493
-0.842544
-0.766675
-0.697352
-0.63408
-0.576399
-0.523883
-0.476135
-0.432792
-0.393516
-0.357999
-0.325957
-0.297129
-0.27128
-0.248193
-0.227675
-0.20955
-0.193664
-0.179879
-0.168073
-0.158144
-0.150001
-0.143573
-0.138802
-0.135646
-0.134074
-144.424
-139.579
-134.729
-129.888
-125.073
-120.299
-115.576
-110.916
-106.332
-101.83
-97.4164
-93.0998
-88.8865
-84.7819
-80.79
-76.9136
-73.1553
-69.5167
-65.9993
-62.6038
-59.3306
-56.1794
-53.1496
-50.2403
-47.4501
-44.7773
-42.2199
-39.7759
-37.4427
-35.2178
-33.0985
-31.0819
-29.165
-27.3447
-25.618
-23.9816
-22.4324
-20.9671
-19.5825
-18.2754
-17.0426
-15.881
-14.7874
-13.7588
-12.7923
-11.8848
-11.0336
-10.2357
-9.48866
-8.78968
-8.13626
-7.52597
-6.95642
-6.42535
-5.93056
-5.46997
-5.04156
-4.64341
-4.27369
-3.93064
-3.6126
-3.31798
-3.04529
-2.79308
-2.56001
-2.3448
-2.14624
-1.9632
-1.79459
-1.63941
-1.4967
-1.36558
-1.24521
-1.13479
-1.03361
-0.94097
-0.856237
-0.778816
-0.708153
-0.643734
-0.585082
-0.531757
-0.48335
-0.439486
-0.39982
-0.364035
-0.33184
-0.30297
-0.277187
-0.254272
-0.23403
-0.216288
-0.200892
-0.187708
-0.176618
-0.167524
-0.160345
-0.155017
-0.151492
-0.149737
-159.495
-154.145
-148.788
-143.443
-138.125
-132.853
-127.637
-122.491
-117.428
-112.456
-107.582
-102.815
-98.1622
-93.6293
-89.2207
-84.9399
-80.7893
-76.771
-72.8866
-69.1367
-65.5219
-62.0419
-58.696
-55.483
-52.4016
-49.4499
-46.6257
-43.9266
-41.35
-38.8929
-36.5524
-34.3254
-32.2084
-30.1982
-28.2913
-26.4842
-24.7733
-23.155
-21.626
-20.1825
-18.821
-17.5382
-16.3305
-15.1946
-14.1272
-13.125
-12.185
-11.3039
-10.4788
-9.70691
-8.98531
-8.31132
-7.68234
-7.09585
-6.54944
-6.04078
-5.56767
-5.12797
-4.71966
-4.34082
-3.98959
-3.66423
-3.36307
-3.08454
-2.82715
-2.58949
-2.37021
-2.16807
-1.98186
-1.81049
-1.65289
-1.50809
-1.37515
-1.25321
-1.14147
-1.03916
-0.945589
-0.860088
-0.782051
-0.71091
-0.646137
-0.587247
-0.533789
-0.485348
-0.441543
-0.402023
-0.366468
-0.334586
-0.306112
-0.280806
-0.258452
-0.238859
-0.221856
-0.207296
-0.195049
-0.185006
-0.177078
-0.171194
-0.167301
-0.165362
-174.527
-168.673
-162.811
-156.961
-151.143
-145.373
-139.666
-134.035
-128.495
-123.054
-117.721
-112.505
-107.414
-102.454
-97.6295
-92.9451
-88.4034
-84.0064
-79.7558
-75.6526
-71.6971
-67.889
-64.2278
-60.7121
-57.3403
-54.1104
-51.02
-48.0665
-45.247
-42.5584
-39.9973
-37.5604
-35.2439
-33.0443
-30.9576
-28.9802
-27.108
-25.3373
-23.6641
-22.0846
-20.5948
-19.1911
-17.8696
-16.6266
-15.4586
-14.362
-13.3333
-12.3692
-11.4664
-10.6217
-9.83213
-9.09463
-8.40637
-7.7646
-7.16669
-6.6101
-6.09239
-5.61126
-5.16447
-4.74992
-4.36559
-4.00956
-3.68003
-3.37525
-3.0936
-2.83354
-2.59359
-2.3724
-2.16865
-1.98112
-1.80867
-1.65022
-1.50475
-1.37132
-1.24905
-1.1371
-1.03471
-0.941148
-0.855756
-0.77791
-0.707033
-0.642593
-0.584097
-0.531091
-0.483157
-0.439912
-0.401006
-0.36612
-0.334962
-0.307271
-0.28281
-0.261371
-0.242766
-0.226833
-0.213432
-0.202442
-0.193767
-0.187329
-0.183068
-0.180948
-189.515
-183.158
-176.793
-170.441
-164.123
-157.858
-151.661
-145.546
-139.53
-133.622
-127.831
-122.167
-116.639
-111.252
-106.014
-100.927
-95.9956
-91.221
-86.6054
-82.1497
-77.8545
-73.7195
-69.7438
-65.9261
-62.2647
-58.7574
-55.4017
-52.1945
-49.1329
-46.2134
-43.4324
-40.7861
-38.2707
-35.8822
-33.6163
-31.469
-29.4361
-27.5133
-25.6964
-23.9812
-22.3635
-20.8392
-19.4043
-18.0546
-16.7862
-15.5954
-14.4784
-13.4315
-12.4512
-11.534
-10.6765
-9.87569
-9.12832
-8.43144
-7.78218
-7.17778
-6.61562
-6.09316
-5.608
-5.15785
-4.74051
-4.35391
-3.99607
-3.66512
-3.35929
-3.07689
-2.81634
-2.57614
-2.35489
-2.15126
-1.964
-1.79194
-1.63398
-1.48909
-1.35632
-1.23476
-1.12357
-1.02198
-0.929251
-0.844719
-0.767755
-0.69778
-0.63426
-0.576702
-0.524651
-0.477693
-0.435446
-0.397563
-0.363729
-0.33366
-0.307099
-0.283818
-0.263615
-0.246314
-0.231762
-0.219829
-0.210409
-0.203417
-0.198791
-0.196488
-204.457
-197.599
-190.732
-183.879
-177.063
-170.304
-163.618
-157.021
-150.531
-144.157
-137.91
-131.799
-125.835
-120.024
-114.373
-108.885
-103.564
-98.4131
-93.4336
-88.6266
-83.9928
-79.5317
-75.2426
-71.1239
-67.1739
-63.39
-59.7697
-56.3097
-53.0067
-49.857
-46.8567
-44.0018
-41.2881
-38.7112
-36.2667
-33.9501
-31.7569
-29.6825
-27.7224
-25.872
-24.1267
-22.4823
-20.9341
-19.478
-18.1097
-16.825
-15.6199
-14.4905
-13.4329
-12.4433
-11.5183
-10.6543
-9.84802
-9.0962
-8.39575
-7.7437
-7.13721
-6.57356
-6.05015
-5.56451
-5.11427
-4.69719
-4.31113
-3.95409
-3.62414
-3.31948
-3.03838
-2.77925
-2.54056
-2.32087
-2.11885
-1.93322
-1.76281
-1.6065
-1.46325
-1.33211
-1.21215
-1.10255
-1.00252
-0.911319
-0.828287
-0.752795
-0.684267
-0.622171
-0.566016
-0.515355
-0.469777
-0.428908
-0.392407
-0.359967
-0.331311
-0.306195
-0.284399
-0.265734
-0.250035
-0.237161
-0.226998
-0.219456
-0.214464
-0.21198
-219.348
-211.991
-204.624
-197.272
-189.959
-182.708
-175.535
-168.458
-161.495
-154.656
-147.954
-141.399
-135
-128.766
-122.703
-116.815
-111.107
-105.581
-100.239
-95.0817
-90.1103
-85.3243
-80.7228
-76.3041
-72.0664
-68.007
-64.1229
-60.4109
-56.8673
-53.4882
-50.2694
-47.2066
-44.2953
-41.5307
-38.9082
-36.4228
-34.0699
-31.8444
-29.7415
-27.7563
-25.884
-24.1197
-22.4588
-20.8967
-19.4287
-18.0505
-16.7576
-15.5459
-14.4112
-13.3496
-12.3572
-11.4303
-10.5653
-9.75871
-9.00724
-8.3077
-7.65704
-7.05234
-6.49081
-5.96979
-5.48676
-5.0393
-4.62513
-4.24208
-3.8881
-3.56125
-3.25968
-2.98168
-2.7256
-2.48991
-2.27317
-2.07403
-1.8912
-1.72351
-1.56983
-1.42913
-1.30044
-1.18285
-1.07553
-0.977694
-0.888615
-0.807625
-0.734106
-0.667486
-0.607242
-0.552891
-0.503993
-0.460147
-0.420987
-0.386185
-0.355442
-0.328496
-0.305114
-0.285089
-0.268246
-0.254435
-0.243532
-0.23544
-0.230085
-0.22742
-234.186
-226.331
-218.465
-210.616
-202.809
-195.067
-187.409
-179.853
-172.418
-165.118
-157.962
-150.963
-144.132
-137.476
-131.003
-124.717
-118.623
-112.723
-107.019
-101.513
-96.2056
-91.0959
-86.1831
-81.4656
-76.9411
-72.6071
-68.4604
-64.4973
-60.714
-57.1063
-53.6698
-50.3998
-47.2915
-44.3399
-41.54
-38.8866
-36.3745
-33.9985
-31.7533
-29.6338
-27.6348
-25.7512
-23.978
-22.3102
-20.7429
-19.2714
-17.8911
-16.5974
-15.386
-14.2526
-13.1931
-12.2035
-11.28
-10.4188
-9.61651
-8.86966
-8.17498
-7.52938
-6.92987
-6.37361
-5.8579
-5.38017
-4.93799
-4.52903
-4.1511
-3.80214
-3.48018
-3.18336
-2.90996
-2.65834
-2.42694
-2.21432
-2.01913
-1.84009
-1.67602
-1.5258
-1.38841
-1.26287
-1.14829
-1.04383
-0.948723
-0.862255
-0.783763
-0.712637
-0.648318
-0.59029
-0.538085
-0.491273
-0.449464
-0.412307
-0.379486
-0.350717
-0.325753
-0.304374
-0.286391
-0.271646
-0.260005
-0.251366
-0.245649
-0.242803
-248.965
-240.614
-232.252
-223.908
-215.608
-207.377
-199.236
-191.203
-183.3
-175.538
-167.931
-160.491
-153.228
-146.152
-139.271
-132.588
-126.109
-119.837
-113.773
-107.92
-102.277
-96.8449
-91.6221
-86.6069
-81.7969
-77.1894
-72.7809
-68.5677
-64.5457
-60.7103
-57.0569
-53.5805
-50.2761
-47.1382
-44.1616
-41.3407
-38.6701
-36.1441
-33.7573
-31.504
-29.3789
-27.3764
-25.4913
-23.7182
-22.052
-20.4877
-19.0202
-17.6449
-16.357
-15.1521
-14.0257
-12.9736
-11.9918
-11.0763
-10.2234
-9.42942
-8.69091
-8.00456
-7.36721
-6.77585
-6.22759
-5.71972
-5.24962
-4.81486
-4.41308
-4.04209
-3.69981
-3.38427
-3.09361
-2.8261
-2.5801
-2.35406
-2.14655
-1.95622
-1.78179
-1.6221
-1.47603
-1.34257
-1.22075
-1.1097
-1.0086
-0.916672
-0.833226
-0.757612
-0.689233
-0.627544
-0.572044
-0.522277
-0.47783
-0.438328
-0.403435
-0.372851
-0.346311
-0.323583
-0.304466
-0.28879
-0.276415
-0.26723
-0.261152
-0.258127
-263.683
-254.839
-245.982
-237.145
-228.354
-219.637
-211.014
-202.507
-194.136
-185.916
-177.859
-169.978
-162.286
-154.793
-147.504
-140.427
-133.564
-126.921
-120.499
-114.3
-108.323
-102.57
-97.0385
-91.7268
-86.6325
-81.7526
-77.0835
-72.6212
-68.3614
-64.2993
-60.4299
-56.7481
-53.2482
-49.9249
-46.7723
-43.7847
-40.9561
-38.2808
-35.7529
-33.3664
-31.1157
-28.9948
-26.9982
-25.1203
-23.3557
-21.6988
-20.1447
-18.688
-17.324
-16.0478
-14.8549
-13.7406
-12.7008
-11.7311
-10.8278
-9.98686
-9.20469
-8.47777
-7.80274
-7.17641
-6.59575
-6.05785
-5.55997
-5.0995
-4.67397
-4.28105
-3.91853
-3.58434
-3.2765
-2.99317
-2.73263
-2.49323
-2.27345
-2.07186
-1.88713
-1.71799
-1.56329
-1.42194
-1.29292
-1.17531
-1.06822
-0.970864
-0.882485
-0.8024
-0.729979
-0.664643
-0.605862
-0.553153
-0.506079
-0.464241
-0.427285
-0.394893
-0.366784
-0.342713
-0.322465
-0.305862
-0.292756
-0.283028
-0.276591
-0.273387
-278.336
-269
-259.652
-250.323
-241.044
-231.842
-222.74
-213.76
-204.924
-196.247
-187.742
-179.424
-171.305
-163.394
-155.701
-148.23
-140.987
-133.974
-127.195
-120.651
-114.343
-108.27
-102.431
-96.8241
-91.4467
-86.2956
-81.3671
-76.6568
-72.1603
-67.8725
-63.7881
-59.9016
-56.2073
-52.6992
-49.3715
-46.2178
-43.2321
-40.4081
-37.7397
-35.2206
-32.8448
-30.6061
-28.4985
-26.5163
-24.6535
-22.9046
-21.2641
-19.7265
-18.2867
-16.9396
-15.6804
-14.5042
-13.4065
-12.3831
-11.4295
-10.5418
-9.7162
-8.94888
-8.23634
-7.57521
-6.96228
-6.39449
-5.86894
-5.38288
-4.9337
-4.51895
-4.13629
-3.78352
-3.45858
-3.15951
-2.88448
-2.63178
-2.39979
-2.187
-1.99199
-1.81346
-1.65016
-1.50095
-1.36477
-1.24062
-1.12759
-1.02482
-0.931525
-0.84699
-0.770545
-0.701578
-0.63953
-0.583893
-0.534202
-0.49004
-0.45103
-0.416838
-0.387167
-0.361758
-0.340385
-0.32286
-0.309025
-0.298756
-0.291962
-0.28858
-292.921
-283.095
-273.257
-263.44
-253.674
-243.99
-234.412
-224.961
-215.662
-206.53
-197.58
-188.826
-180.281
-171.956
-163.859
-155.997
-148.374
-140.994
-133.86
-126.973
-120.334
-113.943
-107.798
-101.898
-96.2384
-90.8174
-85.6306
-80.6735
-75.9414
-71.4289
-67.1304
-63.0403
-59.1524
-55.4606
-51.9584
-48.6395
-45.4974
-42.5254
-39.7172
-37.0661
-34.5658
-32.2098
-29.9918
-27.9057
-25.9453
-24.1048
-22.3783
-20.7602
-19.2449
-17.8272
-16.502
-15.2642
-14.109
-13.0319
-12.0284
-11.0942
-10.2253
-9.41779
-8.66791
-7.97214
-7.32709
-6.72955
-6.17646
-5.66493
-5.19222
-4.75574
-4.35302
-3.98177
-3.6398
-3.32506
-3.03562
-2.76968
-2.52553
-2.30159
-2.09637
-1.90848
-1.73663
-1.5796
-1.43628
-1.30563
-1.18667
-1.07851
-0.980336
-0.891372
-0.81092
-0.73834
-0.673041
-0.614488
-0.562193
-0.515717
-0.474664
-0.43868
-0.407454
-0.380713
-0.358221
-0.339777
-0.325217
-0.314411
-0.307261
-0.303701
-307.433
-297.121
-286.795
-276.491
-266.242
-256.078
-246.025
-236.106
-226.346
-216.762
-207.368
-198.181
-189.213
-180.475
-171.978
-163.726
-155.725
-147.98
-140.492
-133.264
-126.296
-119.588
-113.139
-106.946
-101.006
-95.3167
-89.8729
-84.6703
-79.7037
-74.9676
-70.4563
-66.1635
-62.083
-58.2082
-54.5326
-51.0492
-47.7514
-44.6322
-41.6849
-38.9025
-36.2783
-33.8055
-31.4777
-29.2882
-27.2307
-25.299
-23.487
-21.7887
-20.1984
-18.7105
-17.3195
-16.0204
-14.808
-13.6775
-12.6243
-11.6438
-10.7319
-9.88437
-9.09734
-8.3671
-7.69009
-7.06295
-6.48246
-5.94559
-5.44946
-4.99135
-4.56868
-4.17904
-3.82013
-3.48979
-3.18602
-2.9069
-2.65066
-2.41562
-2.20023
-2.00303
-1.82266
-1.65786
-1.50744
-1.37031
-1.24546
-1.13195
-1.0289
-0.935533
-0.851096
-0.774919
-0.706386
-0.644932
-0.590046
-0.541268
-0.49818
-0.460414
-0.427641
-0.399575
-0.375969
-0.356611
-0.34133
-0.329988
-0.322484
-0.318748
-321.869
-311.073
-300.262
-289.475
-278.744
-268.103
-257.578
-247.193
-236.975
-226.941
-217.106
-207.487
-198.098
-188.95
-180.053
-171.414
-163.038
-154.928
-147.089
-139.522
-132.227
-125.204
-118.451
-111.968
-105.749
-99.7925
-94.0931
-88.6462
-83.4464
-78.4879
-73.7647
-69.2704
-64.9982
-60.9415
-57.0933
-53.4464
-49.9937
-46.7281
-43.6423
-40.7292
-37.9818
-35.393
-32.9558
-30.6635
-28.5094
-26.487
-24.5899
-22.8118
-21.1468
-19.589
-18.1328
-16.7727
-15.5034
-14.3198
-13.2171
-12.1906
-11.2358
-10.3485
-9.52453
-8.76
-8.0512
-7.3946
-6.78686
-6.22478
-5.70535
-5.22573
-4.78322
-4.37527
-3.99951
-3.65367
-3.33563
-3.0434
-2.77512
-2.52905
-2.30355
-2.09709
-1.90825
-1.73571
-1.57823
-1.43466
-1.30394
-1.1851
-1.07722
-0.979464
-0.891062
-0.811308
-0.739556
-0.675216
-0.617754
-0.566685
-0.521574
-0.482034
-0.447722
-0.418339
-0.393624
-0.373357
-0.357358
-0.345484
-0.337627
-0.333716
-336.226
-324.948
-313.655
-302.386
-291.177
-280.062
-269.067
-258.219
-247.545
-237.063
-226.79
-216.742
-206.934
-197.378
-188.084
-179.06
-170.31
-161.839
-153.65
-145.745
-138.125
-130.788
-123.735
-116.962
-110.466
-104.244
-98.2901
-92.6002
-87.1684
-81.9888
-77.0549
-72.3601
-67.8975
-63.6598
-59.6399
-55.8303
-52.2236
-48.8123
-45.5889
-42.5459
-39.6759
-36.9716
-34.4258
-32.0312
-29.7811
-27.6684
-25.6867
-23.8293
-22.0901
-20.4628
-18.9416
-17.5208
-16.1949
-14.9585
-13.8066
-12.7344
-11.737
-10.8101
-9.94937
-9.15073
-8.41032
-7.72444
-7.08958
-6.50243
-5.95984
-5.45882
-4.99657
-4.57043
-4.17791
-3.81664
-3.48441
-3.17915
-2.89891
-2.64186
-2.4063
-2.19063
-1.99337
-1.81313
-1.64862
-1.49865
-1.36211
-1.23796
-1.12527
-1.02315
-0.930808
-0.847497
-0.772544
-0.705335
-0.645309
-0.591962
-0.544839
-0.503535
-0.467693
-0.436999
-0.411182
-0.390011
-0.373299
-0.360895
-0.352687
-0.348602
-350.5
-338.743
-326.971
-315.224
-303.539
-291.951
-280.49
-269.181
-258.054
-247.127
-236.418
-225.943
-215.719
-205.758
-196.069
-186.661
-177.54
-168.709
-160.173
-151.932
-143.988
-136.341
-128.988
-121.927
-115.156
-108.669
-102.463
-96.5313
-90.869
-85.4695
-80.3261
-75.432
-70.7799
-66.3624
-62.1718
-58.2005
-54.4407
-50.8846
-47.5243
-44.3521
-41.3603
-38.5412
-35.8873
-33.3911
-31.0454
-28.843
-26.7772
-24.841
-23.0279
-21.3315
-19.7458
-18.2646
-16.8824
-15.5936
-14.3928
-13.275
-12.2353
-11.269
-10.3717
-9.53921
-8.76737
-8.05236
-7.39056
-6.77848
-6.21285
-5.69056
-5.20869
-4.76446
-4.35527
-3.97866
-3.63233
-3.31412
-3.02198
-2.75402
-2.50846
-2.28363
-2.078
-1.8901
-1.71861
-1.56227
-1.41993
-1.29052
-1.17304
-1.06659
-0.970324
-0.883476
-0.805342
-0.735279
-0.672705
-0.617093
-0.567969
-0.524912
-0.487549
-0.455552
-0.428638
-0.406569
-0.389147
-0.376216
-0.36766
-0.363401
-364.687
-352.455
-340.206
-327.983
-315.825
-303.769
-291.843
-280.077
-268.5
-257.13
-245.987
-235.089
-224.451
-214.086
-204.006
-194.217
-184.726
-175.538
-166.656
-158.082
-149.817
-141.859
-134.209
-126.863
-119.817
-113.068
-106.61
-100.439
-94.5471
-88.9291
-83.5775
-78.4853
-73.6449
-69.0485
-64.6884
-60.5563
-56.6443
-52.9442
-49.448
-46.1474
-43.0345
-40.1012
-37.3399
-34.7427
-32.302
-30.0105
-27.861
-25.8465
-23.96
-22.195
-20.545
-19.0039
-17.5658
-16.2247
-14.9754
-13.8123
-12.7305
-11.7252
-10.7916
-9.92534
-9.12225
-8.37831
-7.68971
-7.05286
-6.46433
-5.92091
-5.41953
-4.95732
-4.53156
-4.13971
-3.77936
-3.44826
-3.1443
-2.86549
-2.60999
-2.37607
-2.16211
-1.96661
-1.78818
-1.62551
-1.47741
-1.34276
-1.22052
-1.10976
-1.0096
-0.919238
-0.837941
-0.765042
-0.699935
-0.642072
-0.59096
-0.54616
-0.507284
-0.473992
-0.445989
-0.423026
-0.404899
-0.391445
-0.382543
-0.378111
-378.784
-366.079
-353.357
-340.662
-328.034
-315.511
-303.125
-290.904
-278.879
-267.07
-255.496
-244.176
-233.127
-222.362
-211.892
-201.725
-191.867
-182.324
-173.098
-164.193
-155.608
-147.343
-139.397
-131.767
-124.449
-117.439
-110.731
-104.321
-98.202
-92.3667
-86.8083
-81.5193
-76.4917
-71.7177
-67.1889
-62.8972
-58.834
-54.9909
-51.3594
-47.9313
-44.698
-41.6514
-38.7833
-36.0857
-33.5507
-31.1706
-28.938
-26.8456
-24.8862
-23.0529
-21.3392
-19.7386
-18.2448
-16.8519
-15.5543
-14.3463
-13.2227
-12.1784
-11.2087
-10.309
-9.47488
-8.70218
-7.98697
-7.32549
-6.71422
-6.14979
-5.62903
-5.14895
-4.70674
-4.29974
-3.92546
-3.58156
-3.26585
-2.97626
-2.71089
-2.46792
-2.24569
-2.04263
-1.8573
-1.68835
-1.53452
-1.39466
-1.26771
-1.15266
-1.04863
-0.954773
-0.870333
-0.794616
-0.726992
-0.666893
-0.613805
-0.567273
-0.526894
-0.492315
-0.46323
-0.439379
-0.420552
-0.406578
-0.397331
-0.392728
-392.788
-379.613
-366.421
-353.256
-340.161
-327.176
-314.331
-301.659
-289.189
-276.944
-264.942
-253.204
-241.746
-230.583
-219.726
-209.183
-198.961
-189.065
-179.498
-170.263
-161.361
-152.791
-144.551
-136.638
-129.05
-121.78
-114.825
-108.178
-101.833
-95.7816
-90.0177
-84.5331
-79.3197
-74.3691
-69.673
-65.2225
-61.0091
-57.0239
-53.2582
-49.7033
-46.3505
-43.1913
-40.2171
-37.4198
-34.7911
-32.323
-30.0079
-27.8381
-25.8062
-23.9052
-22.1281
-20.4683
-18.9193
-17.475
-16.1293
-14.8766
-13.7115
-12.6287
-11.6231
-10.6901
-9.82517
-9.02391
-8.28225
-7.59632
-6.96245
-6.37715
-5.83714
-5.33931
-4.88075
-4.4587
-4.07059
-3.71398
-3.38659
-3.0863
-2.81111
-2.55916
-2.32871
-2.11815
-1.92597
-1.75077
-1.59125
-1.44623
-1.31457
-1.19528
-1.0874
-0.990072
-0.90251
-0.823994
-0.753871
-0.691549
-0.636498
-0.588246
-0.546375
-0.510517
-0.480356
-0.455624
-0.4361
-0.42161
-0.412021
-0.407248
-406.695
-393.054
-379.394
-365.764
-352.205
-338.76
-325.461
-312.339
-299.428
-286.749
-274.323
-262.169
-250.305
-238.747
-227.505
-216.589
-206.005
-195.759
-185.853
-176.291
-167.074
-158.2
-149.668
-141.476
-133.619
-126.092
-118.891
-112.008
-105.438
-99.1728
-93.2048
-87.526
-82.1281
-77.0022
-72.1398
-67.5318
-63.1692
-59.0429
-55.1439
-51.4631
-47.9916
-44.7205
-41.6411
-38.7447
-36.0229
-33.4675
-31.0703
-28.8237
-26.7199
-24.7516
-22.9116
-21.193
-19.5892
-18.0937
-16.7004
-15.4034
-14.197
-13.0758
-12.0347
-11.0686
-10.173
-9.34341
-8.57549
-7.86528
-7.20896
-6.60294
-6.04381
-5.52835
-5.05356
-4.61657
-4.21471
-3.84547
-3.5065
-3.19557
-2.91064
-2.64977
-2.41117
-2.19315
-1.99416
-1.81276
-1.6476
-1.49743
-1.36112
-1.2376
-1.1259
-1.02513
-0.934465
-0.853169
-0.780563
-0.716034
-0.659035
-0.609074
-0.56572
-0.528593
-0.497364
-0.471756
-0.451541
-0.436538
-0.42661
-0.421668
-420.502
-406.398
-392.274
-378.181
-364.162
-350.26
-336.509
-322.943
-309.593
-296.484
-283.636
-271.069
-258.803
-246.852
-235.229
-223.942
-212.999
-202.404
-192.163
-182.276
-172.746
-163.571
-154.749
-146.279
-138.155
-130.373
-122.927
-115.811
-109.017
-102.54
-96.369
-90.4974
-84.9162
-79.6163
-74.5888
-69.8244
-65.3137
-61.0473
-57.0159
-53.2102
-49.6209
-46.2387
-43.0547
-40.06
-37.2458
-34.6036
-32.1251
-29.8022
-27.627
-25.5919
-23.6894
-21.9125
-20.2542
-18.7079
-17.2673
-15.9263
-14.6789
-13.5197
-12.4432
-11.4444
-10.5184
-9.6606
-8.86662
-8.13229
-7.4537
-6.8271
-6.24898
-5.71603
-5.22512
-4.7733
-4.3578
-3.97602
-3.62554
-3.30406
-3.00945
-2.73973
-2.49302
-2.2676
-2.06186
-1.8743
-1.70353
-1.54827
-1.40733
-1.27961
-1.16412
-1.05993
-0.96619
-0.882134
-0.807062
-0.740343
-0.681409
-0.629752
-0.584926
-0.546538
-0.51425
-0.487772
-0.466871
-0.451358
-0.441093
-0.435984
-434.205
-419.641
-405.057
-390.504
-376.029
-361.674
-347.475
-333.466
-319.682
-306.146
-292.878
-279.902
-267.236
-254.896
-242.894
-231.24
-219.94
-209
-198.425
-188.216
-178.375
-168.901
-159.792
-151.046
-142.657
-134.621
-126.933
-119.585
-112.57
-105.881
-99.5094
-93.4464
-87.6833
-82.2108
-77.0194
-72.0997
-67.442
-63.0367
-58.8739
-54.9442
-51.2378
-47.7455
-44.4577
-41.3654
-38.4595
-35.7313
-33.172
-30.7734
-28.5273
-26.4258
-24.4614
-22.6265
-20.9142
-19.3176
-17.83
-16.4453
-15.1573
-13.9603
-12.8487
-11.8173
-10.8612
-9.97541
-9.15556
-8.3973
-7.69659
-7.04958
-6.45262
-5.9023
-5.39539
-4.92884
-4.4998
-4.10559
-3.74368
-3.41173
-3.10752
-2.82901
-2.57426
-2.3415
-2.12905
-1.93538
-1.75904
-1.59872
-1.45319
-1.32131
-1.20206
-1.09447
-0.997676
-0.91088
-0.833363
-0.764469
-0.703614
-0.650274
-0.603988
-0.564349
-0.531008
-0.503668
-0.482086
-0.466067
-0.455468
-0.450192
-447.801
-432.781
-417.74
-402.732
-387.803
-372.999
-358.355
-343.908
-329.692
-315.732
-302.049
-288.667
-275.604
-262.878
-250.5
-238.48
-226.826
-215.544
-204.638
-194.11
-183.96
-174.19
-164.796
-155.775
-147.124
-138.836
-130.907
-123.329
-116.095
-109.196
-102.625
-96.3724
-90.4289
-84.785
-79.4311
-74.3573
-69.5538
-65.0104
-60.7174
-56.6646
-52.8422
-49.2405
-45.8498
-42.6606
-39.6638
-36.8501
-34.2107
-31.737
-29.4205
-27.2533
-25.2273
-23.335
-21.5691
-19.9224
-18.3883
-16.9602
-15.6319
-14.3974
-13.251
-12.1874
-11.2013
-10.2878
-9.44223
-8.66024
-7.93759
-7.27031
-6.65467
-6.08712
-5.56433
-5.08318
-4.6407
-4.23414
-3.86091
-3.51856
-3.20483
-2.91759
-2.65487
-2.41482
-2.19572
-1.99598
-1.81412
-1.64878
-1.49869
-1.36269
-1.2397
-1.12874
-1.02892
-0.939403
-0.859458
-0.788407
-0.725646
-0.670636
-0.6229
-0.582021
-0.547636
-0.51944
-0.497181
-0.480661
-0.46973
-0.464289
-461.286
-445.814
-430.32
-414.86
-399.481
-384.231
-369.147
-354.265
-339.62
-325.24
-311.145
-297.36
-283.904
-270.794
-258.043
-245.662
-233.657
-222.035
-210.8
-199.955
-189.5
-179.435
-169.758
-160.466
-151.554
-143.017
-134.849
-127.043
-119.591
-112.485
-105.716
-99.2746
-93.1521
-87.3382
-81.8231
-76.5965
-71.6483
-66.9682
-62.5458
-58.371
-54.4335
-50.7233
-47.2305
-43.9453
-40.8582
-37.9598
-35.2409
-32.6927
-30.3065
-28.074
-25.987
-24.0377
-22.2186
-20.5224
-18.9421
-17.471
-16.1026
-14.831
-13.6501
-12.5544
-11.5386
-10.5976
-9.72658
-8.92104
-8.17663
-7.48926
-6.85507
-6.27043
-5.7319
-5.23626
-4.78046
-4.36165
-3.97718
-3.62452
-3.30134
-3.00545
-2.73482
-2.48754
-2.26184
-2.05609
-1.86876
-1.69844
-1.54383
-1.40373
-1.27703
-1.16273
-1.0599