/*--------------------------------*- C++ -*----------------------------------*\
| =========                 |                                                 |
| \\      /  F ield         | OpenFOAM: The Open Source CFD Toolbox           |
|  \\    /   O peration     | Version:  2406                                  |
|   \\  /    A nd           | Website:  www.openfoam.com                      |
|    \\/     M anipulation  |                                                 |
\*---------------------------------------------------------------------------*/
FoamFile
{
    version     2.0;
    format      ascii;
    arch        "LSB;label=32;scalar=64";
    class       volScalarField;
    location    "30";
    object      gradTy;
}
// * * * * * * * * * * * * * * * * * * * * * * * * * * * * * * * * * * * * * //

dimensions      [0 -1 0 1 0 0 0];

internalField   nonuniform List<scalar> 
20000
(
125.669
113.94
103.135
93.1993
84.0814
75.7297
68.0945
61.1271
54.7815
49.0132
43.7793
39.0391
34.7542
30.8882
27.4066
24.2771
21.4691
18.9544
16.7065
14.7007
12.9143
11.3262
9.91701
8.66881
7.56525
6.59134
5.7334
4.97899
4.3168
3.7366
3.22915
2.78611
2.39999
2.06407
1.77233
1.51941
1.30053
1.11142
0.94832
0.807893
0.687192
0.583621
0.494898
0.419021
0.354239
0.299019
0.252028
0.212105
0.17824
0.149562
0.125313
0.104843
0.0875904
0.0730713
0.0608719
0.0506372
0.0420641
0.0348935
0.0289051
0.0239114
0.0197534
0.0162962
0.013426
0.0110465
0.00907664
0.00744822
0.00610395
0.00499581
0.00408357
0.00333365
0.00271799
0.00221324
0.00179997
0.00146206
0.00118613
0.000961096
0.000777814
0.000628727
0.000507608
0.000409335
0.000329697
0.000265239
0.000213129
0.000171052
0.000137114
0.00010977
8.77606e-05
7.00602e-05
5.58346e-05
4.44055e-05
3.52219e-05
2.78359e-05
2.18834e-05
1.70672e-05
1.31443e-05
9.91434e-06
7.21023e-06
4.89072e-06
2.8331e-06
9.27702e-07
125.638
113.912
103.109
93.1763
84.0607
75.711
68.0776
61.112
54.7681
49.0011
43.7684
39.0294
34.7456
30.8806
27.3999
24.2711
21.4639
18.9498
16.7024
14.6971
12.9111
11.3234
9.91456
8.66667
7.56338
6.58971
5.73199
4.97776
4.31573
3.73568
3.22835
2.78542
2.39939
2.06356
1.7719
1.51904
1.30021
1.11115
0.948087
0.807694
0.687023
0.583477
0.494776
0.418918
0.354152
0.298946
0.251966
0.212052
0.178196
0.149525
0.125283
0.104818
0.0875689
0.0730534
0.060857
0.0506248
0.0420538
0.034885
0.0288981
0.0239056
0.0197486
0.0162923
0.0134227
0.0110438
0.00907443
0.00744641
0.00610247
0.0049946
0.00408259
0.00333284
0.00271733
0.00221271
0.00179954
0.00146171
0.00118584
0.000960867
0.000777629
0.000628578
0.000507488
0.000409239
0.00032962
0.000265176
0.000213079
0.000171012
0.000137082
0.000109745
8.77404e-05
7.00441e-05
5.58218e-05
4.43953e-05
3.52139e-05
2.78297e-05
2.18785e-05
1.70635e-05
1.31415e-05
9.91218e-06
7.20873e-06
4.88968e-06
2.83251e-06
9.27503e-07
125.576
113.856
103.058
93.1303
84.0192
75.6736
68.0439
61.0819
54.7411
48.9769
43.7468
39.0101
34.7285
30.8654
27.3864
24.2591
21.4533
18.9404
16.6941
14.6898
12.9047
11.3178
9.90966
8.66239
7.55965
6.58646
5.72916
4.9753
4.3136
3.73383
3.22676
2.78404
2.39821
2.06254
1.77102
1.51829
1.29957
1.1106
0.947619
0.807296
0.686684
0.58319
0.494532
0.418712
0.353977
0.298799
0.251842
0.211948
0.178109
0.149451
0.125221
0.104766
0.0875259
0.0730175
0.0608271
0.0506
0.0420332
0.0348679
0.0288839
0.0238939
0.0197389
0.0162843
0.0134162
0.0110384
0.00907001
0.00744278
0.00609951
0.00499217
0.0040806
0.00333123
0.00271602
0.00221164
0.00179867
0.00146101
0.00118527
0.000960405
0.000777256
0.000628276
0.000507246
0.000409043
0.000329463
0.00026505
0.000212978
0.000170931
0.000137017
0.000109693
8.76992e-05
7.00113e-05
5.57957e-05
4.43747e-05
3.51976e-05
2.78168e-05
2.18685e-05
1.70557e-05
1.31355e-05
9.90772e-06
7.2055e-06
4.88752e-06
2.8313e-06
9.27147e-07
125.483
113.771
102.982
93.0613
83.957
75.6176
67.9936
61.0367
54.7005
48.9406
43.7144
38.9812
34.7028
30.8425
27.3661
24.2412
21.4374
18.9264
16.6818
14.6789
12.8952
11.3094
9.90232
8.65597
7.55405
6.58158
5.72491
4.97162
4.31041
3.73107
3.22437
2.78198
2.39644
2.06101
1.76971
1.51717
1.2986
1.10978
0.946918
0.806699
0.686176
0.582759
0.494167
0.418402
0.353716
0.298578
0.251656
0.211792
0.177977
0.149341
0.125129
0.104689
0.0874614
0.0729637
0.0607823
0.0505627
0.0420022
0.0348422
0.0288627
0.0238763
0.0197244
0.0162724
0.0134063
0.0110303
0.00906337
0.00743734
0.00609505
0.00498853
0.00407763
0.0033288
0.00271404
0.00221003
0.00179737
0.00145995
0.00118442
0.000959711
0.000776695
0.000627824
0.000506881
0.00040875
0.000329226
0.000264861
0.000212826
0.00017081
0.00013692
0.000109615
8.76372e-05
6.9962e-05
5.57565e-05
4.43436e-05
3.5173e-05
2.77974e-05
2.18532e-05
1.70438e-05
1.31264e-05
9.9009e-06
7.20055e-06
4.8842e-06
2.82938e-06
9.26492e-07
125.359
113.659
102.88
92.9694
83.874
75.5429
67.9264
60.9764
54.6465
48.8922
43.6712
38.9427
34.6685
30.8121
27.3391
24.2172
21.4162
18.9077
16.6653
14.6644
12.8824
11.2983
9.89253
8.64742
7.54659
6.57508
5.71926
4.96671
4.30615
3.72738
3.22118
2.77924
2.39407
2.05898
1.76796
1.51567
1.29732
1.10868
0.945984
0.805903
0.685499
0.582184
0.493679
0.41799
0.353367
0.298283
0.251408
0.211583
0.177802
0.149194
0.125005
0.104586
0.0873753
0.0728919
0.0607225
0.0505131
0.041961
0.034808
0.0288344
0.0238529
0.0197051
0.0162564
0.0133932
0.0110195
0.00905451
0.00743008
0.0060891
0.00498366
0.00407366
0.00332556
0.0027114
0.00220788
0.00179562
0.00145853
0.00118327
0.000958783
0.000775945
0.000627219
0.000506393
0.000408357
0.000328911
0.000264607
0.000212623
0.000170646
0.00013679
0.000109511
8.75541e-05
6.98958e-05
5.57039e-05
4.43018e-05
3.51399e-05
2.77714e-05
2.18328e-05
1.7028e-05
1.31143e-05
9.89175e-06
7.19395e-06
4.87972e-06
2.82678e-06
9.25637e-07
125.204
113.519
102.753
92.8546
83.7704
75.4496
67.8425
60.901
54.5789
48.8318
43.6172
38.8946
34.6257
30.774
27.3053
24.1873
21.3897
18.8843
16.6447
14.6463
12.8665
11.2843
9.88031
8.63674
7.53726
6.56696
5.71219
4.96057
4.30083
3.72278
3.2172
2.7758
2.39111
2.05643
1.76578
1.5138
1.29572
1.10731
0.944816
0.804908
0.684653
0.581465
0.49307
0.417474
0.352931
0.297916
0.251098
0.211322
0.177583
0.14901
0.124851
0.104457
0.0872678
0.0728022
0.0606478
0.0504509
0.0419094
0.0347653
0.0287989
0.0238236
0.0196809
0.0162365
0.0133768
0.011006
0.00904343
0.00742099
0.00608166
0.00497758
0.00406868
0.0033215
0.0027081
0.00220519
0.00179344
0.00145676
0.00118183
0.000957621
0.000775006
0.00062646
0.000505782
0.000407865
0.000328514
0.000264289
0.000212368
0.000170442
0.000136626
0.00010938
8.74496e-05
6.98126e-05
5.56377e-05
4.42493e-05
3.50983e-05
2.77386e-05
2.18071e-05
1.7008e-05
1.30989e-05
9.88019e-06
7.18553e-06
4.87405e-06
2.8235e-06
9.24583e-07
125.019
113.35
102.601
92.7168
83.6461
75.3377
67.7418
60.8107
54.4979
48.7594
43.5525
38.8369
34.5743
30.7284
27.2648
24.1514
21.358
18.8563
16.62
14.6246
12.8474
11.2676
9.86564
8.62392
7.52608
6.55721
5.70372
4.95321
4.29445
3.71726
3.21243
2.77169
2.38756
2.05338
1.76316
1.51155
1.2938
1.10567
0.943415
0.803715
0.683639
0.580603
0.49234
0.416856
0.352408
0.297474
0.250726
0.211009
0.17732
0.14879
0.124667
0.104303
0.0871387
0.0726946
0.0605582
0.0503764
0.0418475
0.0347139
0.0287564
0.0237885
0.0196519
0.0162126
0.0133571
0.0109898
0.00903012
0.00741008
0.00607272
0.00497027
0.00406271
0.00331663
0.00270413
0.00220197
0.00179082
0.00145463
0.00118011
0.000956224
0.000773876
0.000625548
0.000505046
0.000407272
0.000328038
0.000263906
0.00021206
0.000170196
0.000136429
0.000109223
8.73239e-05
6.97124e-05
5.55579e-05
4.4186e-05
3.50482e-05
2.76991e-05
2.17761e-05
1.69838e-05
1.30803e-05
9.86617e-06
7.17538e-06
4.86713e-06
2.81951e-06
9.23273e-07
124.802
113.154
102.423
92.5562
83.5012
75.2071
67.6245
60.7053
54.4035
48.6749
43.477
38.7697
34.5144
30.6751
27.2176
24.1096
21.321
18.8236
16.5912
14.5992
12.8252
11.248
9.84855
8.60897
7.51304
6.54585
5.69383
4.94463
4.28701
3.71082
3.20687
2.76688
2.38343
2.04983
1.76011
1.50893
1.29156
1.10376
0.941782
0.802324
0.682455
0.579598
0.491487
0.416134
0.351798
0.29696
0.250293
0.210644
0.177013
0.148532
0.124451
0.104122
0.0869882
0.0725691
0.0604536
0.0502894
0.0417753
0.0346541
0.0287069
0.0237475
0.019618
0.0161846
0.0133341
0.0109709
0.00901459
0.00739734
0.00606229
0.00496173
0.00405574
0.00331095
0.0026995
0.0021982
0.00178775
0.00145215
0.00117809
0.000954593
0.000772557
0.000624483
0.000504187
0.00040658
0.000327481
0.000263459
0.000211701
0.000169908
0.000136198
0.000109038
8.71768e-05
6.95951e-05
5.54646e-05
4.41119e-05
3.49895e-05
2.76527e-05
2.17397e-05
1.69555e-05
1.30585e-05
9.84979e-06
7.16345e-06
4.85907e-06
2.81484e-06
9.2174e-07
124.555
112.929
102.22
92.3727
83.3357
75.058
67.4904
60.5849
54.2957
48.5784
43.3909
38.6928
34.446
30.6143
27.1636
24.0618
21.2787
18.7863
16.5583
14.5703
12.7997
11.2257
9.82902
8.5919
7.49814
6.53287
5.68255
4.93483
4.27851
3.70346
3.20051
2.7614
2.37871
2.04577
1.75662
1.50594
1.289
1.10157
0.939916
0.800734
0.681103
0.57845
0.490514
0.41531
0.351102
0.296372
0.249797
0.210227
0.176663
0.148239
0.124205
0.103916
0.0868162
0.0724256
0.0603342
0.0501901
0.0416928
0.0345856
0.0286502
0.0237006
0.0195793
0.0161527
0.0133078
0.0109493
0.00899684
0.00738278
0.00605036
0.00495198
0.00404777
0.00330444
0.0026942
0.00219388
0.00178425
0.0014493
0.00117579
0.000952726
0.000771047
0.000623264
0.000503203
0.000405788
0.000326843
0.000262946
0.00021129
0.000169578
0.000135934
0.000108827
8.70082e-05
6.94606e-05
5.53576e-05
4.40269e-05
3.49222e-05
2.75997e-05
2.16981e-05
1.6923e-05
1.30336e-05
9.83096e-06
7.14979e-06
4.84981e-06
2.8095e-06
9.20009e-07
124.276
112.677
101.992
92.1664
83.1496
74.8904
67.3397
60.4497
54.1744
48.4699
43.294
38.6064
34.3691
30.5459
27.1029
24.008
21.2312
18.7443
16.5213
14.5377
12.7711
11.2007
9.80707
8.57272
7.48139
6.51828
5.66986
4.92381
4.26896
3.69519
3.19336
2.75523
2.37339
2.0412
1.7527
1.50258
1.28612
1.09911
0.937818
0.798947
0.679583
0.57716
0.48942
0.414384
0.350319
0.295711
0.24924
0.209759
0.176269
0.147908
0.123928
0.103685
0.0866228
0.0722643
0.0601998
0.0500784
0.0416
0.0345087
0.0285865
0.0236479
0.0195358
0.0161168
0.0132783
0.010925
0.00897687
0.0073664
0.00603694
0.004941
0.00403881
0.00329713
0.00268824
0.00218903
0.00178031
0.0014461
0.00117319
0.000950624
0.000769348
0.000621891
0.000502096
0.000404895
0.000326125
0.000262369
0.000210826
0.000169207
0.000135637
0.000108589
8.68182e-05
6.93091e-05
5.5237e-05
4.39311e-05
3.48463e-05
2.75397e-05
2.1651e-05
1.68864e-05
1.30053e-05
9.80973e-06
7.13436e-06
4.83936e-06
2.80342e-06
9.17999e-07
123.968
112.397
101.738
91.9374
82.9429
74.7043
67.1724
60.2994
54.0398
48.3495
43.1864
38.5105
34.2837
30.47
27.0356
23.9484
21.1784
18.6978
16.4802
14.5016
12.7394
11.1728
9.7827
8.55141
7.4628
6.50209
5.65577
4.91157
4.25835
3.68601
3.18543
2.74839
2.3675
2.03613
1.74834
1.49885
1.28293
1.09638
0.935489
0.796963
0.677896
0.575727
0.488205
0.413355
0.349449
0.294977
0.248622
0.209238
0.175832
0.147541
0.123621
0.103428
0.086408
0.0720852
0.0600506
0.0499543
0.0414969
0.0344232
0.0285157
0.0235894
0.0194875
0.016077
0.0132454
0.010898
0.00895469
0.0073482
0.00602204
0.00492881
0.00402884
0.003289
0.00268161
0.00218364
0.00177592
0.00144254
0.00117031
0.000948288
0.000767458
0.000620365
0.000500864
0.000403903
0.000325327
0.000261727
0.000210311
0.000168793
0.000135306
0.000108325
8.66067e-05
6.91404e-05
5.51027e-05
4.38244e-05
3.47618e-05
2.7473e-05
2.15986e-05
1.68455e-05
1.29739e-05
9.78605e-06
7.11715e-06
4.82767e-06
2.79666e-06
9.1579e-07
123.628
112.09
101.46
91.6856
82.7159
74.4998
66.9885
60.1344
53.8919
48.2171
43.0682
38.405
34.1898
30.3866
26.9616
23.8828
21.1204
18.6466
16.4351
14.4619
12.7045
11.1422
9.75591
8.528
7.44237
6.48428
5.64028
4.89812
4.24669
3.67592
3.17671
2.74087
2.36102
2.03055
1.74356
1.49475
1.27942
1.09338
0.932929
0.794782
0.676041
0.574152
0.486869
0.412224
0.348493
0.29417
0.247942
0.208666
0.175351
0.147138
0.123283
0.103145
0.0861719
0.0718882
0.0598866
0.0498179
0.0413836
0.0343293
0.0284379
0.023525
0.0194343
0.0160331
0.0132093
0.0108683
0.00893029
0.00732819
0.00600564
0.00491539
0.00401788
0.00328005
0.00267432
0.00217771
0.0017711
0.00143863
0.00116713
0.000945717
0.000765379
0.000618685
0.000499509
0.000402811
0.000324448
0.00026102
0.000209744
0.000168338
0.000134941
0.000108033
8.63738e-05
6.89547e-05
5.49548e-05
4.37068e-05
3.46686e-05
2.73994e-05
2.15408e-05
1.68005e-05
1.29393e-05
9.75995e-06
7.09817e-06
4.81483e-06
2.78922e-06
9.13358e-07
123.258
111.754
101.156
91.4113
82.4684
74.2769
66.788
59.9544
53.7306
48.0729
42.9393
38.2901
34.0875
30.2957
26.8809
23.8113
21.0572
18.5908
16.3859
14.4186
12.6665
11.1089
9.72672
8.50248
7.4201
6.46488
5.62341
4.88347
4.23399
3.66492
3.16721
2.73267
2.35395
2.02448
1.73834
1.49028
1.27559
1.09011
0.930139
0.792406
0.67402
0.572435
0.485413
0.410992
0.347452
0.293291
0.247201
0.208042
0.174827
0.146698
0.122915
0.102837
0.0859146
0.0716736
0.0597078
0.0496691
0.0412601
0.0342268
0.028353
0.0234549
0.0193764
0.0159853
0.01317
0.0108359
0.00890369
0.00730637
0.00598777
0.00490077
0.00400593
0.0032703
0.00266637
0.00217124
0.00176584
0.00143436
0.00116367
0.000942912
0.00076311
0.000616852
0.00049803
0.000401619
0.000323488
0.000260249
0.000209124
0.000167841
0.000134543
0.000107715
8.61194e-05
6.87518e-05
5.47932e-05
4.35785e-05
3.45668e-05
2.73191e-05
2.14777e-05
1.67513e-05
1.29014e-05
9.7314e-06
7.07744e-06
4.80076e-06
2.78108e-06
9.10705e-07
122.858
111.391
100.828
91.1144
82.2005
74.0357
66.5711
59.7597
53.5561
47.9167
42.7998
38.1658
33.9768
30.1973
26.7936
23.734
20.9889
18.5304
16.3327
14.3718
12.6254
11.0728
9.69513
8.47487
7.396
6.44389
5.60514
4.86761
4.22024
3.65302
3.15692
2.72379
2.34631
2.01791
1.7327
1.48544
1.27145
1.08657
0.927119
0.789833
0.671832
0.570577
0.483838
0.409658
0.346324
0.292339
0.246399
0.207368
0.17426
0.146222
0.122516
0.102504
0.085636
0.0714412
0.0595143
0.0495082
0.0411264
0.0341159
0.0282612
0.0233789
0.0193136
0.0159336
0.0131273
0.0108009
0.00887489
0.00728274
0.00596841
0.00488493
0.00399299
0.00325974
0.00265776
0.00216423
0.00176014
0.00142973
0.00115992
0.000939874
0.000760653
0.000614866
0.000496428
0.000400327
0.000322448
0.000259413
0.000208453
0.000167303
0.000134112
0.000107369
8.58437e-05
6.85318e-05
5.4618e-05
4.34392e-05
3.44565e-05
2.72319e-05
2.14092e-05
1.6698e-05
1.28604e-05
9.70043e-06
7.05492e-06
4.78552e-06
2.77225e-06
9.07807e-07
122.427
111.001
100.474
90.7951
81.9124
73.7762
66.3378
59.5503
53.3684
47.7488
42.6498
38.032
33.8577
30.0915
26.6997
23.6508
20.9153
18.4654
16.2755
14.3214
12.5811
11.034
9.66115
8.44516
7.37008
6.4213
5.5855
4.85055
4.20545
3.64022
3.14586
2.71425
2.33809
2.01083
1.72663
1.48023
1.26699
1.08276
0.923871
0.787066
0.669478
0.568578
0.482143
0.408223
0.345111
0.291315
0.245536
0.206641
0.17365
0.145711
0.122087
0.102145
0.0853363
0.0711912
0.059306
0.049335
0.0409826
0.0339966
0.0281624
0.0232972
0.0192461
0.0158779
0.0130815
0.0107631
0.00884389
0.00725731
0.00594757
0.00486788
0.00397906
0.00324837
0.0026485
0.00215669
0.00175401
0.00142475
0.00115588
0.000936603
0.000758006
0.000612728
0.000494702
0.000398937
0.000321329
0.000258513
0.00020773
0.000166723
0.000133647
0.000106998
8.55466e-05
6.82947e-05
5.44292e-05
4.32892e-05
3.43376e-05
2.7138e-05
2.13354e-05
1.66404e-05
1.28161e-05
9.66709e-06
7.03065e-06
4.76905e-06
2.76271e-06
9.04676e-07
121.966
110.583
100.096
90.4533
81.6041
73.4985
66.0881
59.3261
53.1675
47.569
42.4893
37.8888
33.7303
29.9782
26.5992
23.5618
20.8366
18.3959
16.2142
14.2675
12.5338
10.9925
9.62478
8.41337
7.34234
6.39713
5.56447
4.83229
4.18962
3.62652
3.13402
2.70403
2.32929
2.00327
1.72013
1.47466
1.26222
1.07869
0.920395
0.784105
0.666959
0.566439
0.480329
0.406687
0.343813
0.29022
0.244612
0.205864
0.172997
0.145163
0.121628
0.101761
0.0850155
0.0709236
0.0590831
0.0491496
0.0408286
0.0338689
0.0280566
0.0232097
0.0191739
0.0158183
0.0130324
0.0107227
0.00881071
0.00723009
0.00592527
0.00484963
0.00396414
0.0032362
0.00263857
0.00214861
0.00174744
0.00141942
0.00115155
0.0009331
0.000755172
0.000610438
0.000492854
0.000397447
0.000320129
0.000257548
0.000206955
0.000166101
0.000133149
0.000106599
8.52281e-05
6.80407e-05
5.42269e-05
4.31283e-05
3.421e-05
2.70372e-05
2.12563e-05
1.65787e-05
1.27686e-05
9.63126e-06
7.00462e-06
4.75138e-06
2.75249e-06
9.01335e-07
121.476
110.138
99.6931
90.0892
81.2756
73.2026
65.8221
59.0873
52.9535
47.3776
42.3183
37.7363
33.5945
29.8575
26.4921
23.4669
20.7527
18.3219
16.1489
14.2101
12.4833
10.9482
9.58604
8.37951
7.31279
6.37138
5.54208
4.81284
4.17275
3.61192
3.1214
2.69315
2.31991
1.99521
1.71321
1.46873
1.25715
1.07435
0.916691
0.78095
0.664276
0.56416
0.478397
0.405051
0.34243
0.289052
0.243628
0.205036
0.172301
0.144579
0.121139
0.101352
0.0846737
0.0706385
0.0588456
0.048952
0.0406645
0.0337328
0.0279439
0.0231165
0.0190968
0.0157548
0.01298
0.0106797
0.00877535
0.00720108
0.0059015
0.00483018
0.00394825
0.00322322
0.002628
0.00214
0.00174044
0.00141373
0.00114694
0.000929365
0.000752151
0.000607996
0.000490883
0.000395858
0.00031885
0.000256519
0.000206129
0.000165438
0.000132618
0.000106174
8.48885e-05
6.77697e-05
5.4011e-05
4.29567e-05
3.4074e-05
2.69298e-05
2.11718e-05
1.65129e-05
1.27179e-05
9.593e-06
6.97684e-06
4.73255e-06
2.74156e-06
8.97737e-07
120.955
109.666
99.2656
89.7029
80.9271
72.8887
65.5398
58.8339
52.7264
47.1744
42.1368
37.5745
33.4504
29.7295
26.3785
23.3663
20.6637
18.2433
16.0797
14.1492
12.4298
10.9013
9.54493
8.34358
7.28143
6.34406
5.51831
4.79221
4.15486
3.59643
3.10802
2.6816
2.30997
1.98665
1.70586
1.46243
1.25176
1.06974
0.912761
0.777602
0.661428
0.561742
0.476346
0.403315
0.340962
0.287813
0.242584
0.204158
0.171563
0.143959
0.12062
0.100917
0.084311
0.070336
0.0585936
0.0487424
0.0404904
0.0335884
0.0278242
0.0230175
0.0190151
0.0156873
0.0129245
0.010634
0.00873782
0.00717028
0.00587627
0.00480953
0.00393137
0.00320945
0.00261677
0.00213086
0.00173301
0.0014077
0.00114205
0.0009254
0.000748943
0.000605404
0.000488791
0.000394171
0.000317492
0.000255427
0.000205251
0.000164734
0.000132054
0.000105723
8.45277e-05
6.74818e-05
5.37816e-05
4.27744e-05
3.39294e-05
2.68156e-05
2.10821e-05
1.64429e-05
1.2664e-05
9.55244e-06
6.94733e-06
4.71253e-06
2.72998e-06
8.93963e-07
120.404
109.166
98.8136
89.2945
80.5586
72.5568
65.2414
58.566
52.4864
46.9596
41.9449
37.4034
33.2981
29.5941
26.2584
23.2599
20.5696
18.1602
16.0065
14.0847
12.3732
10.8516
9.50147
8.30559
7.24827
6.31518
5.49319
4.77039
4.13594
3.58006
3.09387
2.66939
2.29945
1.97761
1.6981
1.45577
1.24606
1.06487
0.908607
0.774062
0.658417
0.559185
0.474178
0.40148
0.339411
0.286504
0.241481
0.203229
0.170782
0.143304
0.120071
0.100458
0.0839275
0.0700161
0.0583271
0.0485208
0.0403063
0.0334357
0.0276977
0.0229129
0.0189287
0.015616
0.0128658
0.0105857
0.00869812
0.00713772
0.00584958
0.00478769
0.00391352
0.00319488
0.0026049
0.00212119
0.00172515
0.00140132
0.00113687
0.000921205
0.000745549
0.000602661
0.000486577
0.000392387
0.000316055
0.000254271
0.000204323
0.000163989
0.000131457
0.000105245
8.41459e-05
6.71771e-05
5.35389e-05
4.25814e-05
3.37764e-05
2.66947e-05
2.09871e-05
1.63689e-05
1.2607e-05
9.50943e-06
6.91605e-06
4.69131e-06
2.71768e-06
8.89944e-07
119.823
108.64
98.3372
88.864
80.1703
72.207
64.9269
58.2837
52.2333
46.7332
41.7427
37.2231
33.1376
29.4514
26.1318
23.1478
20.4704
18.0727
15.9293
14.0168
12.3135
10.7993
9.45567
8.26555
7.21333
6.28473
5.46671
4.74739
4.11601
3.5628
3.07895
2.65652
2.28837
1.96807
1.68991
1.44876
1.24005
1.05974
0.904227
0.770332
0.655244
0.55649
0.471893
0.399545
0.337775
0.285123
0.240317
0.20225
0.16996
0.142614
0.119493
0.0999745
0.0835233
0.0696789
0.0580463
0.0482871
0.0401122
0.0332747
0.0275644
0.0228026
0.0188376
0.0155409
0.0128039
0.0105348
0.00865628
0.00710338
0.00582145
0.00476467
0.00389471
0.00317952
0.00259238
0.002111
0.00171686
0.00139458
0.00113141
0.000916782
0.000741969
0.000599769
0.000484242
0.000390504
0.000314539
0.000253052
0.000203343
0.000163204
0.000130827
0.000104741
8.37431e-05
6.68556e-05
5.32828e-05
4.23777e-05
3.36149e-05
2.65671e-05
2.08868e-05
1.62907e-05
1.25468e-05
9.46403e-06
6.88304e-06
4.66892e-06
2.70473e-06
8.85692e-07
119.213
108.087
97.8366
88.4116
79.7621
71.8394
64.5963
57.987
51.9674
46.4953
41.5302
37.0336
32.9689
29.3015
25.9988
23.0299
20.3662
17.9807
15.8482
13.9455
12.2508
10.7443
9.40753
8.22347
7.17661
6.25274
5.43888
4.72322
4.09505
3.54466
3.06328
2.643
2.27672
1.95806
1.68131
1.44138
1.23374
1.05435
0.899625
0.766411
0.651909
0.553658
0.469492
0.397512
0.336056
0.283672
0.239094
0.20122
0.169095
0.141888
0.118885
0.0994659
0.0830984
0.0693244
0.057751
0.0480415
0.0399082
0.0331055
0.0274242
0.0226867
0.0187418
0.0154619
0.0127388
0.0104812
0.00861229
0.00706729
0.00579187
0.00474046
0.00387493
0.00316338
0.00257921
0.00210028
0.00170815
0.00138751
0.00112567
0.000912131
0.000738206
0.000596727
0.000481787
0.000388525
0.000312945
0.00025177
0.000202314
0.000162377
0.000130165
0.000104211
8.33194e-05
6.65175e-05
5.30134e-05
4.21636e-05
3.34451e-05
2.64329e-05
2.07814e-05
1.62085e-05
1.24835e-05
9.41629e-06
6.84832e-06
4.64541e-06
2.69109e-06
8.81217e-07
118.574
107.507
97.3118
87.9374
79.3343
71.4541
64.2498
57.676
51.6887
46.2459
41.3074
36.8349
32.7921
29.1443
25.8593
22.9064
20.257
17.8842
15.7632
13.8707
12.1851
10.6867
9.35707
8.17936
7.13812
6.2192
5.40971
4.69789
4.07309
3.52565
3.04685
2.62883
2.26451
1.94755
1.67229
1.43365
1.22712
1.04869
0.894801
0.762301
0.648414
0.550689
0.466974
0.39538
0.334254
0.282151
0.237812
0.200142
0.168188
0.141128
0.118248
0.0989327
0.082653
0.0689529
0.0574415
0.0477841
0.0396944
0.0329281
0.0272773
0.0225651
0.0186414
0.0153791
0.0126706
0.0104251
0.00856617
0.00702945
0.00576086
0.00471509
0.00385419
0.00314645
0.00256541
0.00208904
0.00169901
0.00138009
0.00111965
0.000907254
0.00073426
0.000593538
0.000479213
0.000386449
0.000311274
0.000250426
0.000201233
0.000161511
0.000129471
0.000103655
8.2875e-05
6.61628e-05
5.27308e-05
4.19389e-05
3.32669e-05
2.62921e-05
2.06707e-05
1.61222e-05
1.24171e-05
9.36616e-06
6.81187e-06
4.62068e-06
2.67675e-06
8.76543e-07
117.905
106.901
96.763
87.4415
78.8869
71.0512
63.8875
57.3507
51.3972
45.9851
41.0745
36.6272
32.6071
28.98
25.7135
22.7772
20.1427
17.7834
15.6743
13.7924
12.1164
10.6264
9.30431
8.13324
7.09787
6.18413
5.3792
4.6714
4.05012
3.50577
3.02967
2.614
2.25174
1.93657
1.66286
1.42557
1.2202
1.04278
0.889756
0.758003
0.644758
0.547584
0.464341
0.393151
0.33237
0.280561
0.236472
0.199013
0.16724
0.140332
0.117581
0.0983752
0.0821872
0.0685643
0.0571178
0.0475148
0.0394707
0.0327426
0.0271236
0.022438
0.0185364
0.0152924
0.0125992
0.0103664
0.00851793
0.00698987
0.00572843
0.00468854
0.00383249
0.00312874
0.00255098
0.00207729
0.00168945
0.00137232
0.00111335
0.000902152
0.000730131
0.000590201
0.000476519
0.000384277
0.000309525
0.000249019
0.000200103
0.000160604
0.000128744
0.000103073
8.24099e-05
6.57916e-05
5.2435e-05
4.17037e-05
3.30804e-05
2.61448e-05
2.05548e-05
1.60319e-05
1.23475e-05
9.31373e-06
6.77375e-06
4.59479e-06
2.6618e-06
8.71647e-07
117.208
106.268
96.1904
86.924
78.42
70.6307
63.5094
57.0113
51.093
45.713
40.8314
36.4105
32.4142
28.8085
25.5613
22.6424
20.0235
17.6781
15.5815
13.7108
12.0447
10.5636
9.24924
8.08511
7.05586
6.14753
5.34737
4.64375
4.02616
3.48503
3.01174
2.59853
2.23841
1.92511
1.65302
1.41713
1.21298
1.03661
0.884491
0.753518
0.640943
0.544344
0.461594
0.390825
0.330404
0.278901
0.235073
0.197836
0.166251
0.139502
0.116886
0.0977933
0.081701
0.0681588
0.05678
0.0472338
0.0392373
0.032549
0.0269633
0.0223053
0.0184268
0.015202
0.0125247
0.0103051
0.00846759
0.00694856
0.00569458
0.00466084
0.00380985
0.00311025
0.00253591
0.00206502
0.00167947
0.00136422
0.00110678
0.000896826
0.000725821
0.000586718
0.000473707
0.00038201
0.000307699
0.00024755
0.000198923
0.000159657
0.000127985
0.000102466
8.19243e-05
6.5404e-05
5.21261e-05
4.14581e-05
3.28856e-05
2.59909e-05
2.04339e-05
1.59375e-05
1.22749e-05
9.25894e-06
6.73392e-06
4.5678e-06
2.64615e-06
8.66507e-07
116.481
105.609
95.594
86.3851
77.9338
70.1928
63.1157
56.6578
50.7762
45.4295
40.5783
36.1847
32.2132
28.6299
25.4028
22.5021
19.8994
17.5685
15.4849
13.6258
11.97
10.4981
9.1919
8.03498
7.01212
6.10942
5.31421
4.61496
4.00119
3.46342
2.99307
2.58242
2.22454
1.91318
1.64277
1.40835
1.20546
1.03018
0.879008
0.748847
0.63697
0.54097
0.458733
0.388403
0.328356
0.277172
0.233616
0.19661
0.16522
0.138638
0.116161
0.0971872
0.0811947
0.0677364
0.0564282
0.0469411
0.0389942
0.0323473
0.0267962
0.0221671
0.0183127
0.0151079
0.0124471
0.0102413
0.00841515
0.00690553
0.00565931
0.00463198
0.00378626
0.003091
0.00252021
0.00205224
0.00166908
0.00135578
0.00109993
0.000891278
0.000721332
0.000583089
0.000470778
0.000379648
0.000305796
0.00024602
0.000197694
0.00015867
0.000127194
0.000101833
8.14183e-05
6.50001e-05
5.18043e-05
4.12022e-05
3.26827e-05
2.58305e-05
2.03078e-05
1.58392e-05
1.21992e-05
9.20185e-06
6.69239e-06
4.53965e-06
2.62983e-06
8.61156e-07
115.725
104.924
94.974
85.8248
77.4284
69.7375
62.7063
56.2904
50.4469
45.1349
40.3151
35.95
32.0043
28.4442
25.2381
22.3561
19.7703
17.4546
15.3845
13.5374
11.8924
10.43
9.13229
7.98287
6.96664
6.0698
5.27975
4.58503
3.97525
3.44096
2.97366
2.56568
2.21011
1.90077
1.63212
1.39921
1.19765
1.0235
0.873308
0.743991
0.632839
0.537462
0.455758
0.385884
0.326226
0.275375
0.232101
0.195335
0.164149
0.137739
0.115408
0.0965572
0.0806684
0.0672973
0.0560624
0.0466369
0.0387414
0.0321376
0.0266225
0.0220235
0.018194
0.01501
0.0123665
0.0101749
0.00836063
0.00686079
0.00562265
0.00460198
0.00376174
0.00307098
0.00250389
0.00203895
0.00165827
0.001347
0.00109281
0.000885508
0.000716663
0.000579315
0.000467731
0.000377192
0.000303818
0.000244428
0.000196415
0.000157644
0.000126372
0.000101174
8.08921e-05
6.458e-05
5.14696e-05
4.0936e-05
3.24715e-05
2.56637e-05
2.01767e-05
1.5737e-05
1.21204e-05
9.14249e-06
6.64921e-06
4.51031e-06
2.61283e-06
8.55593e-07
114.941
104.214
94.3306
85.2434
76.9038
69.2651
62.2815
55.909
50.1052
44.8291
40.042
35.7065
31.7875
28.2515
25.0671
22.2047
19.6364
17.3363
15.2803
13.4457
11.8118
10.3593
9.07042
7.92879
6.91945
6.02868
5.24398
4.55397
3.94832
3.41765
2.95352
2.5483
2.19514
1.8879
1.62107
1.38974
1.18953
1.01657
0.867392
0.738952
0.628553
0.533822
0.452671
0.383271
0.324017
0.27351
0.230529
0.194012
0.163038
0.136806
0.114627
0.0959032
0.0801221
0.0668416
0.0556827
0.0463211
0.0384791
0.03192
0.0264423
0.0218744
0.0180708
0.0149084
0.0122828
0.010106
0.00830404
0.00681435
0.0055846
0.00457083
0.00373628
0.0030502
0.00248695
0.00202515
0.00164705
0.00133789
0.00108542
0.00087952
0.000711817
0.000575398
0.000464569
0.000374642
0.000301764
0.000242776
0.000195088
0.000156579
0.000125518
0.000100491
8.03458e-05
6.41439e-05
5.11221e-05
4.06596e-05
3.22524e-05
2.54905e-05
2.00406e-05
1.56308e-05
1.20387e-05
9.08084e-06
6.60439e-06
4.47995e-06
2.59524e-06
8.49854e-07
114.129
103.477
93.6639
84.6409
76.3603
68.7755
61.8413
55.5139
49.751
44.5123
39.759
35.4541
31.5628
28.0518
24.8899
22.0477
19.4976
17.2138
15.1723
13.3507
11.7284
10.2861
9.00632
7.87275
6.87054
5.98607
5.20692
4.52179
3.92041
3.3935
2.93264
2.53029
2.17963
1.87455
1.60961
1.37992
1.18113
1.00939
0.861262
0.73373
0.624111
0.530049
0.449472
0.380562
0.321727
0.271577
0.2289
0.192641
0.161886
0.135839
0.113817
0.0952257
0.079556
0.0663693
0.0552894
0.0459938
0.0382073
0.0316946
0.0262555
0.0217199
0.0179432
0.0148031
0.012196
0.0100347
0.00824539
0.00676623
0.00554516
0.00453856
0.0037099
0.00302867
0.00246939
0.00201086
0.00163543
0.00132844
0.00107776
0.000873313
0.000706794
0.000571338
0.000461291
0.000371999
0.000299636
0.000241064
0.000193712
0.000155475
0.000124633
9.97825e-05
7.97795e-05
6.36919e-05
5.07618e-05
4.03732e-05
3.20252e-05
2.5311e-05
1.98994e-05
1.55207e-05
1.19539e-05
9.01688e-06
6.55788e-06
4.44839e-06
2.57699e-06
8.43881e-07
113.289
102.715
92.9741
84.0176
75.798
68.269
61.3859
55.1051
49.3846
44.1845
39.4662
35.193
31.3304
27.8452
24.7066
21.8854
19.354
17.0871
15.0606
13.2524
11.642
10.2104
8.93999
7.81478
6.81995
5.94199
5.16858
4.48849
3.89154
3.3685
2.91105
2.51165
2.16357
1.86075
1.59776
1.36975
1.17243
1.00195
0.85492
0.728327
0.619515
0.526146
0.446163
0.37776
0.319358
0.269578
0.227215
0.191223
0.160694
0.134839
0.112979
0.0945246
0.0789703
0.0658807
0.0548823
0.0456552
0.037926
0.0314612
0.0260622
0.02156
0.0178111
0.0146941
0.0121063
0.00996082
0.00818471
0.00671644
0.00550436
0.00450516
0.0036826
0.00300638
0.00245122
0.00199607
0.0016234
0.00131867
0.00106983
0.00086689
0.000701596
0.000567137
0.0004579
0.000369264
0.000297433
0.000239292
0.000192288
0.000154332
0.000123717
9.90494e-05
7.91933e-05
6.3224e-05
5.0389e-05
4.00767e-05
3.179e-05
2.51251e-05
1.97533e-05
1.54068e-05
1.18662e-05
8.95072e-06
6.50977e-06
4.41579e-06
2.5581e-06
8.37685e-07
112.42
101.928
92.2614
83.3735
75.2169
67.7457
60.9153
54.6826
49.0061
43.8458
39.1636
34.9232
31.0902
27.6318
24.5172
21.7176
19.2057
16.9561
14.9451
13.1508
11.5527
10.1321
8.87146
7.75487
6.76767
5.89644
5.12896
4.45408
3.86171
3.34268
2.88873
2.4924
2.14699
1.84649
1.58551
1.35925
1.16344
0.994272
0.848367
0.722744
0.614766
0.522113
0.442743
0.374864
0.31691
0.267511
0.225473
0.189757
0.159462
0.133806
0.112113
0.0938001
0.0783651
0.0653758
0.0544617
0.0453054
0.0376354
0.0312201
0.0258625
0.0213948
0.0176746
0.0145815
0.0120135
0.0098845
0.008122
0.00666498
0.00546219
0.00447065
0.00365439
0.00298335
0.00243245
0.00198078
0.00161096
0.00130857
0.00106164
0.000860253
0.000696224
0.000562795
0.000454394
0.000366437
0.000295157
0.000237461
0.000190817
0.000153151
0.00012277
9.82916e-05
7.85875e-05
6.27404e-05
5.00036e-05
3.97702e-05
3.1547e-05
2.4933e-05
1.96023e-05
1.5289e-05
1.17755e-05
8.88234e-06
6.46003e-06
4.38204e-06
2.53854e-06
8.31268e-07
111.524
101.115
91.5259
82.7089
74.6173
67.2056
60.4297
54.2467
48.6154
43.4963
38.8514
34.6448
30.8423
27.4115
24.3218
21.5445
19.0526
16.8209
14.826
13.046
11.4606
10.0513
8.80074
7.69305
6.71371
5.84943
5.08807
4.41858
3.83093
3.31604
2.8657
2.47253
2.12987
1.83177
1.57287