/*--------------------------------*- C++ -*----------------------------------*\
| =========                 |                                                 |
| \\      /  F ield         | OpenFOAM: The Open Source CFD Toolbox           |
|  \\    /   O peration     | Version:  2406                                  |
|   \\  /    A nd           | Website:  www.openfoam.com                      |
|    \\/     M anipulation  |                                                 |
\*---------------------------------------------------------------------------*/
FoamFile
{
    version     2.0;
    format      ascii;
    arch        "LSB;label=32;scalar=64";
    class       volScalarField;
    location    "30";
    object      T;
}
// * * * * * * * * * * * * * * * * * * * * * * * * * * * * * * * * * * * * * //

dimensions      [0 0 0 1 0 0 0];

internalField   nonuniform List<scalar> 
20000
(
300.314
300.285
300.258
300.233
300.21
300.189
300.17
300.153
300.137
300.123
300.109
300.098
300.087
300.077
300.069
300.061
300.054
300.047
300.042
300.037
300.032
300.028
300.025
300.022
300.019
300.016
300.014
300.012
300.011
300.009
300.008
300.007
300.006
300.005
300.004
300.004
300.003
300.003
300.002
300.002
300.002
300.001
300.001
300.001
300.001
300.001
300.001
300.001
300
300
300
300
300
300
300
300
300
300
300
300
300
300
300
300
300
300
300
300
300
300
300
300
300
300
300
300
300
300
300
300
300
300
300
300
300
300
300
300
300
300
300
300
300
300
300
300
300
300
300
300
300.942
300.855
300.773
300.699
300.631
300.568
300.511
300.458
300.411
300.368
300.328
300.293
300.261
300.232
300.206
300.182
300.161
300.142
300.125
300.11
300.097
300.085
300.074
300.065
300.057
300.049
300.043
300.037
300.032
300.028
300.024
300.021
300.018
300.015
300.013
300.011
300.01
300.008
300.007
300.006
300.005
300.004
300.004
300.003
300.003
300.002
300.002
300.002
300.001
300.001
300.001
300.001
300.001
300.001
300
300
300
300
300
300
300
300
300
300
300
300
300
300
300
300
300
300
300
300
300
300
300
300
300
300
300
300
300
300
300
300
300
300
300
300
300
300
300
300
300
300
300
300
300
300
301.571
301.424
301.289
301.165
301.051
300.946
300.851
300.764
300.685
300.613
300.547
300.488
300.434
300.386
300.343
300.303
300.268
300.237
300.209
300.184
300.161
300.142
300.124
300.108
300.095
300.082
300.072
300.062
300.054
300.047
300.04
300.035
300.03
300.026
300.022
300.019
300.016
300.014
300.012
300.01
300.009
300.007
300.006
300.005
300.004
300.004
300.003
300.003
300.002
300.002
300.002
300.001
300.001
300.001
300.001
300.001
300.001
300
300
300
300
300
300
300
300
300
300
300
300
300
300
300
300
300
300
300
300
300
300
300
300
300
300
300
300
300
300
300
300
300
300
300
300
300
300
300
300
300
300
300
302.198
301.993
301.804
301.63
301.471
301.325
301.191
301.069
300.958
300.857
300.766
300.683
300.608
300.54
300.479
300.425
300.376
300.332
300.292
300.257
300.226
300.198
300.173
300.152
300.132
300.115
300.1
300.087
300.076
300.065
300.056
300.049
300.042
300.036
300.031
300.027
300.023
300.019
300.017
300.014
300.012
300.01
300.009
300.007
300.006
300.005
300.004
300.004
300.003
300.003
300.002
300.002
300.002
300.001
300.001
300.001
300.001
300.001
300.001
300
300
300
300
300
300
300
300
300
300
300
300
300
300
300
300
300
300
300
300
300
300
300
300
300
300
300
300
300
300
300
300
300
300
300
300
300
300
300
300
300
302.825
302.562
302.319
302.095
301.89
301.703
301.531
301.374
301.232
301.102
300.984
300.878
300.781
300.694
300.616
300.546
300.483
300.426
300.376
300.331
300.29
300.255
300.223
300.195
300.17
300.148
300.129
300.112
300.097
300.084
300.073
300.063
300.054
300.046
300.04
300.034
300.029
300.025
300.021
300.018
300.015
300.013
300.011
300.009
300.008
300.007
300.006
300.005
300.004
300.003
300.003
300.002
300.002
300.002
300.001
300.001
300.001
300.001
300.001
300.001
300
300
300
300
300
300
300
300
300
300
300
300
300
300
300
300
300
300
300
300
300
300
300
300
300
300
300
300
300
300
300
300
300
300
300
300
300
300
300
300
303.452
303.13
302.833
302.56
302.31
302.08
301.87
301.679
301.505
301.346
301.203
301.072
300.955
300.848
300.753
300.667
300.59
300.521
300.459
300.404
300.355
300.311
300.272
300.238
300.208
300.181
300.157
300.137
300.119
300.103
300.089
300.077
300.066
300.057
300.049
300.042
300.036
300.031
300.026
300.022
300.019
300.016
300.014
300.012
300.01
300.008
300.007
300.006
300.005
300.004
300.003
300.003
300.002
300.002
300.002
300.001
300.001
300.001
300.001
300.001
300.001
300
300
300
300
300
300
300
300
300
300
300
300
300
300
300
300
300
300
300
300
300
300
300
300
300
300
300
300
300
300
300
300
300
300
300
300
300
300
300
304.077
303.697
303.346
303.024
302.728
302.457
302.209
301.983
301.777
301.59
301.42
301.267
301.128
301.002
300.889
300.788
300.697
300.615
300.542
300.477
300.419
300.367
300.322
300.281
300.245
300.214
300.186
300.162
300.14
300.121
300.105
300.09
300.078
300.067
300.058
300.049
300.042
300.036
300.031
300.026
300.022
300.019
300.016
300.014
300.011
300.01
300.008
300.007
300.006
300.005
300.004
300.003
300.003
300.002
300.002
300.002
300.001
300.001
300.001
300.001
300.001
300.001
300
300
300
300
300
300
300
300
300
300
300
300
300
300
300
300
300
300
300
300
300
300
300
300
300
300
300
300
300
300
300
300
300
300
300
300
300
300
304.702
304.263
303.859
303.487
303.146
302.834
302.548
302.287
302.05
301.834
301.638
301.461
301.3
301.156
301.025
300.908
300.803
300.709
300.625
300.55
300.483
300.424
300.371
300.324
300.283
300.247
300.215
300.186
300.162
300.14
300.121
300.104
300.09
300.077
300.066
300.057
300.049
300.042
300.035
300.03
300.026
300.022
300.019
300.016
300.013
300.011
300.009
300.008
300.007
300.006
300.005
300.004
300.003
300.003
300.002
300.002
300.002
300.001
300.001
300.001
300.001
300.001
300.001
300
300
300
300
300
300
300
300
300
300
300
300
300
300
300
300
300
300
300
300
300
300
300
300
300
300
300
300
300
300
300
300
300
300
300
300
300
305.325
304.828
304.371
303.949
303.563
303.209
302.886
302.59
302.321
302.077
301.855
301.654
301.473
301.309
301.161
301.029
300.91
300.803
300.708
300.623
300.547
300.48
300.42
300.367
300.321
300.279
300.243
300.211
300.183
300.158
300.137
300.118
300.102
300.087
300.075
300.064
300.055
300.047
300.04
300.034
300.029
300.025
300.021
300.018
300.015
300.013
300.011
300.009
300.008
300.006
300.005
300.004
300.004
300.003
300.003
300.002
300.002
300.001
300.001
300.001
300.001
300.001
300.001
300
300
300
300
300
300
300
300
300
300
300
300
300
300
300
300
300
300
300
300
300
300
300
300
300
300
300
300
300
300
300
300
300
300
300
300
300
305.948
305.392
304.881
304.411
303.979
303.584
303.223
302.893
302.593
302.32
302.072
301.848
301.645
301.462
301.297
301.149
301.016
300.897
300.791
300.696
300.611
300.536
300.469
300.41
300.358
300.312
300.271
300.236
300.204
300.177
300.153
300.132
300.114
300.098
300.084
300.072
300.062
300.053
300.045
300.038
300.033
300.028
300.023
300.02
300.017
300.014
300.012
300.01
300.008
300.007
300.006
300.005
300.004
300.003
300.003
300.002
300.002
300.002
300.001
300.001
300.001
300.001
300.001
300.001
300
300
300
300
300
300
300
300
300
300
300
300
300
300
300
300
300
300
300
300
300
300
300
300
300
300
300
300
300
300
300
300
300
300
300
300
306.568
305.955
305.39
304.871
304.395
303.958
303.559
303.195
302.863
302.562
302.288
302.04
301.816
301.614
301.432
301.269
301.122
300.991
300.873
300.768
300.675
300.592
300.518
300.453
300.395
300.345
300.3
300.26
300.226
300.195
300.169
300.146
300.125
300.108
300.093
300.079
300.068
300.058
300.05
300.042
300.036
300.031
300.026
300.022
300.019
300.016
300.013
300.011
300.009
300.008
300.007
300.005
300.005
300.004
300.003
300.003
300.002
300.002
300.002
300.001
300.001
300.001
300.001
300.001
300
300
300
300
300
300
300
300
300
300
300
300
300
300
300
300
300
300
300
300
300
300
300
300
300
300
300
300
300
300
300
300
300
300
300
300
307.187
306.516
305.898
305.33
304.809
304.331
303.894
303.496
303.133
302.803
302.504
302.233
301.988
301.767
301.567
301.388
301.228
301.084
300.955
300.841
300.739
300.648
300.567
300.496
300.433
300.377
300.328
300.285
300.247
300.214
300.185
300.159
300.137
300.118
300.101
300.087
300.074
300.064
300.054
300.046
300.039
300.033
300.028
300.024
300.02
300.017
300.014
300.012
300.01
300.009
300.007
300.006
300.005
300.004
300.003
300.003
300.002
300.002
300.002
300.001
300.001
300.001
300.001
300.001
300.001
300
300
300
300
300
300
300
300
300
300
300
300
300
300
300
300
300
300
300
300
300
300
300
300
300
300
300
300
300
300
300
300
300
300
300
307.805
307.076
306.405
305.788
305.222
304.703
304.229
303.796
303.402
303.044
302.719
302.424
302.158
301.918
301.702
301.508
301.333
301.177
301.038
300.913
300.802
300.703
300.616
300.538
300.47
300.409
300.356
300.309
300.268
300.232
300.201
300.173
300.149
300.128
300.11
300.094
300.081
300.069
300.059
300.05
300.043
300.036
300.031
300.026
300.022
300.019
300.016
300.013
300.011
300.009
300.008
300.007
300.005
300.005
300.004
300.003
300.003
300.002
300.002
300.001
300.001
300.001
300.001
300.001
300.001
300
300
300
300
300
300
300
300
300
300
300
300
300
300
300
300
300
300
300
300
300
300
300
300
300
300
300
300
300
300
300
300
300
300
300
308.42
307.634
306.91
306.244
305.633
305.074
304.562
304.096
303.67
303.284
302.933
302.616
302.329
302.07
301.836
301.627
301.438
301.27
301.119
300.985
300.865
300.759
300.664
300.581
300.507
300.442
300.384
300.334
300.289
300.25
300.216
300.187
300.161
300.138
300.119
300.102
300.087
300.074
300.064
300.054
300.046
300.039
300.033
300.028
300.024
300.02
300.017
300.014
300.012
300.01
300.008
300.007
300.006
300.005
300.004
300.003
300.003
300.002
300.002
300.002
300.001
300.001
300.001
300.001
300.001
300
300
300
300
300
300
300
300
300
300
300
300
300
300
300
300
300
300
300
300
300
300
300
300
300
300
300
300
300
300
300
300
300
300
300
309.033
308.19
307.413
306.699
306.044
305.443
304.895
304.394
303.938
303.523
303.147
302.806
302.498
302.22
301.97
301.745
301.543
301.362
301.201
301.057
300.928
300.814
300.713
300.623
300.544
300.474
300.412
300.358
300.31
300.269
300.232
300.2
300.173
300.148
300.127
300.109
300.093
300.08
300.068
300.058
300.049
300.042
300.036
300.03
300.025
300.021
300.018
300.015
300.013
300.011
300.009
300.008
300.006
300.005
300.004
300.004
300.003
300.003
300.002
300.002
300.001
300.001
300.001
300.001
300.001
300.001
300
300
300
300
300
300
300
300
300
300
300
300
300
300
300
300
300
300
300
300
300
300
300
300
300
300
300
300
300
300
300
300
300
300
309.644
308.744
307.915
307.152
306.453
305.812
305.226
304.691
304.204
303.761
303.36
302.996
302.667
302.37
302.103
301.863
301.648
301.455
301.282
301.128
300.991
300.869
300.761
300.665
300.581
300.506
300.44
300.382
300.331
300.287
300.248
300.214
300.184
300.158
300.136
300.117
300.1
300.085
300.073
300.062
300.053
300.045
300.038
300.032
300.027
300.023
300.019
300.016
300.014
300.011
300.01
300.008
300.007
300.006
300.005
300.004
300.003
300.003
300.002
300.002
300.002
300.001
300.001
300.001
300.001
300.001
300
300
300
300
300
300
300
300
300
300
300
300
300
300
300
300
300
300
300
300
300
300
300
300
300
300
300
300
300
300
300
300
300
300
310.253
309.296
308.414
307.604
306.86
306.178
305.556
304.987
304.469
303.999
303.572
303.185
302.835
302.52
302.236
301.981
301.752
301.546
301.363
301.199
301.054
300.924
300.809
300.707
300.617
300.538
300.468
300.406
300.352
300.305
300.263
300.227
300.196
300.168
300.145
300.124
300.106
300.091
300.077
300.066
300.056
300.048
300.04
300.034
300.029
300.024
300.021
300.017
300.015
300.012
300.01
300.009
300.007
300.006
300.005
300.004
300.003
300.003
300.002
300.002
300.002
300.001
300.001
300.001
300.001
300.001
300
300
300
300
300
300
300
300
300
300
300
300
300
300
300
300
300
300
300
300
300
300
300
300
300
300
300
300
300
300
300
300
300
300
310.859
309.845
308.912
308.053
307.265
306.544
305.884
305.282
304.734
304.235
303.783
303.373
303.003
302.669
302.368
302.098
301.855
301.638
301.444
301.27
301.116
300.979
300.857
300.749
300.654
300.57
300.495
300.43
300.373
300.323
300.279
300.241
300.207
300.178
300.153
300.131
300.112
300.096
300.082
300.07
300.059
300.05
300.043
300.036
300.031
300.026
300.022
300.018
300.015
300.013
300.011
300.009
300.008
300.006
300.005
300.004
300.004
300.003
300.002
300.002
300.002
300.001
300.001
300.001
300.001
300.001
300.001
300
300
300
300
300
300
300
300
300
300
300
300
300
300
300
300
300
300
300
300
300
300
300
300
300
300
300
300
300
300
300
300
300
311.462
310.392
309.407
308.501
307.669
306.907
306.211
305.575
304.997
304.47
303.993
303.561
303.17
302.817
302.5
302.214
301.958
301.729
301.524
301.341
301.178
301.033
300.905
300.791
300.69
300.601
300.523
300.454
300.394
300.341
300.295
300.254
300.219
300.188
300.162
300.139
300.119
300.101
300.086
300.074
300.063
300.053
300.045
300.038
300.032
300.027
300.023
300.019
300.016
300.014
300.011
300.01
300.008
300.007
300.006
300.005
300.004
300.003
300.003
300.002
300.002
300.001
300.001
300.001
300.001
300.001
300.001
300
300
300
300
300
300
300
300
300
300
300
300
300
300
300
300
300
300
300
300
300
300
300
300
300
300
300
300
300
300
300
300
300
312.063
310.937
309.9
308.946
308.071
307.269
306.536
305.868
305.258
304.705
304.202
303.747
303.336
302.965
302.631
302.33
302.061
301.819
301.604
301.411
301.24
301.087
300.952
300.832
300.726
300.633
300.55
300.478
300.414
300.359
300.31
300.267
300.23
300.198
300.17
300.146
300.125
300.107
300.091
300.078
300.066
300.056
300.048
300.04
300.034
300.029
300.024
300.02
300.017
300.014
300.012
300.01
300.008
300.007
300.006
300.005
300.004
300.003
300.003
300.002
300.002
300.002
300.001
300.001
300.001
300.001
300.001
300
300
300
300
300
300
300
300
300
300
300
300
300
300
300
300
300
300
300
300
300
300
300
300
300
300
300
300
300
300
300
300
300
312.661
311.479
310.39
309.389
308.471
307.629
306.86
306.158
305.519
304.938
304.411
303.933
303.501
303.112
302.761
302.446
302.163
301.91
301.683
301.481
301.301
301.141
300.999
300.873
300.762
300.664
300.578
300.502
300.435
300.376
300.325
300.281
300.242
300.208
300.179
300.153
300.131
300.112
300.096
300.081
300.069
300.059
300.05
300.042
300.036
300.03
300.025
300.021
300.018
300.015
300.013
300.011
300.009
300.007
300.006
300.005
300.004
300.004
300.003
300.002
300.002
300.002
300.001
300.001
300.001
300.001
300.001
300.001
300
300
300
300
300
300
300
300
300
300
300
300
300
300
300
300
300
300
300
300
300
300
300
300
300
300
300
300
300
300
300
300
313.255
312.018
310.878
309.83
308.869
307.988
307.182
306.447
305.778
305.17
304.618
304.118
303.666
303.258
302.891
302.561
302.264
301.999
301.762
301.551
301.362
301.195
301.046
300.914
300.798
300.695
300.605
300.525
300.455
300.394
300.341
300.294
300.253
300.218
300.187
300.16
300.137
300.117
300.1
300.085
300.072
300.062
300.052
300.044
300.037
300.032
300.027
300.022
300.019
300.016
300.013
300.011
300.009
300.008
300.006
300.005
300.004
300.004
300.003
300.003
300.002
300.002
300.001
300.001
300.001
300.001
300.001
300.001
300
300
300
300
300
300
300
300
300
300
300
300
300
300
300
300
300
300
300
300
300
300
300
300
300
300
300
300
300
300
300
300
313.846
312.554
311.363
310.269
309.264
308.344
307.503
306.735
306.036
305.4
304.824
304.301
303.829
303.403
303.02
302.675
302.365
302.088
301.841
301.62
301.423
301.248
301.093
300.955
300.834
300.726
300.632
300.549
300.476
300.412
300.356
300.307
300.264
300.227
300.195
300.167
300.143
300.122
300.104
300.089
300.076
300.064
300.055
300.046
300.039
300.033
300.028
300.023
300.02
300.016
300.014
300.012
300.01
300.008
300.007
300.006
300.005
300.004
300.003
300.003
300.002
300.002
300.001
300.001
300.001
300.001
300.001
300.001
300
300
300
300
300
300
300
300
300
300
300
300
300
300
300
300
300
300
300
300
300
300
300
300
300
300
300
300
300
300
300
300
314.434
313.087
311.846
310.705
309.657
308.698
307.821
307.021
306.292
305.63
305.028
304.484
303.992
303.548
303.148
302.788
302.466
302.177
301.919
301.688
301.483
301.301
301.139
300.996
300.869
300.757
300.659
300.572
300.496
300.429
300.371
300.32
300.276
300.237
300.204
300.175
300.149
300.128
300.109
300.093
300.079
300.067
300.057
300.048
300.041
300.034
300.029
300.024
300.02
300.017
300.014
300.012
300.01
300.008
300.007
300.006
300.005
300.004
300.003
300.003
300.002
300.002
300.002
300.001
300.001
300.001
300.001
300.001
300
300
300
300
300
300
300
300
300
300
300
300
300
300
300
300
300
300
300
300
300
300
300
300
300
300
300
300
300
300
300
300
315.018
313.617
312.325
311.138
310.048
309.05
308.138
307.305
306.547
305.857
305.232
304.665
304.153
303.691
303.275
302.901
302.566
302.265
301.997
301.757
301.543
301.354
301.185
301.036
300.904
300.788
300.685
300.595
300.516
300.447
300.386
300.333
300.287
300.247
300.212
300.182
300.155
300.133
300.113
300.097
300.082
300.07
300.059
300.05
300.042
300.036
300.03
300.025
300.021
300.018
300.015
300.013
300.01
300.009
300.007
300.006
300.005
300.004
300.003
300.003
300.002
300.002
300.002
300.001
300.001
300.001
300.001
300.001
300
300
300
300
300
300
300
300
300
300
300
300
300
300
300
300
300
300
300
300
300
300
300
300
300
300
300
300
300
300
300
300
315.599
314.143
312.802
311.569
310.437
309.4
308.452
307.588
306.8
306.084
305.434
304.846
304.314
303.834
303.402
303.013
302.665
302.353
302.074
301.825
301.603
301.406
301.231
301.076
300.939
300.818
300.712
300.618
300.536
300.464
300.401
300.346
300.298
300.256
300.22
300.189
300.161
300.138
300.118
300.1
300.085
300.072
300.061
300.052
300.044
300.037
300.031
300.026
300.022
300.019
300.016
300.013
300.011
300.009
300.008
300.006
300.005
300.004
300.004
300.003
300.002
300.002
300.002
300.001
300.001
300.001
300.001
300.001
300.001
300
300
300
300
300
300
300
300
300
300
300
300
300
300
300
300
300
300
300
300
300
300
300
300
300
300
300
300
300
300
300
316.176
314.666
313.275
311.996
310.823
309.748
308.765
307.868
307.051
306.309
305.635
305.025
304.473
303.976
303.528
303.125
302.763
302.44
302.15
301.892
301.662
301.458
301.276
301.116
300.974
300.848
300.738
300.641
300.556
300.481
300.416
300.359
300.309
300.266
300.228
300.196
300.167
300.143
300.122
300.104
300.088
300.075
300.064
300.054
300.046
300.038
300.032
300.027
300.023
300.019
300.016
300.013
300.011
300.009
300.008
300.007
300.005
300.004
300.004
300.003
300.003
300.002
300.002
300.001
300.001
300.001
300.001
300.001
300.001
300
300
300
300
300
300
300
300
300
300
300
300
300
300
300
300
300
300
300
300
300
300
300
300
300
300
300
300
300
300
300
316.748
315.185
313.745
312.421
311.206
310.093
309.075
308.147
307.301
306.532
305.835
305.203
304.632
304.117
303.653
303.235
302.861
302.526
302.227
301.959
301.721
301.509
301.322
301.155
301.008
300.878
300.764
300.664
300.575
300.498
300.43
300.371
300.32
300.275
300.236
300.202
300.173
300.148
300.126
300.108
300.092
300.078
300.066
300.056
300.047
300.04
300.034
300.028
300.024
300.02
300.017
300.014
300.012
300.01
300.008
300.007
300.006
300.005
300.004
300.003
300.003
300.002
300.002
300.001
300.001
300.001
300.001
300.001
300.001
300
300
300
300
300
300
300
300
300
300
300
300
300
300
300
300
300
300
300
300
300
300
300
300
300
300
300
300
300
300
300
317.317
315.701
314.212
312.843
311.586
310.435
309.383
308.423
307.549
306.754
306.033
305.379
304.789
304.256
303.777
303.345
302.958
302.612
302.302
302.026
301.78
301.561
301.367
301.195
301.042
300.908
300.79
300.686
300.595
300.515
300.445
300.384
300.331
300.284
300.244
300.209
300.179
300.153
300.131
300.111
300.095
300.08
300.068
300.058
300.049
300.041
300.035
300.029
300.025
300.021
300.017
300.014
300.012
300.01
300.008
300.007
300.006
300.005
300.004
300.003
300.003
300.002
300.002
300.002
300.001
300.001
300.001
300.001
300.001
300
300
300
300
300
300
300
300
300
300
300
300
300
300
300
300
300
300
300
300
300
300
300
300
300
300
300
300
300
300
300
317.881
316.212
314.675
313.261
311.964
310.775
309.689
308.698
307.795
306.974
306.229
305.555
304.945
304.395
303.9
303.454
303.055
302.697
302.377
302.092
301.838
301.612
301.411
301.233
301.076
300.938
300.816
300.708
300.614
300.532
300.459
300.396
300.341
300.294
300.252
300.216
300.185
300.158
300.135
300.115
300.098
300.083
300.07
300.06
300.05
300.043
300.036
300.03
300.025
300.021
300.018
300.015
300.012
300.01
300.009
300.007
300.006
300.005
300.004
300.003
300.003
300.002
300.002
300.002
300.001
300.001
300.001
300.001
300.001
300
300
300
300
300
300
300
300
300
300
300
300
300
300
300
300
300
300
300
300
300
300
300
300
300
300
300
300
300
300
300
318.441
316.72
315.134
313.676
312.338
311.113
309.992
308.97
308.039
307.192
306.424
305.729
305.1
304.533
304.022
303.562
303.15
302.781
302.452
302.157
301.895
301.662
301.455
301.272
301.11
300.967
300.841
300.731
300.633
300.548
300.474
300.409
300.352
300.303
300.26
300.223
300.191
300.163
300.139
300.119
300.101
300.086
300.073
300.061
300.052
300.044
300.037
300.031
300.026
300.022
300.018
300.015
300.013
300.011
300.009
300.007
300.006
300.005
300.004
300.004
300.003
300.002
300.002
300.002
300.001
300.001
300.001
300.001
300.001
300
300
300
300
300
300
300
300
300
300
300
300
300
300
300
300
300
300
300
300
300
300
300
300
300
300
300
300
300
300
300
318.996
317.223
315.59
314.088
312.71
311.447
310.293
309.24
308.281
307.409
306.618
305.901
305.254
304.669
304.143
303.67
303.245
302.865
302.525
302.222
301.952
301.712
301.499
301.31
301.144
300.996
300.867
300.753
300.653
300.565
300.488
300.421
300.363
300.312
300.268
300.23
300.197
300.168
300.143
300.122
300.104
300.088
300.075
300.063
300.054
300.045
300.038
300.032
300.027
300.023
300.019
300.016
300.013
300.011
300.009
300.008
300.006
300.005
300.004
300.004
300.003
300.002
300.002
300.002
300.001
300.001
300.001
300.001
300.001
300.001
300
300
300
300
300
300
300
300
300
300
300
300
300
300
300
300
300
300
300
300
300
300
300
300
300
300
300
300
300
300
319.547
317.723
316.042
314.497
313.078
311.779
310.592
309.508
308.521
307.624
306.81
306.072
305.406
304.804
304.263
303.776
303.339
302.948
302.599
302.287
302.009
301.762
301.543
301.348
301.177
301.025
300.892
300.774
300.671
300.581
300.502
300.433
300.373
300.321
300.276
300.236
300.202
300.173
300.148
300.126
300.107
300.091
300.077
300.065
300.055
300.047
300.039
300.033
300.028
300.023
300.019
300.016
300.014
300.011
300.009
300.008
300.007
300.005
300.004
300.004
300.003
300.003
300.002
300.002
300.001
300.001
300.001
300.001
300.001
300.001
300
300
300
300
300
300
300
300
300
300
300
300
300
300
300
300
300
300
300
300
300
300
300
300
300
300
300
300
300
300
320.093
318.218
316.49
314.901
313.444
312.108
310.887
309.773
308.759
307.837
307
306.242
305.557
304.939
304.382
303.882
303.433
303.031
302.671
302.35
302.065
301.811
301.586
301.386
301.21
301.054
300.917
300.796
300.69
300.597
300.516
300.445
300.384
300.33
300.283
300.243
300.208
300.178
300.152
300.129
300.11
300.093
300.079
300.067
300.057
300.048
300.04
300.034
300.028
300.024
300.02
300.017
300.014
300.012
300.01
300.008
300.007
300.006
300.005
300.004
300.003
300.003
300.002
300.002
300.001
300.001
300.001
300.001
300.001
300.001
300
300
300
300
300
300
300
300
300
300
300
300
300
300
300
300
300
300
300
300
300
300
300
300
300
300
300
300
300
300
320.634
318.708
316.934
315.303
313.805
312.434
311.181
310.037
308.995
308.048
307.188
306.41
305.706
305.072
304.5
303.986
303.525
303.112
302.743
302.414
302.12
301.86
301.628
301.423
301.242
301.082
300.941
300.818
300.709
300.614
300.53
300.457
300.394
300.339
300.291
300.249
300.214
300.182
300.156
300.133
300.113
300.096
300.081
300.069
300.058
300.049
300.041
300.035
300.029
300.025
300.021
300.017
300.014
300.012
300.01
300.008
300.007
300.006
300.005
300.004
300.003
300.003
300.002
300.002
300.001
300.001
300.001
300.001
300.001
300.001
300
300
300
300
300
300
300
300
300
300
300
300
300
300
300
300
300
300
300
300
300
300
300
300
300
300
300
300
300
300
321.17
319.194
317.374
315.7
314.164
312.757
311.471
310.297
309.228
308.257
307.375
306.576
305.855
305.203
304.617
304.09
303.617
303.193
302.814
302.476
302.175
301.908
301.671
301.46
301.274
301.11
300.966
300.839
300.727
300.629
300.544
300.469
300.404
300.348
300.299
300.256
300.219
300.187
300.16
300.136
300.116
300.098
300.083
300.071
300.06
300.05
300.042
300.036
300.03
300.025
300.021
300.018
300.015
300.012
300.01
300.009
300.007
300.006
300.005
300.004
300.003
300.003
300.002
300.002
300.002
300.001
300.001
300.001
300.001
300.001
300
300
300
300
300
300
300
300
300
300
300
300
300
300
300
300
300
300
300
300
300
300
300
300
300
300
300
300
300
300
321.7
319.675
317.809
316.093
314.519
313.077
311.758
310.555
309.46
308.463
307.56
306.741
306.001
305.334
304.732
304.192
303.707
303.273
302.885
302.538
302.23
301.956
301.712
301.497
301.306
301.138
300.99
300.86
300.745
300.645
300.558
300.481
300.414
300.356
300.306
300.262
300.225
300.192
300.164
300.14
300.119
300.101
300.085
300.072
300.061
300.052
300.044
300.037
300.031
300.026
300.022
300.018
300.015
300.013
300.011
300.009
300.007
300.006
300.005
300.004
300.003
300.003
300.002
300.002
300.002
300.001
300.001
300.001
300.001
300.001
300
300
300
300
300
300
300
300
300
300
300
300
300
300
300
300
300
300
300
300
300
300
300
300
300
300
300
300
300
300
322.225
320.151
318.24
316.483
314.87
313.393
312.043
310.811
309.688
308.668
307.743
306.904
306.147
305.463
304.847
304.294
303.797
303.352
302.955
302.6
302.284
302.003
301.754
301.533
301.338
301.166
301.014
300.881
300.763
300.661
300.571
300.493
300.424
300.365
300.313
300.269
300.23
300.197
300.168
300.143
300.122
300.103
300.088
300.074
300.063
300.053
300.045
300.038
300.032
300.026
300.022
300.019
300.015
300.013
300.011
300.009
300.007
300.006
300.005
300.004
300.003
300.003
300.002
300.002
300.002
300.001
300.001
300.001
300.001
300.001
300
300
300
300
300
300
300
300
300
300
300
300
300
300
300
300
300
300
300
300
300
300
300
300
300
300
300
300
300
300
322.745
320.622
318.667
316.868
315.218
313.706
312.325
311.064
309.915
308.871
307.924
307.066
306.29
305.591
304.96
304.394
303.886
303.431
303.024
302.661
302.337
302.05
301.795
301.569
301.369
301.193
301.038
300.901
300.781
300.676
300.584
300.504
300.434
300.374
300.321
300.275
300.235
300.201
300.172
300.146
300.124
300.106
300.09
300.076
300.064
300.054
300.046
300.038
300.032
300.027
300.023
300.019
300.016
300.013
300.011
300.009
300.008
300.006
300.005
300.004
300.004
300.003
300.002
300.002
300.002
300.001
300.001
300.001
300.001
300.001
300
300
300
300
300
300
300
300
300
300
300
300
300
300
300
300
300
300
300
300
300
300
300
300
300
300
300
300
300
300
323.259
321.088
319.088
317.25
315.562
314.016
312.603
311.314
310.139
309.071
308.103
307.225
306.432
305.717
305.073
304.493
303.974
303.508
303.092
302.721
302.39
302.096
301.835
301.604
301.4
301.22
301.061
300.922
300.799
300.692
300.598
300.516
300.444
300.382
300.328
300.281
300.241
300.206
300.176
300.15
300.127
300.108
300.092
300.078
300.066
300.055
300.047
300.039
300.033
300.028
300.023
300.019
300.016
300.014
300.011
300.009
300.008
300.006
300.005
300.004
300.004
300.003
300.002
300.002
300.002
300.001
300.001
300.001
300.001
300.001
300.001
300
300
300
300
300
300
300
300
300
300
300
300
300
300
300
300
300
300
300
300
300
300
300
300
300
300
300
300
300
323.768
321.549
319.506
317.627
315.902
314.323
312.879
311.561
310.361
309.27
308.28
307.383
306.573
305.842
305.183
304.591
304.06
303.585
303.16
302.78
302.442
302.142
301.876
301.64
301.431
301.247
301.084
300.942
300.816
300.707
300.611
300.527
300.454
300.39
300.335
300.287
300.246
300.21
300.179
300.153
300.13
300.11
300.094
300.079
300.067
300.057
300.048
300.04
300.034
300.028
300.024
300.02
300.017
300.014
300.012
300.01
300.008
300.007
300.005
300.005
300.004
300.003
300.003
300.002
300.002
300.001
300.001
300.001
300.001
300.001
300.001
300
300
300
300
300
300
300
300
300
300
300
300
300
300
300
300
300
300
300
300
300
300
300
300
300
300
300
300
300
324.27
322.005
319.918
317.999
316.238
314.625
313.151
311.805
310.58
309.466
308.455
307.539
306.712
305.965
305.293
304.689
304.146
303.661
303.226
302.839
302.494
302.187
301.915
301.674
301.461
301.273
301.107
300.962
300.834
300.722
300.624
300.538
300.464
300.399
300.342
300.293
300.251
300.215
300.183
300.156
300.133
300.113
300.096
300.081
300.068
300.058
300.049
300.041
300.034
300.029
300.024
300.02
300.017
300.014
300.012
300.01
300.008
300.007
300.006
300.005
300.004
300.003
300.003
300.002
300.002
300.001
300.001
300.001
300.001
300.001
300.001
300
300
300
300
300
300
300
300
300
300
300
300
300
300
300
300
300
300
300
300
300
300
300
300
300
300
300
300
300
324.767
322.455
320.326
318.368
316.571
314.925
313.42
312.047
310.796
309.659
308.628
307.694
306.849
306.087
305.401
304.784
304.231
303.735
303.292
302.897
302.545
302.232
301.954
301.708
301.491
301.299
301.13
300.981
300.851
300.736
300.636
300.549
300.473
300.407
300.349
300.299
300.256
300.219
300.187
300.159
300.135
300.115
300.098
300.083
300.07
300.059
300.05
300.042
300.035
300.029
300.025
300.021
300.017
300.014
300.012
300.01
300.008
300.007
300.006
300.005
300.004
300.003
300.003
300.002
300.002
300.001
300.001
300.001
300.001
300.001
300.001
300
300
300
300
300
300
300
300
300
300
300
300
300
300
300
300
300
300
300
300
300
300
300
300
300
300
300
300
300
325.257
322.9
320.728
318.731
316.899
315.22
313.686
312.285
311.01
309.851
308.799
307.846
306.985
306.208
305.508
304.879
304.315
303.809
303.358
302.955
302.596
302.276
301.993
301.742
301.52
301.325
301.152
301.001
300.868
300.751
300.649
300.56
300.482
300.415
300.356
300.305
300.261
300.223
300.191
300.162
300.138
300.117
300.099
300.084
300.071
300.06
300.051
300.043
300.036
300.03
300.025
300.021
300.018
300.015
300.012
300.01
300.008
300.007
300.006
300.005
300.004
300.003
300.003
300.002
300.002
300.001
300.001
300.001
300.001
300.001
300.001
300
300
300
300
300
300
300
300
300
300
300
300
300
300
300
300
300
300
300
300
300
300
300
300
300
300
300
300
300
325.741
323.339
321.125
319.09
317.223
315.512
313.948
312.521
311.221
310.04