/*--------------------------------*- C++ -*----------------------------------*\
| =========                 |                                                 |
| \\      /  F ield         | OpenFOAM: The Open Source CFD Toolbox           |
|  \\    /   O peration     | Version:  2406                                  |
|   \\  /    A nd           | Website:  www.openfoam.com                      |
|    \\/     M anipulation  |                                                 |
\*---------------------------------------------------------------------------*/
FoamFile
{
    version     2.0;
    format      ascii;
    arch        "LSB;label=32;scalar=64";
    class       volScalarField;
    location    "55";
    object      T;
}
// * * * * * * * * * * * * * * * * * * * * * * * * * * * * * * * * * * * * * //

dimensions      [0 0 0 1 0 0 0];

internalField   nonuniform List<scalar> 
20000
(
300.911
300.874
300.837
300.801
300.767
300.734
300.701
300.67
300.64
300.611
300.583
300.556
300.53
300.505
300.48
300.457
300.435
300.413
300.393
300.373
300.354
300.336
300.319
300.302
300.286
300.271
300.256
300.243
300.229
300.217
300.205
300.193
300.182
300.172
300.162
300.153
300.144
300.136
300.128
300.12
300.113
300.106
300.1
300.094
300.088
300.082
300.077
300.072
300.068
300.064
300.059
300.056
300.052
300.049
300.045
300.042
300.04
300.037
300.034
300.032
300.03
300.028
300.026
300.024
300.022
300.021
300.019
300.018
300.017
300.015
300.014
300.013
300.012
300.011
300.01
300.01
300.009
300.008
300.008
300.007
300.006
300.006
300.005
300.005
300.004
300.004
300.004
300.003
300.003
300.003
300.002
300.002
300.002
300.002
300.001
300.001
300.001
300.001
300
300
302.734
302.62
302.511
302.404
302.301
302.201
302.104
302.011
301.92
301.833
301.749
301.667
301.589
301.514
301.441
301.371
301.304
301.24
301.178
301.119
301.062
301.008
300.956
300.906
300.858
300.813
300.769
300.728
300.688
300.65
300.614
300.58
300.547
300.516
300.487
300.459
300.432
300.407
300.383
300.36
300.339
300.318
300.299
300.281
300.263
300.247
300.232
300.217
300.203
300.191
300.178
300.167
300.156
300.146
300.136
300.127
300.119
300.111
300.103
300.096
300.09
300.083
300.078
300.072
300.067
300.062
300.058
300.054
300.05
300.046
300.043
300.04
300.037
300.034
300.031
300.029
300.027
300.025
300.023
300.021
300.019
300.018
300.016
300.015
300.013
300.012
300.011
300.01
300.009
300.008
300.007
300.006
300.005
300.005
300.004
300.003
300.002
300.002
300.001
300
304.555
304.367
304.184
304.006
303.834
303.668
303.506
303.35
303.2
303.054
302.914
302.778
302.648
302.522
302.401
302.285
302.173
302.066
301.963
301.864
301.77
301.679
301.592
301.509
301.43
301.354
301.281
301.212
301.146
301.083
301.023
300.966
300.912
300.86
300.811
300.764
300.72
300.678
300.638
300.6
300.564
300.53
300.498
300.468
300.439
300.412
300.386
300.362
300.339
300.317
300.297
300.278
300.26
300.243
300.227
300.212
300.198
300.184
300.172
300.16
300.149
300.139
300.129
300.12
300.112
300.104
300.097
300.09
300.083
300.077
300.072
300.066
300.061
300.057
300.052
300.048
300.045
300.041
300.038
300.035
300.032
300.029
300.027
300.025
300.022
300.02
300.018
300.017
300.015
300.013
300.012
300.01
300.009
300.008
300.006
300.005
300.004
300.003
300.002
300.001
306.376
306.112
305.856
305.607
305.367
305.133
304.908
304.689
304.478
304.275
304.078
303.889
303.706
303.53
303.361
303.198
303.042
302.892
302.748
302.61
302.477
302.35
302.229
302.112
302.001
301.895
301.794
301.697
301.604
301.516
301.432
301.353
301.276
301.204
301.135
301.07
301.008
300.949
300.893
300.84
300.79
300.742
300.697
300.655
300.615
300.576
300.541
300.507
300.475
300.444
300.416
300.389
300.364
300.34
300.318
300.297
300.277
300.258
300.241
300.224
300.209
300.195
300.181
300.169
300.157
300.146
300.135
300.126
300.116
300.108
300.1
300.093
300.086
300.079
300.073
300.068
300.063
300.058
300.053
300.049
300.045
300.041
300.038
300.034
300.031
300.029
300.026
300.023
300.021
300.019
300.017
300.015
300.013
300.011
300.009
300.007
300.006
300.004
300.002
300.001
308.194
307.855
307.526
307.207
306.898
306.598
306.308
306.027
305.756
305.494
305.242
304.998
304.763
304.537
304.32
304.111
303.91
303.717
303.532
303.354
303.184
303.021
302.865
302.715
302.572
302.436
302.305
302.181
302.062
301.949
301.841
301.738
301.641
301.548
301.459
301.375
301.296
301.22
301.148
301.08
301.015
300.954
300.896
300.842
300.79
300.741
300.695
300.651
300.61
300.571
300.535
300.5
300.468
300.437
300.408
300.381
300.356
300.332
300.309
300.288
300.269
300.25
300.233
300.217
300.201
300.187
300.174
300.161
300.15
300.139
300.129
300.119
300.11
300.102
300.094
300.087
300.08
300.074
300.068
300.063
300.058
300.053
300.048
300.044
300.04
300.037
300.033
300.03
300.027
300.024
300.021
300.019
300.016
300.014
300.012
300.009
300.007
300.005
300.003
300.001
310.011
309.597
309.195
308.805
308.427
308.061
307.706
307.364
307.032
306.713
306.404
306.106
305.82
305.544
305.278
305.022
304.777
304.541
304.315
304.098
303.89
303.69
303.5
303.317
303.143
302.976
302.816
302.664
302.519
302.381
302.249
302.124
302.004
301.891
301.783
301.68
301.583
301.49
301.402
301.319
301.24
301.166
301.095
301.028
300.965
300.905
300.849
300.795
300.745
300.698
300.653
300.611
300.571
300.534
300.499
300.466
300.435
300.405
300.378
300.352
300.328
300.306
300.284
300.265
300.246
300.229
300.212
300.197
300.183
300.17
300.157
300.146
300.135
300.125
300.115
300.106
300.098
300.09
300.083
300.077
300.07
300.065
300.059
300.054
300.049
300.045
300.041
300.037
300.033
300.029
300.026
300.023
300.02
300.017
300.014
300.011
300.009
300.006
300.004
300.001
311.826
311.337
310.862
310.401
309.954
309.522
309.103
308.698
308.307
307.929
307.565
307.213
306.874
306.548
306.234
305.933
305.643
305.364
305.097
304.84
304.595
304.359
304.134
303.918
303.712
303.515
303.327
303.147
302.976
302.813
302.657
302.509
302.368
302.234
302.106
301.985
301.87
301.76
301.657
301.558
301.465
301.377
301.294
301.215
301.14
301.069
301.003
300.94
300.88
300.824
300.771
300.722
300.675
300.631
300.589
300.55
300.513
300.479
300.447
300.416
300.388
300.361
300.336
300.313
300.291
300.27
300.251
300.233
300.216
300.2
300.186
300.172
300.159
300.147
300.136
300.126
300.116
300.107
300.098
300.091
300.083
300.076
300.07
300.064
300.058
300.053
300.048
300.043
300.039
300.035
300.031
300.027
300.023
300.02
300.017
300.014
300.01
300.007
300.004
300.001
313.637
313.073
312.525
311.994
311.479
310.98
310.497
310.031
309.579
309.144
308.723
308.318
307.927
307.551
307.189
306.841
306.507
306.186
305.878
305.582
305.298
305.027
304.767
304.519
304.281
304.054
303.837
303.629
303.432
303.243
303.064
302.893
302.73
302.576
302.429
302.289
302.156
302.03
301.91
301.797
301.69
301.588
301.492
301.401
301.315
301.233
301.156
301.084
301.015
300.95
300.89
300.832
300.778
300.727
300.679
300.634
300.592
300.552
300.515
300.48
300.447
300.416
300.388
300.36
300.335
300.311
300.289
300.269
300.249
300.231
300.214
300.198
300.184
300.17
300.157
300.145
300.134
300.123
300.113
300.104
300.096
300.088
300.081
300.074
300.067
300.061
300.055
300.05
300.045
300.04
300.035
300.031
300.027
300.023
300.019
300.016
300.012
300.009
300.005
300.002
315.445
314.806
314.186
313.584
313.001
312.436
311.889
311.36
310.849
310.356
309.88
309.421
308.978
308.552
308.143
307.748
307.37
307.006
306.657
306.322
306.001
305.694
305.399
305.118
304.848
304.591
304.345
304.111
303.887
303.674
303.47
303.277
303.092
302.917
302.751
302.592
302.442
302.299
302.164
302.035
301.914
301.799
301.69
301.586
301.489
301.397
301.309
301.227
301.15
301.076
301.007
300.942
300.881
300.824
300.769
300.718
300.671
300.626
300.583
300.544
300.506
300.472
300.439
300.408
300.38
300.353
300.328
300.304
300.282
300.262
300.242
300.225
300.208
300.192
300.178
300.164
300.151
300.14
300.129
300.118
300.109
300.1
300.091
300.083
300.076
300.069
300.063
300.056
300.051
300.045
300.04
300.035
300.031
300.026
300.022
300.018
300.014
300.01
300.006
300.002
317.25
316.536
315.843
315.171
314.52
313.889
313.278
312.688
312.117
311.566
311.034
310.521
310.027
309.552
309.094
308.654
308.231
307.824
307.434
307.06
306.702
306.359
306.03
305.715
305.415
305.127
304.853
304.591
304.341
304.103
303.876
303.659
303.454
303.258
303.072
302.895
302.727
302.568
302.417
302.273
302.137
302.009
301.887
301.772
301.663
301.56
301.462
301.371
301.284
301.202
301.125
301.053
300.984
300.92
300.859
300.802
300.749
300.699
300.651
300.607
300.566
300.527
300.49
300.456
300.424
300.394
300.366
300.34
300.315
300.292
300.271
300.251
300.232
300.215
300.198
300.183
300.169
300.156
300.144
300.132
300.121
300.111
300.102
300.093
300.085
300.077
300.07
300.063
300.057
300.051
300.045
300.039
300.034
300.029
300.024
300.02
300.015
300.011
300.006
300.002
319.05
318.262
317.497
316.754
316.035
315.338
314.664
314.012
313.381
312.773
312.186
311.619
311.074
310.548
310.043
309.557
309.089
308.641
308.21
307.797
307.401
307.022
306.659
306.312
305.98
305.662
305.359
305.07
304.794
304.531
304.28
304.041
303.814
303.598
303.392
303.197
303.012
302.836
302.669
302.51
302.36
302.218
302.084
301.957
301.836
301.722
301.615
301.514
301.418
301.328
301.243
301.162
301.087
301.016
300.949
300.886
300.827
300.772
300.719
300.671
300.625
300.582
300.541
300.504
300.468
300.435
300.404
300.375
300.348
300.323
300.299
300.277
300.256
300.237
300.219
300.202
300.187
300.172
300.159
300.146
300.134
300.123
300.112
300.103
300.094
300.085
300.077
300.07
300.063
300.056
300.05
300.044
300.038
300.032
300.027
300.022
300.017
300.012
300.007
300.002
320.845
319.983
319.146
318.333
317.546
316.784
316.046
315.332
314.642
313.977
313.334
312.714
312.117
311.542
310.989
310.457
309.946
309.455
308.984
308.532
308.099
307.684
307.287
306.907
306.543
306.196
305.864
305.548
305.246
304.958
304.683
304.422
304.174
303.937
303.712
303.498
303.296
303.103
302.92
302.747
302.583
302.427
302.28
302.141
302.009
301.885
301.767
301.656
301.552
301.453
301.36
301.272
301.189
301.112
301.038
300.97
300.905
300.844
300.787
300.734
300.684
300.636
300.592
300.551
300.512
300.476
300.442
300.41
300.381
300.353
300.327
300.303
300.281
300.259
300.24
300.221
300.204
300.188
300.173
300.16
300.147
300.134
300.123
300.112
300.103
300.093
300.084
300.076
300.068
300.061
300.054
300.048
300.041
300.035
300.029
300.024
300.018
300.013
300.008
300.003
322.635
321.699
320.79
319.908
319.053
318.225
317.424
316.649
315.9
315.177
314.479
313.806
313.158
312.534
311.933
311.355
310.8
310.267
309.756
309.265
308.795
308.344
307.913
307.5
307.105
306.728
306.368
306.024
305.696
305.384
305.086
304.802
304.532
304.275
304.031
303.799
303.579
303.369
303.171
302.983
302.805
302.636
302.476
302.325
302.182
302.047
301.919
301.799
301.685
301.578
301.476
301.381
301.292
301.207
301.128
301.053
300.983
300.917
300.855
300.797
300.742
300.691
300.643
300.598
300.556
300.517
300.48
300.446
300.414
300.383
300.355
300.329
300.305
300.282
300.26
300.241
300.222
300.205
300.188
300.173
300.159
300.146
300.134
300.122
300.111
300.101
300.092
300.083
300.074
300.066
300.059
300.052
300.045
300.038
300.032
300.026
300.02
300.014
300.008
300.003
324.42
323.41
322.429
321.478
320.555
319.662
318.798
317.961
317.154
316.373
315.621
314.895
314.195
313.522
312.874
312.251
311.652
311.077
310.525
309.995
309.488
309.002
308.536
308.091
307.665
307.259
306.87
306.499
306.145
305.808
305.487
305.181
304.889
304.612
304.349
304.098
303.861
303.635
303.421
303.218
303.026
302.844
302.671
302.508
302.354
302.208
302.07
301.94
301.818
301.702
301.593
301.49
301.393
301.302
301.217
301.136
301.06
300.989
300.922
300.86
300.801
300.746
300.694
300.645
300.6
300.558
300.518
300.481
300.446
300.414
300.383
300.355
300.329
300.304
300.281
300.259
300.239
300.221
300.203
300.187
300.172
300.157
300.144
300.132
300.12
300.109
300.099
300.089
300.08
300.072
300.064
300.056
300.048
300.041
300.035
300.028
300.022
300.015
300.009
300.003
326.198
325.115
324.063
323.042
322.052
321.094
320.167
319.27
318.403
317.566
316.758
315.98
315.229
314.507
313.811
313.143
312.5
311.883
311.291
310.723
310.179
309.657
309.158
308.68
308.224
307.787
307.37
306.973
306.593
306.231
305.886
305.558
305.245
304.948
304.665
304.397
304.142
303.9
303.67
303.452
303.246
303.051
302.866
302.691
302.525
302.369
302.221
302.082
301.95
301.826
301.709
301.599
301.495
301.397
301.305
301.219
301.137
301.061
300.989
300.922
300.859
300.8
300.744
300.692
300.644
300.598
300.556
300.516
300.479
300.444
300.411
300.381
300.353
300.326
300.301
300.278
300.257
300.237
300.218
300.201
300.184
300.169
300.155
300.141
300.129
300.117
300.106
300.096
300.086
300.077
300.068
300.06
300.052
300.044
300.037
300.03
300.023
300.016
300.01
300.003
327.971
326.814
325.69
324.601
323.544
322.521
321.531
320.573
319.648
318.754
317.892
317.061
316.259
315.488
314.746
314.032
313.346
312.687
312.055
311.449
310.867
310.311
309.778
309.268
308.78
308.314
307.869
307.444
307.039
306.653
306.284
305.934
305.6
305.283
304.981
304.694
304.422
304.164
303.918
303.686
303.466
303.257
303.06
302.873
302.696
302.529
302.371
302.223
302.082
301.949
301.825
301.707
301.596
301.492
301.393
301.301
301.214
301.133
301.056
300.985
300.917
300.854
300.795
300.739
300.687
300.639
300.593
300.551
300.511
300.474
300.439
300.407
300.376
300.348
300.322
300.297
300.274
300.253
300.233
300.214
300.197
300.18
300.165
300.151
300.138
300.125
300.113
300.102
300.092
300.082
300.073
300.064
300.055
300.047
300.04
300.032
300.025
300.018
300.01
300.003
329.736
328.506
327.312
326.153
325.03
323.942
322.89
321.872
320.888
319.938
319.021
318.137
317.286
316.465
315.676
314.918
314.188
313.488
312.816
312.171
311.553
310.961
310.395
309.853
309.334
308.839
308.366
307.914
307.483
307.072
306.681
306.308
305.954
305.616
305.295
304.991
304.701
304.426
304.166
303.919
303.684
303.463
303.253
303.054
302.866
302.689
302.521
302.363
302.213
302.072
301.94
301.815
301.697
301.586
301.481
301.383
301.291
301.204
301.123
301.047
300.975
300.908
300.845
300.786
300.731
300.679
300.631
300.586
300.543
300.504
300.467
300.432
300.4
300.37
300.342
300.316
300.292
300.269
300.247
300.228
300.209
300.192
300.176
300.16
300.146
300.133
300.121
300.109
300.098
300.087
300.077
300.068
300.059
300.05
300.042
300.034
300.026
300.019
300.011
300.004
331.494
330.191
328.926
327.699
326.51
325.358
324.243
323.164
322.123
321.116
320.146
319.209
318.307
317.439
316.603
315.799
315.027
314.285
313.574
312.891
312.236
311.609
311.009
310.435
309.886
309.361
308.86
308.382
307.926
307.491
307.076
306.681
306.306
305.948
305.608
305.286
304.979
304.688
304.412
304.15
303.902
303.667
303.445
303.235
303.036
302.848
302.67
302.502
302.344
302.195
302.054
301.922
301.797
301.679
301.569
301.465
301.367
301.276
301.189
301.109
301.033
300.962
300.895
300.832
300.774
300.719
300.668
300.62
300.575
300.534
300.494
300.458
300.424
300.392
300.362
300.335
300.309
300.285
300.262
300.241
300.221
300.203
300.186
300.17
300.155
300.141
300.128
300.115
300.103
300.092
300.082
300.072
300.062
300.053
300.045
300.036
300.028
300.02
300.012
300.004
333.244
331.869
330.534
329.238
327.983
326.767
325.59
324.452
323.352
322.29
321.265
320.277
319.325
318.408
317.526
316.677
315.862
315.079
314.328
313.607
312.916
312.255
311.621
311.015
310.435
309.881
309.352
308.848
308.366
307.907
307.469
307.053
306.656
306.279
305.92
305.579
305.256
304.949
304.657
304.381
304.119
303.871
303.636
303.414
303.204
303.006
302.818
302.642
302.474
302.317
302.168
302.029
301.897
301.773
301.656
301.546
301.443
301.346
301.256
301.17
301.09
301.015
300.945
300.879
300.817
300.759
300.705
300.655
300.607
300.563
300.522
300.483
300.447
300.414
300.382
300.353
300.326
300.3
300.277
300.254
300.234
300.214
300.196
300.179
300.164
300.149
300.135
300.122
300.109
300.098
300.086
300.076
300.066
300.056
300.047
300.038
300.029
300.021
300.012
300.004
334.986
333.539
332.134
330.77
329.449
328.169
326.931
325.733
324.576
323.458
322.379
321.339
320.337
319.372
318.444
317.551
316.693
315.869
315.079
314.32
313.593
312.897
312.23
311.592
310.982
310.399
309.843
309.311
308.804
308.321
307.861
307.422
307.005
306.608
306.23
305.872
305.531
305.208
304.901
304.61
304.335
304.074
303.827
303.593
303.372
303.163
302.966
302.78
302.604
302.438
302.282
302.135
301.996
301.866
301.743
301.627
301.519
301.417
301.321
301.231
301.147
301.068
300.994
300.925
300.86
300.799
300.742
300.689
300.639
300.593
300.549
300.509
300.471
300.436
300.403
300.372
300.343
300.316
300.291
300.268
300.246
300.226
300.207
300.189
300.172
300.156
300.142
300.128
300.115
300.103
300.091
300.08
300.069
300.059
300.049
300.04
300.031
300.022
300.013
300.004
336.719
335.2
333.726
332.295
330.908
329.565
328.265
327.008
325.793
324.62
323.488
322.397
321.345
320.332
319.358
318.421
317.52
316.656
315.826
315.03
314.267
313.536
312.836
312.166
311.526
310.914
310.33
309.772
309.241
308.733
308.25
307.79
307.352
306.935
306.539
306.163
305.805
305.466
305.144
304.839
304.55
304.276
304.017
303.771
303.539
303.32
303.113
302.918
302.733
302.559
302.395
302.241
302.095
301.958
301.829
301.708
301.594
301.487
301.387
301.292
301.204
301.121
301.043
300.971
300.902
300.839
300.779
300.723
300.671
300.622
300.577
300.534
300.494
300.457
300.422
300.39
300.36
300.332
300.306
300.281
300.258
300.237
300.217
300.198
300.181
300.164
300.149
300.134
300.121
300.108
300.096
300.084
300.073
300.062
300.052
300.042
300.032
300.023
300.014
300.005
338.443
336.853
335.309
333.811
332.359
330.953
329.592
328.276
327.004
325.776
324.591
323.448
322.347
321.287
320.267
319.286
318.343
317.438
316.569
315.735
314.936
314.171
313.439
312.738
312.067
311.427
310.815
310.231
309.674
309.143
308.637
308.156
307.697
307.261
306.846
306.452
306.078
305.722
305.386
305.066
304.763
304.477
304.205
303.948
303.706
303.476
303.259
303.055
302.862
302.679
302.508
302.346
302.194
302.05
301.915
301.788
301.669
301.557
301.452
301.353
301.261
301.174
301.092
301.016
300.945
300.878
300.815
300.757
300.702
300.651
300.604
300.559
300.517
300.479
300.442
300.408
300.377
300.347
300.32
300.294
300.27
300.248
300.227
300.207
300.189
300.172
300.156
300.141
300.126
300.113
300.1
300.088
300.076
300.065
300.054
300.044
300.034
300.024
300.014
300.005
340.158
338.497
336.884
335.32
333.803
332.334
330.912
329.537
328.209
326.926
325.688
324.494
323.344
322.236
321.171
320.146
319.161
318.215
317.308
316.437
315.603
314.803
314.038
313.306
312.606
311.937
311.298
310.688
310.106
309.551
309.023
308.519
308.04
307.585
307.151
306.74
306.349
305.978
305.626
305.292
304.976
304.676
304.393
304.125
303.871
303.631
303.405
303.191
302.989
302.799
302.62
302.45
302.291
302.142
302.001
301.868
301.744
301.627
301.517
301.414
301.317
301.226
301.141
301.061
300.987
300.917
300.852
300.791
300.734
300.68
300.631
300.584
300.54
300.5
300.462
300.427
300.394
300.363
300.334
300.307
300.282
300.259
300.237
300.217
300.198
300.18
300.163
300.147
300.132
300.118
300.104
300.092
300.08
300.068
300.057
300.046
300.035
300.025
300.015
300.005
341.863
340.131
338.45
336.819
335.238
333.707
332.225
330.791
329.406
328.069
326.778
325.534
324.335
323.181
322.07
321.001
319.975
318.989
318.043
317.135
316.265
315.432
314.634
313.871
313.141
312.443
311.777
311.141
310.535
309.957
309.406
308.881
308.382
307.907
307.455
307.026
306.618
306.232
305.865
305.517
305.187
304.875
304.579
304.3
304.035
303.785
303.549
303.326
303.116
302.918
302.731
302.555
302.389
302.232
302.086
301.947
301.818
301.696
301.581
301.474
301.373
301.278
301.19
301.107
301.029
300.956
300.888
300.824
300.765
300.709
300.657
300.609
300.563
300.521
300.482
300.445
300.41
300.378
300.348
300.32
300.294
300.27
300.247
300.226
300.206
300.187
300.17
300.153
300.138
300.123
300.109
300.096
300.083
300.071
300.059
300.048
300.037
300.026
300.016
300.005
343.557
341.756
340.006
338.309
336.664
335.071
333.529
332.038
330.597
329.205
327.862
326.568
325.32
324.119
322.963
321.851
320.783
319.757
318.773
317.829
316.923
316.056
315.226
314.432
313.673
312.947
312.254
311.592
310.961
310.36
309.786
309.241
308.721
308.227
307.757
307.31
306.886
306.484
306.102
305.74
305.397
305.072
304.765
304.474
304.199
303.939
303.693
303.461
303.242
303.036
302.841
302.658
302.485
302.323
302.17
302.026
301.891
301.764
301.645
301.533
301.428
301.33
301.238
301.151
301.07
300.995
300.924
300.858
300.796
300.738
300.684
300.633
300.586
300.542
300.501
300.463
300.427
300.394
300.363
300.333
300.306
300.281
300.257
300.235
300.214
300.195
300.177
300.159
300.143
300.128
300.113
300.1
300.086
300.074
300.062
300.05
300.038
300.027
300.016
300.005
345.241
343.37
341.553
339.79
338.082
336.427
334.825
333.276
331.779
330.334
328.939
327.595
326.299
325.051
323.851
322.696
321.587
320.521
319.499
318.518
317.578
316.677
315.815
314.99
314.201
313.448
312.728
312.041
311.385
310.76
310.165
309.598
309.058
308.545
308.057
307.593
307.152
306.734
306.338
305.962
305.606
305.268
304.949
304.647
304.361
304.091
303.836
303.595
303.368
303.153
302.951
302.761
302.581
302.413
302.254
302.105
301.964
301.832
301.709
301.592
301.483
301.381
301.286
301.196
301.112
301.033
300.96
300.891
300.827
300.766
300.71
300.658
300.609
300.563
300.521
300.481
300.444
300.409
300.377
300.346
300.318
300.292
300.267
300.244
300.223
300.202
300.183
300.165
300.149
300.133
300.118
300.103
300.09
300.077
300.064
300.052
300.04
300.028
300.017
300.006
346.914
344.973
343.089
341.261
339.489
337.773
336.113
334.506
332.954
331.456
330.009
328.615
327.271
325.977
324.732
323.535
322.385
321.28
320.219
319.202
318.227
317.294
316.4
315.544
314.726
313.945
313.198
312.486
311.806
311.158
310.541
309.953
309.393
308.861
308.354
307.874
307.417
306.983
306.572
306.182
305.813
305.463
305.132
304.818
304.522
304.242
303.977
303.728
303.492
303.27
303.06
302.863
302.677
302.502
302.337
302.182
302.037
301.9
301.772
301.651
301.538
301.432
301.333
301.24
301.153
301.071
300.995
300.924
300.857
300.795
300.737
300.682
300.631
300.584
300.54
300.498
300.46
300.424
300.39
300.359
300.33
300.303
300.277
300.253
300.231
300.21
300.19
300.172
300.154
300.138
300.122
300.107
300.093
300.079
300.066
300.054
300.041
300.029
300.018
300.006
348.575
346.565
344.615
342.722
340.888
339.111
337.391
335.728
334.121
332.569
331.072
329.628
328.237
326.897
325.608
324.368
323.177
322.033
320.935
319.882
318.873
317.906
316.98
316.095
315.248
314.438
313.666
312.928
312.224
311.553
310.914
310.305
309.725
309.174
308.65
308.152
307.679
307.231
306.805
306.401
306.019
305.656
305.313
304.989
304.682
304.392
304.118
303.86
303.616
303.385
303.169
302.964
302.772
302.59
302.42
302.26
302.109
301.967
301.835
301.71
301.593
301.483
301.38
301.284
301.194
301.109
301.03
300.957
300.887
300.823
300.763
300.706
300.654
300.605
300.559
300.516
300.476
300.439
300.404
300.372
300.342
300.313
300.287
300.262
300.239
300.217
300.197
300.178
300.16
300.143
300.126
300.111
300.096
300.082
300.069
300.056
300.043
300.03
300.018
300.006
350.224
348.146
346.129
344.172
342.276
340.439
338.66
336.941
335.279
333.675
332.127
330.634
329.195
327.81
326.477
325.196
323.964
322.781
321.646
320.557
319.514
318.514
317.557
316.641
315.765
314.929
314.129
313.367
312.639
311.945
311.284
310.655
310.056
309.486
308.944
308.429
307.94
307.476
307.036
306.618
306.223
305.848
305.494
305.158
304.841
304.541
304.258
303.991
303.738
303.5
303.276
303.065
302.866
302.678
302.502
302.336
302.181
302.034
301.897
301.768
301.647
301.533
301.427
301.328
301.234
301.147
301.065
300.989
300.918
300.851
300.789
300.73
300.676
300.625
300.578
300.534
300.492
300.454
300.418
300.384
300.353
300.324
300.297
300.271
300.247
300.225
300.204
300.184
300.165
300.147
300.131
300.115
300.1
300.085
300.071
300.058
300.044
300.031
300.019
300.006
351.86
349.715
347.632
345.612
343.653
341.756
339.92
338.145
336.429
334.772
333.174
331.632
330.147
328.716
327.34
326.017
324.745
323.524
322.351
321.227
320.149
319.117
318.129
317.183
316.279
315.415
314.59
313.802
313.051
312.335
311.652
311.002
310.383
309.795
309.235
308.704
308.199
307.72
307.265
306.834
306.426
306.039
305.673
305.326
304.999
304.689
304.397
304.121
303.86
303.614
303.383
303.165
302.959
302.766
302.584
302.412
302.252
302.1
301.959
301.825
301.701
301.583
301.474
301.371
301.275
301.184
301.1
301.021
300.948
300.879
300.814
300.754
300.698
300.646
300.597
300.551
300.508
300.469
300.432
300.397
300.365
300.334
300.306
300.28
300.255
300.232
300.21
300.19
300.17
300.152
300.135
300.118
300.103
300.088
300.073
300.059
300.046
300.032
300.019
300.006
353.484
351.272
349.124
347.04
345.02
343.064
341.17
339.339
337.57
335.861
334.212
332.622
331.091
329.616
328.196
326.831
325.52
324.26
323.051
321.892
320.78
319.716
318.696
317.721
316.789
315.898
315.047
314.234
313.46
312.721
312.017
311.346
310.708
310.102
309.525
308.976
308.456
307.961
307.493
307.048
306.627
306.228
305.85
305.493
305.155
304.836
304.535
304.25
303.981
303.728
303.489
303.264
303.052
302.852
302.664
302.488
302.322
302.166
302.02
301.883
301.754
301.633
301.52
301.414
301.314
301.221
301.135
301.053
300.977
300.906
300.84
300.778
300.72
300.666
300.615
300.568
300.524
300.483
300.445
300.409
300.376
300.345
300.316
300.289
300.263
300.239
300.217
300.196
300.176
300.157
300.139
300.122
300.106
300.091
300.076
300.061
300.047
300.034
300.02
300.007
355.095
352.816
350.603
348.457
346.376
344.361
342.41
340.524
338.701
336.941
335.243
333.605
332.027
330.507
329.045
327.639
326.288
324.991
323.745
322.551
321.406
320.309
319.259
318.255
317.294
316.376
315.5
314.663
313.865
313.104
312.379
311.688
311.031
310.406
309.811
309.247
308.71
308.201
307.718
307.26
306.827
306.416
306.027
305.659
305.311
304.982
304.671
304.378
304.101
303.84
303.594
303.362
303.144
302.938
302.745
302.563
302.392
302.231
302.081
301.939
301.807
301.682
301.566
301.456
301.354
301.258
301.169
301.085
301.007
300.933
300.865
300.801
300.742
300.686
300.634
300.585
300.54
300.498
300.459
300.422
300.387
300.355
300.325
300.297
300.271
300.246
300.223
300.202
300.181
300.162
300.143
300.126
300.109
300.093
300.078
300.063
300.049
300.035
300.021
300.007
356.692
354.347
352.07
349.861
347.72
345.646
343.639
341.699
339.823
338.012
336.264
334.579
332.955
331.392
329.887
328.441
327.05
325.715
324.434
323.205
322.027
320.898
319.818
318.784
317.796
316.851
315.949
315.088
314.267
313.484
312.738
312.027
311.351
310.707
310.096
309.515
308.963
308.439
307.942
307.471
307.024
306.602
306.201
305.823
305.465
305.126
304.806
304.505
304.22
303.951
303.698
303.459
303.235
303.023
302.824
302.637
302.461
302.296
302.141
301.996
301.859
301.731
301.611
301.499
301.393
301.295
301.203
301.116
301.036
300.96
300.89
300.824
300.763
300.706
300.652
300.602
300.556
300.512
300.472
300.434
300.399
300.366
300.335
300.306
300.279
300.254
300.23
300.207
300.186
300.166
300.147
300.13
300.112
300.096
300.08
300.065
300.05
300.036
300.021
300.007
358.275
355.865
353.524
351.254
349.053
346.921
344.858
342.863
340.935
339.073
337.277
335.545
333.876
332.268
330.722
329.235
327.806
326.433
325.116
323.853
322.642
321.482
320.371
319.309
318.293
317.322
316.395
315.509
314.665
313.86
313.093
312.363
311.668
311.006
310.378
309.78
309.213
308.675
308.164
307.679
307.221
306.786
306.375
305.985
305.617
305.269
304.941
304.63
304.338
304.062
303.801
303.556
303.325
303.108
302.903
302.711
302.53
302.36
302.201
302.051
301.911
301.779
301.656
301.54
301.432
301.331
301.236
301.148
301.065
300.987
300.915
300.847
300.784
300.725
300.67
300.619
300.571
300.527
300.485
300.446
300.41
300.376
300.344
300.314
300.287
300.261
300.236
300.213
300.191
300.171
300.152
300.133
300.116
300.099
300.082
300.067
300.051
300.037
300.022
300.007
359.844
357.368
354.965
352.633
350.373
348.184
346.066
344.017
342.037
340.125
338.28
336.501
334.787
333.137
331.549
330.022
328.554
327.145
325.792
324.495
323.251
322.06
320.92
319.828
318.785
317.788
316.836
315.927
315.06
314.233
313.446
312.696
311.982
311.303
310.657
310.044
309.461
308.908
308.384
307.886
307.415
306.969
306.546
306.146
305.768
305.411
305.074
304.755
304.454
304.171
303.904
303.652
303.415
303.191
302.981
302.784
302.598
302.424
302.26
302.106
301.962
301.827
301.7
301.582
301.471
301.367
301.269
301.178
301.093
301.014
300.94
300.87
300.805
300.745
300.689
300.636
300.587
300.541
300.498
300.458
300.421
300.386
300.353
300.323
300.294
300.268
300.243
300.219
300.197
300.176
300.156
300.137
300.119
300.101
300.085
300.069
300.053
300.038
300.022
300.007
361.398
358.858
356.392
354
351.681
349.435
347.262
345.16
343.128
341.167
339.274
337.449
335.691
333.997
332.368
330.801
329.296
327.85
326.462
325.131
323.855
322.633
321.463
320.343
319.273
318.25
317.273
316.341
315.451
314.603
313.795
313.025
312.293
311.596
310.934
310.304
309.707
309.139
308.601
308.091
307.607
307.15
306.716
306.306
305.918
305.552
305.205
304.879
304.57
304.279
304.005
303.747
303.503
303.274
303.059
302.856
302.666
302.487
302.319
302.161
302.013
301.875
301.745
301.623
301.509
301.402
301.302
301.209
301.122
301.04
300.964
300.893
300.826
300.764
300.706
300.652
300.602
300.555
300.511
300.47
300.432
300.396
300.363
300.331
300.302
300.275
300.249
300.225
300.202
300.18
300.16
300.14
300.122
300.104
300.087
300.07
300.054
300.038
300.023
300.008
362.936
360.333
357.806
355.353
352.977
350.674
348.446
346.292
344.209
342.199
340.259
338.388
336.585
334.849
333.179
331.573
330.03
328.548
327.125
325.761
324.453
323.2
322.001
320.853
319.756
318.707
317.706
316.75
315.838
314.969
314.141
313.352
312.601
311.887
311.208
310.563
309.95
309.368
308.817
308.294
307.798
307.329
306.884
306.464
306.067
305.691
305.336
305.001
304.685
304.386
304.105
303.84
303.591
303.356
303.135
302.928
302.732
302.549
302.377
302.215
302.064
301.922
301.788
301.664
301.547
301.437
301.335
301.239
301.15
301.066
300.988
300.915
300.847
300.783
300.724
300.669
300.617
300.569
300.524
300.482
300.443
300.406
300.372
300.34
300.31
300.281
300.255