/*--------------------------------*- C++ -*----------------------------------*\
| =========                 |                                                 |
| \\      /  F ield         | OpenFOAM: The Open Source CFD Toolbox           |
|  \\    /   O peration     | Version:  2406                                  |
|   \\  /    A nd           | Website:  www.openfoam.com                      |
|    \\/     M anipulation  |                                                 |
\*---------------------------------------------------------------------------*/
FoamFile
{
    version     2.0;
    format      ascii;
    arch        "LSB;label=32;scalar=64";
    class       volScalarField;
    location    "45";
    object      gradTy;
}
// * * * * * * * * * * * * * * * * * * * * * * * * * * * * * * * * * * * * * //

dimensions      [0 -1 0 1 0 0 0];

internalField   nonuniform List<scalar> 
20000
(
300.895
285.972
271.628
257.85
244.627
231.947
219.796
208.16
197.025
186.379
176.207
166.494
157.226
148.39
139.97
131.954
124.325
117.072
110.179
103.634
97.4225
91.5322
85.9498
80.6627
75.6585
70.9251
66.4507
62.2238
58.2335
54.4687
50.9191
47.5744
44.4248
41.4607
38.6731
36.053
33.5919
31.2815
29.114
27.0818
25.1777
23.3945
21.7258
20.165
18.7061
17.3433
16.071
14.8839
13.777
12.7454
11.7847
10.8904
10.0585
9.28518
8.56661
7.89935
7.28011
6.70577
6.17337
5.68014
5.22347
4.80088
4.41006
4.04881
3.71509
3.40697
3.12265
2.86041
2.61868
2.39595
2.19085
2.00206
1.82837
1.66863
1.52178
1.38683
1.26285
1.14898
1.04441
0.948382
0.860203
0.779217
0.704816
0.63643
0.573529
0.515619
0.462235
0.412944
0.36734
0.325042
0.28569
0.248945
0.214486
0.182007
0.151217
0.121836
0.0935947
0.0662315
0.0394911
0.0131225
300.821
285.901
271.56
257.786
244.567
231.89
219.741
208.108
196.977
186.333
176.163
166.453
157.187
148.353
139.936
131.921
124.295
117.043
110.152
103.608
97.3985
91.5096
85.9286
80.6428
75.6398
70.9076
66.4343
62.2085
58.2191
54.4553
50.9065
47.5626
44.4138
41.4505
38.6636
36.0441
33.5836
31.2738
29.1068
27.0752
25.1715
23.3888
21.7204
20.16
18.7015
17.339
16.067
14.8802
13.7736
12.7423
11.7818
10.8877
10.0561
9.28289
8.5645
7.89741
7.27832
6.70411
6.17185
5.67874
5.22218
4.7997
4.40897
4.04781
3.71418
3.40613
3.12187
2.8597
2.61803
2.39536
2.19031
2.00157
1.82792
1.66822
1.52141
1.38649
1.26254
1.1487
1.04415
0.948148
0.859991
0.779025
0.704642
0.636273
0.573388
0.515491
0.462121
0.412842
0.36725
0.324962
0.28562
0.248884
0.214433
0.181962
0.15118
0.121806
0.0935717
0.0662152
0.0394813
0.0131192
300.673
285.76
271.426
257.659
244.446
231.775
219.633
208.006
196.88
186.241
176.076
166.371
157.11
148.28
139.867
131.856
124.233
116.985
110.097
103.557
97.3504
91.4645
85.8862
80.603
75.6025
70.8726
66.4015
62.1778
58.1904
54.4284
50.8814
47.5391
44.3919
41.43
38.6445
36.0263
33.567
31.2584
29.0925
27.0618
25.159
23.3772
21.7097
20.1501
18.6923
17.3305
16.0591
14.8729
13.7668
12.736
11.7759
10.8824
10.0511
9.2783
8.56027
7.89351
7.27472
6.7008
6.1688
5.67594
5.2196
4.79733
4.40679
4.04581
3.71234
3.40445
3.12033
2.85829
2.61674
2.39418
2.18923
2.00058
1.82702
1.6674
1.52066
1.38581
1.26192
1.14813
1.04363
0.94768
0.859566
0.778641
0.704294
0.635959
0.573105
0.515237
0.461893
0.412639
0.367069
0.324802
0.285479
0.248761
0.214327
0.181872
0.151105
0.121746
0.0935256
0.0661826
0.0394619
0.0131128
300.45
285.549
271.225
257.468
244.265
231.604
219.47
207.852
196.734
186.103
175.946
166.247
156.994
148.17
139.763
131.758
124.141
116.898
110.016
103.48
97.2784
91.3968
85.8227
80.5433
75.5465
70.8201
66.3523
62.1317
58.1473
54.3881
50.8437
47.5039
44.359
41.3994
38.6159
35.9996
33.5421
31.2352
29.0709
27.0418
25.1404
23.3599
21.6936
20.1352
18.6784
17.3176
16.0472
14.8619
13.7566
12.7265
11.7672
10.8743
10.0437
9.27143
8.55393
7.88766
7.26934
6.69584
6.16423
5.67174
5.21574
4.79378
4.40353
4.04282
3.70959
3.40193
3.11802
2.85618
2.6148
2.39241
2.18761
1.9991
1.82566
1.66616
1.51953
1.38478
1.26099
1.14728
1.04286
0.946979
0.85893
0.778064
0.703773
0.635488
0.572681
0.514856
0.461551
0.412333
0.366797
0.324561
0.285268
0.248577
0.214169
0.181738
0.150993
0.121656
0.0934564
0.0661337
0.0394327
0.0131031
300.153
285.267
270.957
257.214
244.024
231.375
219.253
207.646
196.54
185.92
175.772
166.083
156.839
148.024
139.625
131.628
124.019
116.783
109.907
103.378
97.1823
91.3065
85.7379
80.4638
75.4719
70.7501
66.2867
62.0703
58.0898
54.3343
50.7935
47.457
44.3152
41.3585
38.5777
35.9641
33.509
31.2043
29.0422
27.015
25.1156
23.3368
21.6722
20.1153
18.66
17.3005
16.0314
14.8472
13.743
12.714
11.7556
10.8636
10.0337
9.26228
8.54548
7.87987
7.26216
6.68923
6.15814
5.66613
5.21059
4.78904
4.39918
4.03883
3.70593
3.39857
3.11494
2.85336
2.61222
2.39005
2.18545
1.99713
1.82386
1.66452
1.51803
1.38341
1.25974
1.14615
1.04183
0.946044
0.858082
0.777296
0.703078
0.634861
0.572115
0.514347
0.461095
0.411926
0.366435
0.324241
0.284986
0.248332
0.213957
0.181558
0.150844
0.121536
0.0933642
0.0660684
0.0393938
0.0130901
299.782
284.914
270.623
256.896
243.723
231.089
218.983
207.39
196.297
185.69
175.555
165.878
156.645
147.841
139.453
131.465
123.865
116.639
109.771
103.25
97.0623
91.1937
85.632
80.3644
75.3786
70.6627
66.2048
61.9936
58.018
54.2672
50.7307
47.3984
44.2604
41.3074
38.53
35.9196
33.4676
31.1658
29.0063
26.9817
25.0845
23.308
21.6454
20.0904
18.6369
17.2792
16.0115
14.8288
13.726
12.6983
11.7411
10.8501
10.0213
9.25083
8.53492
7.87014
7.25319
6.68096
6.15054
5.65913
5.20415
4.78312
4.39375
4.03384
3.70135
3.39437
3.1111
2.84983
2.60899
2.38709
2.18275
1.99466
1.82161
1.66246
1.51616
1.38171
1.25818
1.14473
1.04055
0.944875
0.857022
0.776336
0.70221
0.634077
0.571409
0.513712
0.460526
0.411417
0.365982
0.323841
0.284634
0.248025
0.213693
0.181334
0.150658
0.121386
0.0932489
0.0659869
0.0393452
0.013074
299.337
284.491
270.221
256.515
243.361
230.746
218.658
207.082
196.005
185.414
175.295
165.632
156.412
147.622
139.246
131.27
123.681
116.465
109.609
103.097
96.9183
91.0584
85.5049
80.2451
75.2668
70.5578
66.1066
61.9016
57.9319
54.1867
50.6554
47.328
44.1948
41.2461
38.4729
35.8663
33.4179
31.1196
28.9633
26.9416
25.0473
23.2734
21.6133
20.0606
18.6093
17.2535
15.9878
14.8068
13.7056
12.6794
11.7236
10.834
10.0065
9.23711
8.52226
7.85846
7.24242
6.67105
6.14141
5.65074
5.19643
4.77603
4.38723
4.02785
3.69586
3.38934
3.10648
2.8456
2.60512
2.38355
2.17951
1.9917
1.81891
1.65999
1.51391
1.37966
1.25632
1.14303
1.039
0.943474
0.855751
0.775185
0.701168
0.633136
0.570561
0.51295
0.459843
0.410807
0.36544
0.32336
0.284212
0.247657
0.213376
0.181065
0.150435
0.121206
0.0931107
0.065889
0.0392869
0.0130546
298.819
283.998
269.753
256.07
242.939
230.346
218.279
206.723
195.666
185.093
174.991
165.345
156.141
147.366
139.004
131.043
123.467
116.264
109.419
102.919
96.7503
90.9006
85.3567
80.1061
75.1363
70.4356
65.992
61.7944
57.8316
54.0928
50.5676
47.246
44.1182
41.1746
38.4062
35.8042
33.36
31.0656
28.9131
26.8949
25.0039
23.2331
21.5759
20.0259
18.577
17.2236
15.9601
14.7812
13.6819
12.6574
11.7033
10.8153
9.98914
9.2211
8.50749
7.84484
7.22988
6.65949
6.13077
5.64095
5.18742
4.76775
4.37963
4.02087
3.68946
3.38347
3.1011
2.84067
2.60061
2.37942
2.17574
1.98825
1.81575
1.65712
1.51128
1.37727
1.25414
1.14105
1.0372
0.941839
0.854269
0.773842
0.699954
0.63204
0.569573
0.512062
0.459046
0.410096
0.364807
0.3228
0.28372
0.247228
0.213007
0.180752
0.150174
0.120996
0.0929494
0.0657749
0.0392188
0.013032
298.226
283.435
269.218
255.563
242.458
229.89
217.846
206.313
195.278
184.726
174.644
165.017
155.832
147.074
138.729
130.783
123.222
116.033
109.202
102.715
96.5585
90.7204
85.1875
79.9473
74.9874
70.2959
65.8612
61.6719
57.7169
53.9855
50.4674
47.1524
44.0307
41.093
38.3301
35.7332
33.2939
31.004
28.8558
26.8416
24.9543
23.187
21.5331
19.9862
18.5402
17.1895
15.9284
14.7519
13.6548
12.6324
11.6801
10.7938
9.96934
9.20282
8.49063
7.82929
7.21554
6.64629
6.11862
5.62976
5.17714
4.7583
4.37094
4.0129
3.68215
3.37676
3.09495
2.83504
2.59545
2.37471
2.17142
1.98431
1.81216
1.65383
1.50829
1.37454
1.25166
1.13879
1.03515
0.939973
0.852576
0.772308
0.698567
0.630787
0.568444
0.511047
0.458137
0.409283
0.364084
0.322161
0.283158
0.246738
0.212585
0.180394
0.149877
0.120756
0.0927653
0.0656446
0.0391411
0.0130062
297.56
282.802
268.617
254.992
241.916
229.376
217.36
205.853
194.842
184.314
174.254
164.649
155.484
146.745
138.419
130.491
122.947
115.774
108.958
102.485
96.3429
90.5179
84.9973
79.7687
74.8199
70.1389
65.7141
61.5341
57.588
53.865
50.3547
47.0471
43.9324
41.0012
38.2445
35.6534
33.2196
30.9348
28.7913
26.7817
24.8986
23.1353
21.485
19.9415
18.4988
17.1511
15.8929
14.7189
13.6243
12.6041
11.6541
10.7697
9.94707
9.18227
8.47167
7.81181
7.19943
6.63145
6.10495
5.61719
5.16558
4.74768
4.36118
4.00394
3.67392
3.36922
3.08804
2.82871
2.58966
2.3694
2.16657
1.97988
1.80811
1.65014
1.50492
1.37147
1.24886
1.13625
1.03284
0.937874
0.850672
0.770584
0.697007
0.629379
0.567175
0.509906
0.457114
0.40837
0.363271
0.321442
0.282526
0.246188
0.21211
0.179991
0.149542
0.120487
0.0925582
0.0654981
0.0390538
0.0129772
296.821
282.1
267.949
254.358
241.315
228.806
216.819
205.341
194.358
183.856
173.821
164.24
155.097
146.381
138.075
130.167
122.642
115.486
108.687
102.231
96.1035
90.2929
84.7861
79.5705
74.634
69.9646
65.5508
61.3812
57.4449
53.7311
50.2296
46.9302
43.8232
40.8993
38.1494
35.5648
33.137
30.8579
28.7198
26.7151
24.8367
23.0778
21.4316
19.892
18.4528
17.1085
15.8534
14.6824
13.5904
12.5728
11.6251
10.743
9.92236
9.15946
8.45062
7.7924
7.18154
6.61497
6.08978
5.60324
5.15275
4.73588
4.35035
3.99399
3.6648
3.36085
3.08037
2.82168
2.58322
2.36352
2.16119
1.97496
1.80362
1.64604
1.50118
1.36806
1.24576
1.13343
1.03027
0.935544
0.848559
0.76867
0.695276
0.627816
0.565767
0.50864
0.455979
0.407355
0.362369
0.320643
0.281824
0.245576
0.211583
0.179544
0.149171
0.120187
0.0923284
0.0653354
0.0389568
0.0129449
296.008
281.327
267.216
253.662
240.654
228.18
216.226
204.779
193.826
183.352
173.345
163.79
154.673
145.98
137.697
129.81
122.306
115.17
108.39
101.951
95.8404
90.0457
84.5539
79.3526
74.4297
69.7731
65.3713
61.2132
57.2876
53.584
50.092
46.8017
43.7032
40.7873
38.045
35.4674
33.0463
30.7735
28.6412
26.642
24.7687
23.0146
21.3729
19.8375
18.4023
17.0616
15.81
14.6422
13.5532
12.5384
11.5933
10.7135
9.89519
9.13438
8.42748
7.77107
7.16188
6.59686
6.07311
5.5879
5.13864
4.72292
4.33844
3.98306
3.65476
3.35165
3.07194
2.81396
2.57615
2.35705
2.15528
1.96955
1.79868
1.64154
1.49707
1.36432
1.24235
1.13033
1.02745
0.932984
0.846237
0.766566
0.693373
0.626097
0.564218
0.507248
0.454731
0.40624
0.361377
0.319766
0.281053
0.244904
0.211004
0.179053
0.148762
0.119859
0.0920757
0.0651566
0.0388502
0.0129095
295.123
280.486
266.416
252.903
239.934
227.497
215.579
204.166
193.246
182.804
172.826
163.3
154.21
145.543
137.285
129.422
121.94
114.826
108.065
101.646
95.5537
89.7763
84.301
79.1152
74.2069
69.5643
65.1757
61.03
57.1162
53.4237
49.9422
46.6616
43.5725
40.6653
37.9312
35.3613
32.9474
30.6814
28.5555
26.5623
24.6946
22.9457
21.309
19.7782
18.3473
17.0106
15.7627
14.5983
13.5127
12.5009
11.5586
10.6815
9.86559
9.10705
8.40227
7.74782
7.14045
6.57713
6.05494
5.57118
5.12327
4.70879
4.32546
3.97114
3.64383
3.34162
3.06275
2.80554
2.56844
2.35
2.14883
1.96366
1.7933
1.63663
1.4926
1.36023
1.23863
1.12694
1.02438
0.930193
0.843705
0.764273
0.691299
0.624225
0.56253
0.50573
0.45337
0.405025
0.360296
0.318809
0.280212
0.244172
0.210373
0.178517
0.148317
0.1195
0.0918003
0.0649618
0.038734
0.0128709
294.164
279.575
265.551
252.082
239.155
226.758
214.879
203.503
192.618
182.21
172.265
162.769
153.709
145.07
136.839
129.002
121.544
114.453
107.714
101.316
95.2433
89.4847
84.0272
78.8583
73.9659
69.3384
64.9641
60.8318
56.9307
53.2502
49.78
46.5101
43.4309
40.5332
37.808
35.2465
32.8404
30.5817
28.4627
26.476
24.6144
22.8712
21.2398
19.7139
18.2877
16.9553
15.7115
14.5509
13.4688
12.4603
11.521
10.6468
9.83355
9.07748
8.37498
7.72265
7.11727
6.55577
6.03528
5.55309
5.10663
4.69349
4.31141
3.95825
3.632
3.33077
3.0528
2.79643
2.5601
2.34236
2.14185
1.95728
1.78748
1.63131
1.48775
1.35582
1.23461
1.12328
1.02105
0.927172
0.840966
0.761792
0.689054
0.622198
0.560704
0.504088
0.451898
0.40371
0.359127
0.317774
0.279302
0.243379
0.20969
0.177938
0.147836
0.119112
0.0915023
0.0647509
0.0386082
0.0128291
293.133
278.595
264.62
251.198
238.317
225.964
214.126
202.79
191.943
181.571
171.661
162.199
153.17
144.562
136.36
128.55
121.118
114.052
107.337
100.96
94.9095
89.1711
83.7326
78.5819
73.7067
69.0953
64.7364
60.6186
56.7312
53.0635
49.6055
46.3471
43.2787
40.3912
37.6754
35.1229
32.7253
30.4745
28.363
26.3832
24.5282
22.791
21.1653
19.6448
18.2236
16.8959
15.6564
14.4999
13.4216
12.4166
11.4807
10.6095
9.79908
9.04566
8.34563
7.69559
7.09232
6.53279
6.01413
5.53362
5.08873
4.67704
4.2963
3.94438
3.61927
3.3191
3.0421
2.78663
2.55113
2.33416
2.13434
1.95043
1.78121
1.62559
1.48253
1.35107
1.23028
1.11935
1.01747
0.923923
0.838019
0.759122
0.686639
0.620017
0.558739
0.502322
0.450315
0.402296
0.357868
0.316661
0.278324
0.242526
0.208955
0.177314
0.147318
0.118695
0.0911817
0.064524
0.038473
0.0127842
292.03
277.546
263.624
250.253
237.42
225.113
213.32
202.026
191.22
180.888
171.015
161.588
152.594
144.018
135.846
128.066
120.662
113.622
106.933
100.58
94.5522
88.8354
83.4174
78.2861
73.4292
68.8352
64.4927
60.3904
56.5176
52.8638
49.4187
46.1726
43.1158
40.2391
37.5336
34.9907
32.6021
30.3598
28.2562
26.2839
24.4358
22.7052
21.0857
19.5709
18.155
16.8323
15.5975
14.4454
13.371
12.3699
11.4374
10.5695
9.7622
9.01161
8.31422
7.66662
7.06562
6.5082
5.99149
5.5128
5.06958
4.65944
4.28013
3.92953
3.60564
3.3066
3.03065
2.77614
2.54153
2.32537
2.12631
1.94308
1.77451
1.61948
1.47695
1.34598
1.22565
1.11514
1.01364
0.920446
0.834865
0.756265
0.684055
0.617684
0.556637
0.500432
0.44862
0.400782
0.356521
0.315469
0.277276
0.241614
0.208169
0.176647
0.146764
0.118248
0.0908386
0.0642812
0.0383282
0.0127361
290.854
276.429
262.563
249.245
236.464
224.207
212.461
201.213
190.451
180.16
170.327
160.938
151.98
143.438
135.3
127.55
120.176
113.165
106.502
100.176
94.1716
88.4778
83.0817
77.9709
73.1337
68.5582
64.2331
60.1473
56.2901
52.651
49.2198
45.9867
42.9423
40.0772
37.3825
34.8499
32.4709
30.2376
28.1425
26.1781
24.3375
22.6139
21.0008
19.4921
18.0819
16.7646
15.5347
14.3872
13.3172
12.3201
11.3914
10.527
9.7229
8.97534
8.28075
7.63576
7.03719
6.48201
5.96737
5.49061
5.04917
4.64069
4.2629
3.91371
3.59113
3.29329
3.01845
2.76497
2.5313
2.31601
2.11775
1.93526
1.76737
1.61296
1.47101
1.34056
1.22072
1.11065
1.00956
0.916742
0.831505
0.753222
0.681303
0.615198
0.554397
0.498418
0.446815
0.399169
0.355087
0.3142
0.276161
0.240641
0.207332
0.175936
0.146173
0.117772
0.0904731
0.0640226
0.038174
0.0126848
289.607
275.243
261.437
248.177
235.45
223.245
211.55
200.351
189.634
179.387
169.596
160.248
151.328
142.823
134.719
127.003
119.661
112.68
106.046
99.746
93.7678
88.0984
82.7254
77.6366
72.8201
68.2642
63.9576
59.8894
56.0487
52.4252
49.0088
45.7895
42.7581
39.9053
37.2222
34.7004
32.3316
30.108
28.0218
26.0658
24.2331
22.5169
20.9107
19.4085
18.0044
16.6927
15.4681
14.3255
13.2601
12.2673
11.3426
10.4819
9.68121
8.93685
8.24524
7.60302
7.00701
6.45421
5.94179
5.46706
5.02752
4.62079
4.24462
3.89693
3.57573
3.27917
3.00551
2.75311
2.52045
2.30608
2.10867
1.92697
1.75979
1.60604
1.4647
1.33482
1.21549
1.10589
1.00524
0.912812
0.82794
0.749992
0.678382
0.612561
0.55202
0.496281
0.4449
0.397458
0.353565
0.312853
0.274977
0.23961
0.206443
0.175182
0.145546
0.117267
0.0900852
0.0637481
0.0380103
0.0126304
288.288
273.99
260.247
247.047
234.378
222.229
210.587
199.438
188.771
178.57
168.824
159.518
150.639
142.173
134.106
126.425
119.116
112.167
105.563
99.2918
93.3409
87.6973
82.3487
77.2831
72.4885
67.9533
63.6664
59.6167
55.7935
52.1865
48.7856
45.5811
42.5634
39.7236
37.0528
34.5424
32.1844
29.9709
27.8942
25.9472
24.1228
22.4144
20.8155
19.3201
17.9224
16.6167
15.3977
14.2603
13.1997
12.2114
11.2909
10.4341
9.63713
8.89616
8.2077
7.5684
6.97511
6.42482
5.91473
5.44217
5.00463
4.59975
4.2253
3.87919
3.55945
3.26424
2.99183
2.74058
2.50897
2.29558
2.09907
1.91819
1.75178
1.59873
1.45804
1.32874
1.20995
1.10085
1.00066
0.908656
0.824171
0.746578
0.675293
0.609772
0.549507
0.494022
0.442874
0.395648
0.351955
0.311429
0.273725
0.238519
0.205503
0.174384
0.144884
0.116734
0.0896752
0.0634579
0.0378373
0.0125729
286.899
272.669
258.992
245.856
233.248
221.158
209.571
198.477
187.861
177.71
168.01
158.749
149.913
141.487
133.459
125.815
118.542
111.626
105.054
98.8132
92.8909
87.2745
81.9517
76.9105
72.139
67.6257
63.3595
59.3293
55.5245
51.9349
48.5504
45.3613
42.3582
39.5321
36.8741
34.3759
32.0293
29.8264
27.7597
25.8221
24.0065
22.3063
20.7152
19.227
17.836
16.5366
15.3234
14.1915
13.1361
12.1525
11.2365
10.3838
9.59067
8.85328
8.16813
7.53192
6.94148
6.39385
5.88622
5.41594
4.98051
4.57758
4.20493
3.86049
3.54229
3.24851
2.9774
2.72737
2.49688
2.28452
2.08895
1.90895
1.74333
1.59102
1.45101
1.32233
1.20412
1.09555
0.995836
0.904276
0.820198
0.74298
0.672039
0.606833
0.546858
0.491641
0.44074
0.393741
0.350259
0.309928
0.272406
0.237369
0.204513
0.173544
0.144186
0.116171
0.089243
0.0631521
0.0376549
0.0125123
285.438
271.281
257.674
244.604
232.061
220.032
208.504
197.466
186.904
176.805
167.155
157.941
149.15
140.767
132.78
125.175
117.939
111.058
104.519
98.3101
92.418
86.8302
81.5345
76.5189
71.7717
67.2815
63.0369
59.0272
55.2419
51.6705
48.3032
45.1304
42.1426
39.3308
36.6864
34.2009
31.8662
29.6745
27.6184
25.6906
23.8843
22.1927
20.6097
19.1291
17.7452
16.4524
15.2454
14.1193
13.0692
12.0907
11.1793
10.331
9.54185
8.80821
8.12655
7.49357
6.90614
6.3613
5.85625
5.38837
4.95515
4.55427
4.18352
3.84084
3.52426
3.23197
2.96225
2.71348
2.48417
2.27289
2.07832
1.89923
1.73446
1.58293
1.44362
1.3156
1.19799
1.08997
0.990766
0.899673
0.816023
0.739198
0.668618
0.603744
0.544075
0.489138
0.438496
0.391737
0.348476
0.30835
0.271019
0.236161
0.203472
0.172661
0.143452
0.11558
0.0887888
0.0628307
0.0374633
0.0124487
283.907
269.826
256.291
243.292
230.816
218.852
207.386
196.407
185.902
175.857
166.258
157.094
148.35
140.012
132.068
124.504
117.306
110.462
103.958
97.7828
91.9222
86.3644
81.0972
76.1085
71.3868
66.9206
62.6988
58.7106
54.9456
51.3934
48.0442
44.8883
41.9165
39.1199
36.4896
34.0174
31.6953
29.5154
27.4703
25.5528
23.7562
22.0737
20.4992
19.0265
17.65
16.3641
15.1636
14.0436
12.9991
12.0258
11.1193
10.2756
9.49067
8.76096
8.08296
7.45338
6.8691
6.32718
5.82484
5.35946
4.92857
4.52985
4.16109
3.82024
3.50536
3.21464
2.94636
2.69893
2.47084
2.2607
2.06717
1.88904
1.72516
1.57444
1.43588
1.30855
1.19157
1.08412
0.985453
0.894848
0.811647
0.735233
0.665032
0.600507
0.541157
0.486515
0.436145
0.389637
0.346607
0.306697
0.269566
0.234895
0.202381
0.171735
0.142683
0.11496
0.0883126
0.0624937
0.0372624
0.0123819
282.306
268.304
254.846
241.92
229.514
217.617
206.217
195.3
184.853
174.865
165.321
156.208
147.513
139.222
131.323
123.801
116.644
109.839
103.372
97.2313
91.4039
85.8774
80.6398
75.6793
70.9842
66.5432
62.3452
58.3795
54.6357
51.1035
47.7732
44.6352
41.6802
38.8993
36.2838
33.8256
31.5165
29.3489
27.3154
25.4087
23.6222
21.9492
20.3836
18.9192
17.5505
16.2718
15.0781
13.9644
12.9258
11.958
11.0566
10.2176
9.43715
8.71156
8.03738
7.41135
6.83037
6.2915
5.792
5.32924
4.90078
4.5043
4.13762
3.79869
3.48559
3.19651
2.92975
2.68371
2.45691
2.24795
2.05552
1.87839
1.71543
1.56556
1.42778
1.30117
1.18485
1.07801
0.979896
0.889802
0.807071
0.731088
0.661282
0.597121
0.538106
0.483772
0.433686
0.38744
0.344653
0.304967
0.268046
0.23357
0.201239
0.170766
0.141878
0.114312
0.0878147
0.0621414
0.0370523
0.0123121
280.635
266.717
253.338
240.488
228.156
216.329
204.996
194.144
183.759
173.83
164.342
155.284
146.64
138.398
130.546
123.069
115.954
109.189
102.76
96.6559
90.8629
85.3692
80.1626
75.2314
70.5641
66.1494
61.9762
58.034
54.3124
50.8011
47.4905
44.371
41.4335
38.669
36.0691
33.6254
31.33
29.1752
27.1537
25.2583
23.4824
21.8193
20.2629
18.8073
17.4466
16.1755
14.9889
13.8817
12.8493
11.8872
10.9912
10.1572
9.3813
8.66
7.98982
7.36749
6.78994
6.25427
5.75772
5.2977
4.87178
4.47765
4.11314
3.77621
3.46497
3.17759
2.91241
2.66783
2.44237
2.23465
2.04335
1.86728
1.70528
1.55629
1.41933
1.29347
1.17784
1.07163
0.974098
0.884537
0.802295
0.726762
0.657369
0.593587
0.534921
0.480909
0.431119
0.385147
0.342614
0.303163
0.26646
0.232188
0.200049
0.169756
0.141039
0.113635
0.0872951
0.0617737
0.0368331
0.0122392
278.895
265.063
251.767
238.997
226.741
214.988
203.725
192.94
182.62
172.752
163.324
154.321
145.731
137.54
129.736
122.306
115.235
108.512
102.123
96.0566
90.2996
84.8399
79.6656
74.765
70.1266
65.7392
61.592
57.6742
53.9756
50.4861
47.196
44.0959
41.1766
38.4293
35.8455
33.4169
31.1358
28.9943
26.9853
25.1017
23.3368
21.684
20.1373
18.6907
17.3384
16.0753
14.896
13.7957
12.7697
11.8135
10.923
10.0942
9.32314
8.60631
7.94028
7.32181
6.74785
6.21549
5.72202
5.26486
4.84158
4.44988
4.08764
3.7528
3.44348
3.15789
2.89435
2.65129
2.42723
2.22079
2.03069
1.8557
1.6947
1.54665
1.41053
1.28545
1.17054
1.06499
0.968059
0.879054
0.797321
0.722256
0.653294
0.589908
0.531605
0.477928
0.428447
0.38276
0.34049
0.301284
0.264808
0.230749
0.198809
0.168704
0.140164
0.112931
0.086754
0.0613908
0.0366048
0.0121634
277.087
263.344
250.134
237.447
225.271
213.594
202.404
191.689
181.436
171.632
162.264
153.32
144.786
136.648
128.895
121.512
114.488
107.808
101.461
95.4337
89.7139
84.2896
79.1489
74.2801
69.6718
65.3129
61.1925
57.3002
53.6256
50.1587
46.8899
43.8099
40.9095
38.1801
35.613
33.2002
30.9338
28.8063
26.8103
24.9389
23.1854
21.5434
20.0067
18.5694
17.226
15.971
14.7994
13.7062
12.6868
11.7369
10.8522
10.0287
9.26267
8.5505
7.88879
7.27433
6.70409
6.17519
5.68491
5.23072
4.81018
4.42103
4.06113
3.72847
3.42115
3.13741
2.87558
2.6341
2.41149
2.20639
2.01752
1.84367
1.68371
1.53662
1.40139
1.27711
1.16294
1.05808
0.961782
0.873353
0.792151
0.717573
0.649058
0.586082
0.528158
0.474829
0.425669
0.380278
0.338282
0.29933
0.263091
0.229253
0.19752
0.16761
0.139255
0.112199
0.0861915
0.0609927
0.0363674
0.0120845
275.209
261.56
248.44
235.839
223.745
212.147
201.033
190.39
180.207
170.469
161.165
152.281
143.805
135.723
128.022
120.689
113.712
107.078
100.774
94.7871
89.1061
83.7186
78.6127
73.7769
69.1998
64.8704
60.778
56.912
53.2623
49.8189
46.5723
43.5131
40.6324
37.9214
35.3717
32.9753
30.7243
28.6111
26.6287
24.77
23.0284
21.3975
19.8712
18.4436
17.1093
15.8628
14.6991
13.6133
12.6009
11.6574
10.7787
9.96077
9.19992
8.49257
7.83534
7.22505
6.65867
6.13335
5.6464
5.19528
4.77759
4.39108
4.03362
3.70321
3.39798
3.11616
2.8561
2.61625
2.39515
2.19144
2.00385
1.83118
1.67231
1.52621
1.39189
1.26846
1.15507
1.05091
0.955267
0.867437
0.786785
0.712712
0.644661
0.582112
0.524581
0.471613
0.422785
0.377702
0.335991
0.297302
0.261309
0.2277
0.196182
0.166475
0.138312
0.111439
0.0856077
0.0605796
0.0361211
0.0120027
273.264
259.711
246.684
234.172
222.164
210.648
199.612
189.045
178.933
169.264
160.026
151.205
142.788
134.763
127.117
119.836
112.909
106.321
100.061
94.1172
88.4764
83.1269
78.0571
73.2555
68.7107
64.4119
60.3484
56.5098
52.8858
49.4668
46.2431
43.2056
40.3452
37.6534
35.1218
32.7422
30.5071
28.4089
26.4405
24.5949
22.8656
21.2462
19.7307
18.3133
16.9884
15.7507
14.5952
13.5171
12.5118
11.575
10.7025
9.89038
9.1349
8.43255
7.77997
7.17399
6.61161
6.09001
5.6065
5.15857
4.74383
4.36005
4.00511
3.67704
3.37396
3.09414
2.83592
2.59776
2.37823
2.17596
1.98969
1.81824
1.66049
1.51542
1.38206
1.2595
1.1469
1.04349
0.948516
0.861308
0.781225
0.707676
0.640106
0.577999
0.520874
0.46828
0.419798
0.375033
0.333616
0.295202
0.259463
0.226091
0.194795
0.165298
0.137335
0.110651
0.0850028
0.0601515
0.0358658
0.0119178
271.252
257.799
244.867
232.447
220.527
209.096
198.142
187.652
177.615
168.018
158.847
150.091
141.737
133.771
126.181
118.954
112.077
105.538
99.3245
93.4241
87.8248
82.5147
77.4822
72.716
68.2047
63.9376
59.904
56.0936
52.4963
49.1025
45.9026
42.8874
40.0481
37.3761
34.8631
32.5011
30.2825
28.1997
26.2458
24.4138
22.6972
21.0898
19.5854
18.1784
16.8633
15.6347
14.4877
13.4176
12.4197
11.4898
10.6237
9.81754
9.06763
8.37045
7.72268
7.12116
6.56292
6.04516
5.56521
5.12058
4.70889
4.32794
3.97562
3.64996
3.34912
3.07135
2.81504
2.57863
2.36071
2.15993
1.97504
1.80485
1.64826
1.50426
1.37188
1.25022
1.13846
1.0358
0.941532
0.854965
0.775473
0.702465
0.635392
0.573743
0.517038
0.464832
0.416707
0.372271
0.33116
0.293028
0.257552
0.224426
0.193361
0.164081
0.136324
0.109837
0.0843769
0.0597086
0.0356018
0.0118301
269.172
255.822
242.99
230.665
218.837
207.493
196.623
186.214
176.254
166.73
157.63
148.941
140.65
132.745
125.214
118.042
111.218
104.729
98.5631
92.7079
87.1515
81.8822
76.8883
72.1585
67.6818
63.4474
59.4448
55.6636
52.0939
48.7261
45.5507
42.5586
39.7411
37.0896
34.5958
32.252
30.0503
27.9835
26.0446
24.2267
22.5232
20.9281
19.4353
18.0391
16.734
15.5149
14.3767
13.3147
12.3245
11.4017
10.5423
9.74228
8.99812
8.30629
7.66348
7.06657
6.51261
5.99882
5.52255
5.08132
4.6728
4.29476
3.94514
3.62198
3.32345
3.04781
2.79346
2.55887
2.34262
2.14338
1.9599
1.79101
1.63563
1.49273
1.36136
1.24064
1.12973
1.02786
0.934315
0.848412
0.769529
0.69708
0.630522
0.569345
0.513075
0.461269
0.413513
0.369418
0.328622
0.290782
0.255578
0.222706
0.191879
0.162824
0.135279
0.108995
0.0837302
0.059251
0.0353289
0.0117394
267.027
253.783
241.053
228.826
217.092
205.839
195.056
184.729
174.848
165.401
156.373
147.753
139.529
131.687
124.215
117.101
110.331
103.894
97.7773
91.9689
86.4568
81.2294
76.2753
71.5833
67.1423
62.9416
58.9709
55.2198
51.6786
48.3376
45.1876
42.2194
39.4243
36.7939
34.3201
31.9949
29.8108
27.7605
25.837
24.0335
22.3437
20.7613
19.2804
17.8953
16.6006
15.3912
14.2621
13.2086
12.2263
11.3108
10.4582
9.66462
8.92639
8.24007
7.60239
7.01024
6.4607
5.951
5.47853
5.04082
4.63555
4.26053
3.91369
3.59311
3.29695
3.02351
2.77119
2.53847
2.32394
2.12629
1.94427
1.77674
1.62259
1.48083
1.35051
1.23075
1.12073
1.01967
0.926867
0.841649
0.763395
0.691524
0.625496
0.564807
0.508986
0.457593
0.410217
0.366473
0.326002
0.288464
0.253541
0.220931
0.19035
0.161526
0.134201
0.108126
0.0830628
0.0587787
0.0350473
0.0116459
264.815
251.681
239.057
226.931
215.294
204.134
193.44
183.199
173.4
164.031
155.078
146.53
138.373
130.597
123.187
116.131
109.417
103.034
96.9675
91.2071
85.7407
80.5566
75.6436
70.9904
66.5862
62.4203
58.4824
54.7625
51.2506
47.9373
44.8133
41.8697
39.0978
36.4892
34.0358
31.7299
29.5639
27.5305
25.623
23.8345
22.1586
20.5893
19.1207
17.747
16.4631
15.2637
14.1439
13.0992
12.125
11.2171
10.3716
9.58457
8.85246
8.17182
7.53942
6.95218
6.40719
5.90171
5.43315
4.99907
4.59715
4.22524
3.88128
3.56335
3.26965
2.99847
2.74824
2.51745
2.3047
2.10868
1.92817
1.76202
1.60915
1.46857
1.33933
1.22056
1.11145
1.01123
0.919191
0.834679
0.757073
0.685797
0.620316
0.56013
0.50477
0.453803
0.406819
0.363438
0.323302
0.286075
0.251441
0.219101
0.188773
0.160188
0.133089
0.107231
0.0823749
0.058292
0.0347571
0.0115494
262.538
249.517
237.001
224.98
213.443
202.379
191.777
181.624
171.909
162.62
153.744
145.27
137.184
129.474
122.127
115.132
108.477
102.148
96.1337
90.4229
85.0034
79.864
74.9931
70.38
66.0136
61.8836
57.9796
54.2916
50.8099
47.5251
44.428
41.5097
38.7616
36.1754
33.7431
31.457
29.3097
27.2938
25.4026
23.6295
21.9681
20.4123
18.9563
17.5944
16.3215
15.1325
14.0223
12.9866
12.0207
11.1207
10.2824
9.50216
8.77634
8.10156
7.47459
6.8924
6.3521
5.85097
5.38644
4.95609
4.55763
4.18891
3.84791
3.53271
3.24153
2.97269
2.72461
2.4958
2.28488
2.09055
1.91159
1.74687
1.59532
1.45594
1.32781
1.21007
1.10189
1.00253
0.911288
0.827503
0.750563
0.679901
0.614983
0.555314
0.500431
0.449901
0.403322
0.360314
0.320523
0.283616
0.24928
0.217218
0.18715
0.158811
0.131945
0.106309
0.0816667
0.0577908
0.0344582
0.0114501
260.196
247.291
234.887
222.973
211.539
200.574
190.066
180.004
170.376
161.17
152.373
143.974
135.96
128.319
121.038
114.105
107.509
101.237
95.2762
89.6163
84.2452
79.1516
74.3242
69.7522
65.4248
61.3316
57.4624
53.8073
50.3567
47.1012
44.0317
41.1394
38.4158
35.8527
33.4422
31.1764
29.0482
27.0504
25.1761
23.4188
21.7721
20.2302
18.7872
17.4375
16.176
14.9975
13.8973
12.8707
11.9135
11.0215
10.1907
9.41741
8.69806
8.0293
7.40792
6.83092
6.29544
5.79878
5.33839
4.91188
4.51698
4.15155
3.81358
3.5012
3.21262
2.94618
2.70031
2.47354
2.2645
2.0719
1.89454
1.73129
1.58109
1.44296
1.31597
1.19927
1.09206
0.99359
0.90316
0.820122
0.743869
0.673837
0.609498
0.550361
0.495967
0.445889
0.399725
0.3571
0.317664
0.281086
0.247056
0.21528
0.185481
0.157394
0.130768
0.105361
0.0809384
0.0572754
0.0341509
0.011348
257.79
245.005
232.715
220.911
209.583
198.719
188.308
178.34
168.8
159.679
150.964
142.643
134.703
127.132
119.919
113.05
106.515
100.3
94.3952
88.7876
83.4662
78.4197
73.6369
69.1072
64.8198
60.7645
56.9311
53.3098
49.8911
46.6656
43.6245
40.759
38.0606
35.5212
33.1329
30.8882
28.7796
26.8002
24.9433
23.2022
21.5708
20.0431
18.6134
17.2763
16.0264
14.8588
13.7687
12.7517
11.8034
10.9196
10.0965
9.33033
8.61763
7.95505
7.33942
6.76776
6.23723
5.74516
5.28903
4.86646
4.47521
4.11316
3.77832
3.46883
3.18292
2.91894
2.67534
2.45067
2.24356
2.05275
1.87703
1.71528
1.56647
1.42961
1.3038
1.18818
1.08196
0.984403
0.89481
0.812539
0.736991
0.667606
0.603862
0.545272
0.491382
0.441766
0.396029
0.353799
0.314727
0.278487
0.244772
0.21329
0.183766
0.155939
0.129559
0.104386
0.08019
0.0567459
0.0338352
0.0112431
255.321
242.657
230.486
218.795
207.575
196.815
186.504
176.631
167.183
158.15
149.518
141.276
133.412
125.914
118.77
111.967
105.494
99.3395
93.4909
87.937
82.6666
77.6684
72.9315
68.4452
64.1988
60.1823
56.3857
52.7991
49.4131
46.2186
43.2066
40.3685
37.696
35.1809
32.8155
30.5923
28.5039
26.5435
24.7043
22.9799
21.3642
19.8511
18.4351
17.1108
15.8729
14.7165
13.6368
12.6295
11.6903
10.815
9.99975
9.24094
8.53508
7.87885
7.26912
6.70293
6.17748
5.69012
5.23836
4.81984
4.43234
4.07376
3.74213
3.4356
3.15242
2.89097
2.64971
2.42719
2.22207
2.03308
1.85904
1.69885
1.55146