/*--------------------------------*- C++ -*----------------------------------*\
| =========                 |                                                 |
| \\      /  F ield         | OpenFOAM: The Open Source CFD Toolbox           |
|  \\    /   O peration     | Version:  2406                                  |
|   \\  /    A nd           | Website:  www.openfoam.com                      |
|    \\/     M anipulation  |                                                 |
\*---------------------------------------------------------------------------*/
FoamFile
{
    version     2.0;
    format      ascii;
    arch        "LSB;label=32;scalar=64";
    class       volScalarField;
    location    "45";
    object      T;
}
// * * * * * * * * * * * * * * * * * * * * * * * * * * * * * * * * * * * * * //

dimensions      [0 0 0 1 0 0 0];

internalField   nonuniform List<scalar> 
20000
(
300.752
300.715
300.679
300.645
300.612
300.58
300.55
300.52
300.493
300.466
300.441
300.416
300.393
300.371
300.35
300.33
300.311
300.293
300.275
300.259
300.244
300.229
300.215
300.202
300.189
300.177
300.166
300.156
300.146
300.136
300.127
300.119
300.111
300.104
300.097
300.09
300.084
300.078
300.073
300.068
300.063
300.058
300.054
300.05
300.047
300.043
300.04
300.037
300.034
300.032
300.029
300.027
300.025
300.023
300.021
300.02
300.018
300.017
300.015
300.014
300.013
300.012
300.011
300.01
300.009
300.009
300.008
300.007
300.007
300.006
300.005
300.005
300.005
300.004
300.004
300.003
300.003
300.003
300.003
300.002
300.002
300.002
300.002
300.002
300.001
300.001
300.001
300.001
300.001
300.001
300.001
300.001
300.001
300
300
300
300
300
300
300
302.257
302.145
302.037
301.934
301.835
301.74
301.648
301.561
301.478
301.398
301.322
301.249
301.179
301.113
301.05
300.99
300.932
300.878
300.826
300.777
300.731
300.686
300.645
300.605
300.567
300.532
300.498
300.467
300.437
300.409
300.382
300.357
300.333
300.311
300.29
300.27
300.252
300.235
300.218
300.203
300.189
300.175
300.163
300.151
300.14
300.13
300.121
300.112
300.103
300.096
300.088
300.082
300.075
300.07
300.064
300.059
300.055
300.05
300.046
300.043
300.039
300.036
300.033
300.03
300.028
300.026
300.023
300.021
300.02
300.018
300.016
300.015
300.014
300.013
300.011
300.01
300.009
300.009
300.008
300.007
300.006
300.006
300.005
300.005
300.004
300.004
300.003
300.003
300.003
300.002
300.002
300.002
300.002
300.001
300.001
300.001
300.001
300
300
300
303.76
303.574
303.395
303.223
303.057
302.899
302.747
302.602
302.462
302.329
302.202
302.081
301.965
301.855
301.749
301.649
301.554
301.463
301.377
301.295
301.218
301.144
301.074
301.008
300.946
300.886
300.83
300.778
300.728
300.681
300.636
300.595
300.555
300.518
300.483
300.451
300.42
300.391
300.364
300.338
300.315
300.292
300.272
300.252
300.234
300.217
300.201
300.186
300.172
300.159
300.147
300.136
300.126
300.116
300.107
300.099
300.091
300.084
300.077
300.071
300.065
300.06
300.055
300.051
300.046
300.043
300.039
300.036
300.033
300.03
300.027
300.025
300.023
300.021
300.019
300.017
300.016
300.014
300.013
300.012
300.011
300.01
300.009
300.008
300.007
300.006
300.006
300.005
300.005
300.004
300.004
300.003
300.003
300.002
300.002
300.002
300.001
300.001
300
300
305.263
305.002
304.751
304.51
304.279
304.057
303.845
303.641
303.446
303.26
303.082
302.912
302.75
302.596
302.448
302.308
302.175
302.048
301.927
301.813
301.704
301.601
301.503
301.411
301.323
301.241
301.162
301.088
301.019
300.953
300.891
300.832
300.777
300.725
300.676
300.631
300.588
300.547
300.509
300.474
300.44
300.409
300.38
300.353
300.327
300.303
300.281
300.26
300.241
300.223
300.206
300.19
300.176
300.162
300.15
300.138
300.127
300.117
300.108
300.099
300.091
300.084
300.077
300.071
300.065
300.06
300.055
300.05
300.046
300.042
300.038
300.035
300.032
300.029
300.027
300.024
300.022
300.02
300.018
300.017
300.015
300.014
300.012
300.011
300.01
300.009
300.008
300.007
300.006
300.006
300.005
300.004
300.004
300.003
300.003
300.002
300.002
300.001
300.001
300
306.765
306.429
306.107
305.797
305.5
305.215
304.942
304.68
304.43
304.19
303.962
303.743
303.535
303.336
303.147
302.967
302.795
302.632
302.477
302.33
302.19
302.058
301.932
301.814
301.701
301.595
301.494
301.399
301.309
301.225
301.145
301.07
300.999
300.932
300.869
300.811
300.755
300.703
300.655
300.609
300.566
300.526
300.488
300.453
300.421
300.39
300.361
300.335
300.31
300.287
300.265
300.245
300.226
300.209
300.193
300.178
300.164
300.151
300.139
300.128
300.117
300.108
300.099
300.091
300.084
300.077
300.07
300.064
300.059
300.054
300.049
300.045
300.041
300.038
300.034
300.031
300.028
300.026
300.023
300.021
300.019
300.018
300.016
300.014
300.013
300.012
300.01
300.009
300.008
300.007
300.006
300.006
300.005
300.004
300.003
300.003
300.002
300.001
300.001
300
308.265
307.855
307.461
307.083
306.719
306.371
306.037
305.718
305.412
305.119
304.84
304.573
304.319
304.076
303.845
303.624
303.415
303.216
303.026
302.847
302.676
302.514
302.361
302.216
302.078
301.948
301.825
301.709
301.6
301.496
301.399
301.307
301.22
301.139
301.062
300.99
300.923
300.859
300.8
300.744
300.692
300.643
300.597
300.554
300.514
300.476
300.441
300.409
300.378
300.35
300.324
300.299
300.276
300.255
300.235
300.217
300.2
300.184
300.17
300.156
300.143
300.132
300.121
300.111
300.102
300.094
300.086
300.079
300.072
300.066
300.06
300.055
300.05
300.046
300.042
300.038
300.035
300.032
300.029
300.026
300.024
300.021
300.019
300.017
300.016
300.014
300.013
300.011
300.01
300.009
300.008
300.007
300.006
300.005
300.004
300.003
300.003
300.002
300.001
300
309.763
309.279
308.813
308.366
307.937
307.526
307.131
306.754
306.393
306.047
305.717
305.402
305.101
304.815
304.541
304.281
304.034
303.798
303.575
303.362
303.161
302.97
302.789
302.617
302.455
302.301
302.156
302.019
301.889
301.767
301.652
301.544
301.441
301.345
301.255
301.17
301.09
301.015
300.945
300.879
300.817
300.759
300.705
300.654
300.607
300.563
300.521
300.483
300.447
300.414
300.382
300.353
300.326
300.301
300.278
300.256
300.236
300.218
300.2
300.184
300.169
300.156
300.143
300.131
300.121
300.111
300.101
300.093
300.085
300.078
300.071
300.065
300.059
300.054
300.049
300.045
300.041
300.037
300.034
300.031
300.028
300.025
300.023
300.021
300.019
300.017
300.015
300.013
300.012
300.011
300.009
300.008
300.007
300.006
300.005
300.004
300.003
300.002
300.001
300
311.258
310.7
310.163
309.648
309.153
308.679
308.224
307.789
307.372
306.974
306.593
306.23
305.883
305.552
305.237
304.937
304.652
304.38
304.122
303.878
303.645
303.425
303.216
303.018
302.831
302.654
302.486
302.328
302.179
302.038
301.905
301.78
301.662
301.551
301.447
301.349
301.257
301.17
301.089
301.013
300.942
300.875
300.813
300.754
300.7
300.649
300.601
300.557
300.515
300.477
300.441
300.407
300.376
300.347
300.321
300.296
300.272
300.251
300.231
300.213
300.195
300.18
300.165
300.151
300.139
300.127
300.117
300.107
300.098
300.09
300.082
300.075
300.068
300.062
300.057
300.052
300.047
300.043
300.039
300.035
300.032
300.029
300.026
300.024
300.021
300.019
300.017
300.015
300.014
300.012
300.011
300.009
300.008
300.007
300.006
300.005
300.004
300.002
300.001
300
312.751
312.119
311.511
310.927
310.367
309.829
309.314
308.821
308.349
307.898
307.467
307.055
306.663
306.288
305.932
305.592
305.269
304.961
304.669
304.392
304.128
303.879
303.642
303.418
303.206
303.006
302.816
302.637
302.468
302.308
302.158
302.016
301.883
301.757
301.639
301.528
301.424
301.326
301.234
301.148
301.067
300.991
300.921
300.855
300.793
300.735
300.681
300.631
300.584
300.54
300.499
300.462
300.426
300.393
300.363
300.335
300.309
300.284
300.262
300.241
300.221
300.203
300.187
300.172
300.157
300.144
300.132
300.121
300.111
300.102
300.093
300.085
300.077
300.071
300.064
300.059
300.054
300.049
300.044
300.04
300.036
300.033
300.03
300.027
300.024
300.022
300.02
300.017
300.016
300.014
300.012
300.011
300.009
300.008
300.006
300.005
300.004
300.003
300.002
300.001
314.241
313.534
312.855
312.203
311.578
310.977
310.402
309.852
309.325
308.821
308.339
307.88
307.441
307.023
306.624
306.245
305.884
305.541
305.214
304.905
304.611
304.332
304.068
303.818
303.581
303.357
303.145
302.945
302.756
302.578
302.41
302.252
302.103
301.962
301.83
301.706
301.59
301.48
301.378
301.282
301.192
301.107
301.028
300.954
300.885
300.821
300.761
300.704
300.652
300.603
300.558
300.515
300.476
300.439
300.405
300.374
300.345
300.317
300.292
300.269
300.247
300.227
300.209
300.192
300.176
300.161
300.148
300.135
300.124
300.113
300.104
300.095
300.087
300.079
300.072
300.066
300.06
300.054
300.049
300.045
300.041
300.037
300.033
300.03
300.027
300.024
300.022
300.02
300.017
300.015
300.014
300.012
300.01
300.009
300.007
300.006
300.004
300.003
300.002
300.001
315.727
314.947
314.197
313.477
312.786
312.123
311.488
310.88
310.298
309.741
309.21
308.702
308.218
307.756
307.316
306.897
306.498
306.119
305.759
305.417
305.092
304.784
304.492
304.216
303.954
303.707
303.473
303.252
303.044
302.847
302.661
302.487
302.322
302.167
302.021
301.884
301.756
301.635
301.522
301.415
301.316
301.223
301.136
301.054
300.978
300.906
300.84
300.778
300.72
300.666
300.616
300.569
300.526
300.485
300.448
300.413
300.381
300.35
300.323
300.297
300.273
300.251
300.23
300.212
300.194
300.178
300.163
300.15
300.137
300.125
300.115
300.105
300.096
300.087
300.08
300.072
300.066
300.06
300.055
300.05
300.045
300.041
300.037
300.033
300.03
300.027
300.024
300.022
300.019
300.017
300.015
300.013
300.011
300.01
300.008
300.006
300.005
300.003
300.002
300.001
317.209
316.355
315.535
314.747
313.991
313.265
312.571
311.905
311.268
310.659
310.078
309.522
308.992
308.487
308.005
307.547
307.11
306.696
306.301
305.927
305.572
305.235
304.916
304.613
304.327
304.056
303.8
303.559
303.33
303.115
302.912
302.721
302.541
302.371
302.212
302.062
301.921
301.789
301.665
301.549
301.44
301.338
301.243
301.153
301.07
300.992
300.919
300.851
300.788
300.729
300.674
300.623
300.575
300.531
300.49
300.452
300.416
300.384
300.353
300.325
300.299
300.275
300.252
300.232
300.212
300.195
300.179
300.164
300.15
300.137
300.125
300.115
300.105
300.095
300.087
300.079
300.072
300.066
300.06
300.054
300.049
300.045
300.04
300.036
300.033
300.029
300.026
300.024
300.021
300.019
300.016
300.014
300.012
300.01
300.009
300.007
300.005
300.004
300.002
300.001
318.687
317.76
316.869
316.013
315.192
314.405
313.65
312.927
312.236
311.575
310.943
310.34
309.764
309.216
308.693
308.195
307.721
307.271
306.843
306.436
306.05
305.684
305.338
305.009
304.699
304.405
304.127
303.864
303.617
303.383
303.162
302.955
302.759
302.575
302.402
302.239
302.086
301.943
301.808
301.682
301.564
301.453
301.349
301.252
301.162
301.077
300.998
300.924
300.856
300.792
300.732
300.676
300.625
300.577
300.532
300.491
300.452
300.416
300.383
300.353
300.324
300.298
300.274
300.251
300.231
300.212
300.194
300.178
300.163
300.149
300.136
300.124
300.114
300.104
300.095
300.086
300.078
300.071
300.065
300.059
300.053
300.048
300.044
300.04
300.036
300.032
300.029
300.026
300.023
300.02
300.018
300.015
300.013
300.011
300.009
300.008
300.006
300.004
300.002
300.001
320.16
319.16
318.199
317.276
316.39
315.54
314.726
313.947
313.201
312.487
311.806
311.155
310.534
309.942
309.378
308.841
308.33
307.844
307.382
306.943
306.527
306.133
305.759
305.404
305.069
304.752
304.452
304.169
303.902
303.649
303.412
303.187
302.976
302.778
302.591
302.416
302.251
302.096
301.951
301.814
301.687
301.567
301.456
301.351
301.253
301.162
301.077
300.997
300.923
300.854
300.79
300.73
300.674
300.622
300.574
300.529
300.488
300.449
300.414
300.381
300.35
300.322
300.295
300.271
300.249
300.228
300.209
300.192
300.175
300.161
300.147
300.134
300.123
300.112
300.102
300.093
300.085
300.077
300.07
300.064
300.058
300.052
300.047
300.043
300.038
300.035
300.031
300.028
300.025
300.022
300.019
300.017
300.014
300.012
300.01
300.008
300.006
300.004
300.003
300.001
321.628
320.556
319.525
318.534
317.584
316.672
315.799
314.963
314.162
313.397
312.666
311.968
311.301
310.666
310.061
309.485
308.936
308.415
307.92
307.449
307.003
306.579
306.178
305.798
305.438
305.098
304.776
304.473
304.186
303.915
303.66
303.42
303.193
302.98
302.78
302.591
302.415
302.249
302.093
301.947
301.81
301.682
301.562
301.449
301.345
301.247
301.155
301.07
300.99
300.916
300.847
300.783
300.723
300.667
300.616
300.568
300.523
300.482
300.444
300.408
300.375
300.345
300.317
300.291
300.267
300.245
300.224
300.206
300.188
300.172
300.157
300.144
300.131
300.12
300.109
300.1
300.091
300.083
300.075
300.068
300.062
300.056
300.051
300.046
300.041
300.037
300.033
300.03
300.026
300.023
300.021
300.018
300.015
300.013
300.011
300.009
300.007
300.005
300.003
300.001
323.091
321.946
320.845
319.788
318.773
317.8
316.868
315.975
315.12
314.303
313.522
312.777
312.066
311.388
310.742
310.126
309.541
308.984
308.455
307.953
307.476
307.024
306.596
306.19
305.806
305.443
305.1
304.775
304.469
304.18
303.908
303.651
303.409
303.182
302.968
302.767
302.578
302.401
302.234
302.078
301.932
301.795
301.667
301.548
301.436
301.331
301.233
301.142
301.057
300.978
300.904
300.836
300.772
300.713
300.657
300.606
300.559
300.515
300.474
300.436
300.401
300.368
300.338
300.311
300.285
300.261
300.24
300.22
300.201
300.184
300.168
300.154
300.14
300.128
300.117
300.106
300.097
300.088
300.08
300.073
300.066
300.06
300.054
300.049
300.044
300.04
300.035
300.032
300.028
300.025
300.022
300.019
300.016
300.014
300.012
300.009
300.007
300.005
300.003
300.001
324.549
323.331
322.161
321.037
319.958
318.923
317.932
316.983
316.074
315.206
314.376
313.583
312.827
312.106
311.42
310.765
310.143
309.551
308.989
308.455
307.948
307.468
307.012
306.581
306.173
305.786
305.421
305.077
304.751
304.444
304.154
303.881
303.624
303.383
303.155
302.941
302.741
302.552
302.375
302.209
302.054
301.909
301.773
301.645
301.526
301.415
301.311
301.214
301.124
301.04
300.961
300.888
300.821
300.758
300.699
300.644
300.594
300.547
300.504
300.463
300.426
300.392
300.36
300.33
300.303
300.278
300.255
300.233
300.214
300.195
300.179
300.163
300.149
300.136
300.124
300.113
300.103
300.094
300.085
300.077
300.07
300.064
300.058
300.052
300.047
300.042
300.038
300.034
300.03
300.027
300.023
300.02
300.017
300.015
300.012
300.01
300.008
300.005
300.003
300.001
326
324.71
323.471
322.28
321.138
320.042
318.992
317.987
317.025
316.105
315.226
314.386
313.586
312.822
312.095
311.402
310.743
310.116
309.52
308.955
308.418
307.909
307.427
306.97
306.538
306.129
305.742
305.377
305.032
304.707
304.4
304.111
303.839
303.583
303.342
303.115
302.903
302.703
302.516
302.34
302.176
302.021
301.877
301.742
301.616
301.499
301.389
301.286
301.19
301.101
301.018
300.941
300.869
300.802
300.74
300.683
300.629
300.579
300.533
300.491
300.451
300.415
300.381
300.35
300.321
300.294
300.27
300.247
300.226
300.207
300.189
300.173
300.158
300.144
300.131
300.12
300.109
300.099
300.09
300.082
300.074
300.067
300.061
300.055
300.05
300.045
300.04
300.036
300.032
300.028
300.025
300.022
300.019
300.016
300.013
300.011
300.008
300.006
300.003
300.001
327.445
326.084
324.775
323.519
322.312
321.156
320.048
318.986
317.971
317
316.072
315.186
314.341
313.535
312.767
312.035
311.34
310.678
310.049
309.452
308.886
308.349
307.84
307.357
306.901
306.469
306.061
305.675
305.311
304.968
304.644
304.339
304.052
303.782
303.527
303.288
303.064
302.853
302.655
302.47
302.296
302.134
301.982
301.839
301.706
301.582
301.466
301.358
301.257
301.163
301.075
300.993
300.917
300.847
300.781
300.721
300.664
300.612
300.563
300.518
300.476
300.438
300.402
300.369
300.339
300.311
300.285
300.261
300.239
300.219
300.2
300.183
300.167
300.152
300.139
300.126
300.115
300.105
300.095
300.087
300.078
300.071
300.064
300.058
300.052
300.047
300.042
300.038
300.034
300.03
300.026
300.023
300.02
300.017
300.014
300.011
300.009
300.006
300.004
300.001
328.883
327.45
326.073
324.751
323.482
322.264
321.098
319.981
318.912
317.89
316.914
315.982
315.092
314.244
313.436
312.666
311.934
311.238
310.576
309.948
309.352
308.786
308.25
307.743
307.262
306.808
306.379
305.973
305.59
305.228
304.888
304.567
304.264
303.98
303.712
303.461
303.224
303.003
302.795
302.6
302.417
302.246
302.085
301.936
301.796
301.665
301.543
301.429
301.322
301.223
301.131
301.045
300.966
300.891
300.822
300.758
300.699
300.644
300.593
300.545
300.501
300.461
300.423
300.389
300.357
300.327
300.3
300.275
300.251
300.23
300.21
300.192
300.176
300.16
300.146
300.133
300.121
300.11
300.1
300.091
300.083
300.075
300.068
300.061
300.055
300.049
300.044
300.04
300.035
300.031
300.027
300.024
300.021
300.017
300.015
300.012
300.009
300.006
300.004
300.001
330.314
328.81
327.365
325.977
324.645
323.367
322.143
320.971
319.849
318.777
317.752
316.773
315.84
314.95
314.101
313.294
312.525
311.794
311.1
310.441
309.815
309.221
308.659
308.126
307.622
307.145
306.695
306.269
305.867
305.487
305.13
304.793
304.476
304.177
303.896
303.632
303.384
303.151
302.933
302.728
302.537
302.357
302.189
302.032
301.885
301.747
301.619
301.499
301.388
301.284
301.187
301.097
301.013
300.935
300.863
300.796
300.733
300.676
300.622
300.572
300.526
300.484
300.444
300.408
300.374
300.343
300.315
300.288
300.264
300.241
300.221
300.202
300.184
300.168
300.153
300.14
300.127
300.116
300.105
300.096
300.087
300.079
300.071
300.064
300.058
300.052
300.047
300.042
300.037
300.033
300.029
300.025
300.022
300.018
300.015
300.012
300.009
300.007
300.004
300.001
331.737
330.163
328.65
327.197
325.802
324.465
323.183
321.956
320.781
319.658
318.586
317.561
316.584
315.652
314.763
313.918
313.113
312.348
311.621
310.931
310.276
309.654
309.066
308.508
307.98
307.481
307.009
306.563
306.142
305.745
305.371
305.018
304.686
304.373
304.079
303.803
303.543
303.299
303.071
302.856
302.656
302.468
302.292
302.127
301.973
301.829
301.695
301.57
301.453
301.344
301.243
301.149
301.061
300.979
300.904
300.833
300.768
300.707
300.651
300.599
300.551
300.506
300.465
300.427
300.392
300.359
300.329
300.302
300.276
300.253
300.231
300.211
300.193
300.176
300.161
300.146
300.133
300.121
300.11
300.1
300.091
300.082
300.074
300.067
300.06
300.054
300.049
300.044
300.039
300.034
300.03
300.026
300.023
300.019
300.016
300.013
300.01
300.007
300.004
300.001
333.153
331.508
329.928
328.41
326.953
325.556
324.217
322.935
321.708
320.535
319.415
318.344
317.323
316.35
315.422
314.539
313.698
312.899
312.14
311.418
310.734
310.085
309.47
308.887
308.336
307.815
307.322
306.856
306.416
306.001
305.61
305.242
304.895
304.568
304.261
303.972
303.701
303.447
303.208
302.984
302.774
302.578
302.394
302.222
302.061
301.911
301.771
301.64
301.518
301.404
301.298
301.2
301.108
301.023
300.944
300.87
300.802
300.739
300.68
300.626
300.576
300.529
300.486
300.446
300.409
300.375
300.344
300.315
300.289
300.264
300.241
300.221
300.201
300.184
300.168
300.153
300.139
300.127
300.115
300.104
300.095
300.086
300.078
300.07
300.063
300.057
300.051
300.045
300.04
300.036
300.031
300.027
300.024
300.02
300.017
300.013
300.01
300.007
300.004
300.001
334.56
332.846
331.199
329.616
328.097
326.641
325.245
323.909
322.63
321.407
320.239
319.123
318.059
317.044
316.077
315.156
314.28
313.447
312.655
311.903
311.19
310.513
309.872
309.265
308.69
308.146
307.632
307.147
306.689
306.256
305.848
305.464
305.103
304.762
304.442
304.141
303.858
303.593
303.344
303.111
302.892
302.687
302.495
302.316
302.149
301.992
301.846
301.71
301.582
301.464
301.354
301.251
301.155
301.066
300.984
300.907
300.836
300.77
300.709
300.652
300.6
300.551
300.507
300.465
300.427
300.391
300.359
300.329
300.301
300.275
300.252
300.23
300.21
300.192
300.175
300.159
300.145
300.132
300.12
300.109
300.099
300.089
300.081
300.073
300.066
300.059
300.053
300.047
300.042
300.037
300.033
300.029
300.025
300.021
300.017
300.014
300.011
300.008
300.005
300.002
335.959
334.176
332.461
330.815
329.235
327.719
326.267
324.877
323.546
322.274
321.058
319.897
318.79
317.734
316.727
315.769
314.858
313.991
313.167
312.385
311.643
310.939
310.272
309.64
309.042
308.476
307.941
307.436
306.959
306.509
306.085
305.685
305.309
304.955
304.622
304.309
304.014
303.738
303.479
303.236
303.009
302.796
302.596
302.41
302.236
302.073
301.921
301.779
301.646
301.523
301.408
301.301
301.202
301.11
301.024
300.944
300.87
300.801
300.738
300.679
300.624
300.574
300.527
300.484
300.444
300.407
300.373
300.342
300.313
300.286
300.262
300.239
300.219
300.199
300.182
300.166
300.151
300.137
300.125
300.113
300.103
300.093
300.084
300.076
300.069
300.062
300.055
300.049
300.044
300.039
300.034
300.03
300.026
300.022
300.018
300.015
300.011
300.008
300.005
300.002
337.349
335.497
333.716
332.006
330.365
328.791
327.283
325.838
324.456
323.135
321.872
320.666
319.516
318.419
317.374
316.379
315.432
314.532
313.676
312.864
312.093
311.362
310.669
310.012
309.391
308.804
308.248
307.724
307.228
306.761
306.32
305.905
305.514
305.146
304.8
304.475
304.17
303.883
303.614
303.362
303.125
302.904
302.697
302.503
302.322
302.153
301.995
301.847
301.71
301.582
301.463
301.352
301.249
301.153
301.063
300.981
300.904
300.832
300.766
300.705
300.648
300.596
300.547
300.503
300.461
300.423
300.388
300.355
300.325
300.297
300.272
300.249
300.227
300.207
300.189
300.172
300.157
300.143
300.13
300.118
300.107
300.097
300.087
300.079
300.071
300.064
300.057
300.051
300.046
300.04
300.035
300.031
300.027
300.023
300.019
300.015
300.012
300.008
300.005
300.002
338.73
336.809
334.963
333.189
331.487
329.855
328.291
326.793
325.36
323.99
322.681
321.43
320.238
319.1
318.016
316.984
316.003
315.069
314.182
313.339
312.54
311.782
311.063
310.383
309.738
309.129
308.553
308.009
307.496
307.011
306.554
306.124
305.718
305.337
304.978
304.641
304.324
304.026
303.747
303.486
303.241
303.011
302.796
302.596
302.408
302.232
302.069
301.916
301.773
301.641
301.517
301.402
301.295
301.195
301.103
301.017
300.937
300.863
300.795
300.731
300.672
300.618
300.568
300.521
300.478
300.439
300.402
300.368
300.337
300.308
300.282
300.258
300.235
300.215
300.196
300.179
300.163
300.148
300.134
300.122
300.111
300.1
300.091
300.082
300.074
300.066
300.059
300.053
300.047
300.042
300.037
300.032
300.028
300.023
300.019
300.016
300.012
300.009
300.005
300.002
340.101
338.112
336.201
334.364
332.602
330.912
329.293
327.742
326.258
324.839
323.484
322.189
320.954
319.776
318.654
317.586
316.569
315.603
314.684
313.812
312.984
312.199
311.455
310.75
310.083
309.452
308.856
308.293
307.761
307.259
306.786
306.34
305.921
305.526
305.154
304.805
304.477
304.169
303.88
303.609
303.356
303.118
302.895
302.687
302.493
302.311
302.142
301.984
301.836
301.699
301.571
301.451
301.341
301.237
301.142
301.053
300.97
300.894
300.823
300.757
300.696
300.64
300.588
300.54
300.495
300.454
300.416
300.381
300.349
300.319
300.292
300.267
300.244
300.222
300.203
300.185
300.168
300.153
300.139
300.126
300.115
300.104
300.094
300.085
300.076
300.069
300.062
300.055
300.049
300.043
300.038
300.033
300.029
300.024
300.02
300.016
300.012
300.009
300.005
300.002
341.463
339.406
337.43
335.531
333.709
331.962
330.287
328.684
327.15
325.683
324.281
322.942
321.665
320.448
319.288
318.183
317.132
316.132
315.182
314.28
313.425
312.613
311.844
311.115
310.426
309.773
309.157
308.574
308.024
307.506
307.017
306.556
306.122
305.713
305.329
304.968
304.629
304.311
304.012
303.732
303.469
303.224
302.994
302.779
302.578
302.39
302.215
302.051
301.898
301.756
301.624
301.501
301.386
301.279
301.18
301.089
301.003
300.924
300.851
300.783
300.72
300.662
300.608
300.558
300.512
300.469
300.43
300.394
300.361
300.33
300.302
300.276
300.252
300.23
300.21
300.191
300.174
300.158
300.144
300.131
300.119
300.107
300.097
300.088
300.079
300.071
300.064
300.057
300.051
300.045
300.039
300.034
300.03
300.025
300.021
300.017
300.013
300.009
300.005
300.002
342.814
340.69
338.649
336.689
334.808
333.003
331.274
329.619
328.034
326.52
325.072
323.69
322.371
321.114
319.916
318.775
317.69
316.658
315.677
314.746
313.862
313.024
312.23
311.477
310.765
310.092
309.455
308.854
308.286
307.75
307.245
306.769
306.321
305.899
305.503
305.13
304.78
304.451
304.143
303.853
303.582
303.329
303.091
302.869
302.662
302.468
302.287
302.118
301.96
301.814
301.677
301.55
301.431
301.321
301.219
301.124
301.036
300.954
300.878
300.808
300.743
300.683
300.627
300.576
300.529
300.485
300.444
300.407
300.373
300.341
300.312
300.285
300.26
300.237
300.217
300.197
300.18
300.163
300.149
300.135
300.122
300.111
300.1
300.091
300.082
300.073
300.066
300.059
300.052
300.046
300.041
300.035
300.031
300.026
300.022
300.017
300.013
300.009
300.006
300.002
344.154
341.964
339.859
337.838
335.897
334.037
332.254
330.546
328.912
327.35
325.857
324.432
323.072
321.775
320.54
319.363
318.244
317.179
316.168
315.208
314.296
313.432
312.613
311.837
311.102
310.408
309.751
309.131
308.545
307.993
307.472
306.981
306.519
306.084
305.675
305.291
304.929
304.59
304.272
303.974
303.695
303.433
303.188
302.959
302.745
302.545
302.358
302.184
302.022
301.87
301.729
301.598
301.476
301.363
301.257
301.159
301.068
300.984
300.906
300.834
300.767
300.704
300.647
300.594
300.545
300.5
300.458
300.42
300.384
300.352
300.321
300.294
300.268
300.245
300.223
300.204
300.185
300.169
300.153
300.139
300.126
300.114
300.103
300.093
300.084
300.076
300.068
300.061
300.054
300.048
300.042
300.037
300.031
300.027
300.022
300.018
300.014
300.01
300.006
300.002
345.484
343.228
341.06
338.977
336.978
335.062
333.225
331.466
329.783
328.174
326.636
325.168
323.767
322.431
321.158
319.946
318.793
317.697
316.655
315.666
314.727
313.836
312.992
312.193
311.437
310.721
310.045
309.406
308.803
308.234
307.697
307.191
306.715
306.267
305.846
305.45
305.078
304.729
304.401
304.094
303.806
303.536
303.284
303.048
302.828
302.622
302.429
302.25
302.083
301.927
301.781
301.646
301.52
301.404
301.295
301.194
301.1
301.014
300.933
300.859
300.79
300.726
300.667
300.612
300.562
300.515
300.472
300.432
300.396
300.362
300.331
300.303
300.276
300.252
300.23
300.21
300.191
300.174
300.158
300.143
300.13
300.118
300.107
300.096
300.087
300.078
300.07
300.062
300.056
300.049
300.043
300.038
300.032
300.028
300.023
300.018
300.014
300.01
300.006
300.002
346.802
344.481
342.25
340.107
338.05
336.078
334.188
332.378
330.646
328.99
327.408
325.897
324.456
323.081
321.772
320.525
319.338
318.21
317.138
316.12
315.154
314.237
313.369
312.547
311.768
311.032
310.336
309.679
309.058
308.472
307.92
307.4
306.91
306.449
306.015
305.608
305.225
304.866
304.529
304.212
303.916
303.639
303.379
303.137
302.91
302.698
302.5
302.315
302.143
301.982
301.833
301.694
301.565
301.444
301.332
301.229
301.132
301.043
300.96
300.884
300.812
300.747
300.686
300.63
300.578
300.53
300.486
300.445
300.407
300.373
300.341
300.311
300.284
300.26
300.237
300.216
300.196
300.179
300.162
300.148
300.134
300.121
300.11
300.099
300.089
300.08
300.072
300.064
300.057
300.051
300.044
300.039
300.033
300.028
300.024
300.019
300.015
300.01
300.006
300.002
348.109
345.723
343.43
341.227
339.113
337.085
335.143
333.282
331.502
329.8
328.173
326.62
325.139
323.726
322.38
321.098
319.878
318.718
317.616
316.57
315.577
314.635
313.742
312.897
312.097
311.34
310.625
309.949
309.311
308.709
308.141
307.607
307.103
306.629
306.183
305.764
305.371
305.002
304.655
304.33
304.026
303.74
303.474
303.224
302.991
302.773
302.57
302.38
302.203
302.038
301.884
301.741
301.608
301.485
301.37
301.263
301.164
301.072
300.987
300.908
300.835
300.768
300.705
300.647
300.594
300.545
300.499
300.457
300.419
300.383
300.35
300.32
300.292
300.267
300.243
300.222
300.202
300.184
300.167
300.152
300.138
300.125
300.113
300.102
300.092
300.082
300.074
300.066
300.059
300.052
300.046
300.04
300.034
300.029
300.024
300.019
300.015
300.011
300.006
300.002
349.404
346.954
344.599
342.337
340.166
338.084
336.089
334.178
332.35
330.602
328.932
327.337
325.815
324.364
322.982
321.666
320.413
319.222
318.09
317.016
315.996
315.029
314.112
313.244
312.422
311.645
310.911
310.217
309.561
308.943
308.36
307.811
307.294
306.807
306.35
305.92
305.515
305.136
304.78
304.447
304.134
303.841
303.567
303.311
303.071
302.848
302.639
302.444
302.262
302.093
301.935
301.788
301.652
301.525
301.407
301.297
301.195
301.101
301.014
300.933
300.858
300.788
300.724
300.665
300.61
300.559
300.513
300.47
300.43
300.393
300.36
300.329
300.3
300.274
300.25
300.228
300.207
300.189
300.171
300.156
300.141
300.128
300.116
300.104
300.094
300.085
300.076
300.068
300.06
300.053
300.047
300.041
300.035
300.03
300.025
300.02
300.015
300.011
300.006
300.002
350.687
348.173
345.757
343.436
341.209
339.073
337.026
335.066
333.19
331.397
329.683
328.047
326.486
324.997
323.579
322.228
320.943
319.721
318.56
317.458
316.411
315.419
314.479
313.588
312.745
311.948
311.194
310.482
309.81
309.176
308.578
308.014
307.484
306.984
306.515
306.073
305.659
305.27
304.904
304.562
304.241
303.941
303.66
303.397
303.151
302.922
302.707
302.507
302.321
302.147
301.985
301.835
301.694
301.564
301.443
301.331
301.226
301.13
301.04
300.957
300.88
300.809
300.743
300.682
300.626
300.574
300.526
300.482
300.441
300.404
300.369
300.337
300.308
300.281
300.256
300.234
300.213
300.194
300.176
300.16
300.145
300.131
300.119
300.107
300.097
300.087
300.078
300.07
300.062
300.055
300.048
300.042
300.036
300.031
300.025
300.021
300.016
300.011
300.007
300.002
351.958
349.381
346.904
344.525
342.241
340.052
337.954
335.944
334.022
332.183
330.427
328.75
327.149
325.624
324.17
322.785
321.468
320.216
319.025
317.895
316.823
315.806
314.842
313.929
313.064
312.247
311.474
310.745
310.056
309.405
308.793
308.215
307.671
307.159
306.678
306.226
305.801
305.402
305.027
304.676
304.348
304.04
303.752
303.482
303.23
302.995
302.775
302.57
302.379
302.201
302.035
301.881
301.737
301.603
301.479
301.364
301.257
301.158
301.066
300.981
300.902
300.829
300.762
300.699
300.642
300.588
300.539
300.494
300.452
300.414
300.378
300.346
300.316
300.288
300.263
300.239
300.218
300.198
300.18
300.164
300.149
300.135
300.122
300.11
300.099
300.089
300.08
300.071
300.063
300.056
300.049
300.043
300.037
300.031
300.026
300.021