/*--------------------------------*- C++ -*----------------------------------*\
| =========                 |                                                 |
| \\      /  F ield         | OpenFOAM: The Open Source CFD Toolbox           |
|  \\    /   O peration     | Version:  2406                                  |
|   \\  /    A nd           | Website:  www.openfoam.com                      |
|    \\/     M anipulation  |                                                 |
\*---------------------------------------------------------------------------*/
FoamFile
{
    version     2.0;
    format      ascii;
    arch        "LSB;label=32;scalar=64";
    class       volVectorField;
    location    "120";
    object      flux;
}
// * * * * * * * * * * * * * * * * * * * * * * * * * * * * * * * * * * * * * //

dimensions      [0 1 -1 1 0 0 0];

internalField   nonuniform List<vector> 
20000
(
(0.00121441 0.0257171 0)
(0.00110385 0.0280325 0)
(0.000998448 0.0301322 0)
(0.000898084 0.032026 0)
(0.000802693 0.0337243 0)
(0.000712282 0.0352368 0)
(0.000626695 0.0365732 0)
(0.000545366 0.0377431 0)
(0.000468536 0.0387546 0)
(0.000396362 0.0396173 0)
(0.000328303 0.04034 0)
(0.00026412 0.0409303 0)
(0.000203859 0.0413963 0)
(0.000147489 0.0417458 0)
(9.48282e-05 0.0419863 0)
(4.56663e-05 0.0421251 0)
(-1.59758e-07 0.0421689 0)
(-4.27674e-05 0.0421244 0)
(-8.22609e-05 0.0419978 0)
(-0.000118754 0.0417954 0)
(-0.000152373 0.0415229 0)
(-0.000183251 0.0411859 0)
(-0.000211522 0.0407899 0)
(-0.000237313 0.0403399 0)
(-0.000260746 0.0398407 0)
(-0.000281939 0.039297 0)
(-0.000301002 0.038713 0)
(-0.000318046 0.038093 0)
(-0.000333176 0.0374409 0)
(-0.000346498 0.0367604 0)
(-0.00035811 0.036055 0)
(-0.000368112 0.0353281 0)
(-0.000376598 0.0345827 0)
(-0.000383661 0.0338218 0)
(-0.000389389 0.0330481 0)
(-0.000393867 0.0322643 0)
(-0.000397178 0.0314727 0)
(-0.000399402 0.0306757 0)
(-0.000400615 0.0298752 0)
(-0.000400888 0.0290733 0)
(-0.000400294 0.0282718 0)
(-0.000398897 0.0274723 0)
(-0.000396764 0.0266763 0)
(-0.000393954 0.0258853 0)
(-0.000390526 0.0251006 0)
(-0.000386536 0.0243233 0)
(-0.000382036 0.0235545 0)
(-0.000377077 0.0227952 0)
(-0.000371707 0.0220463 0)
(-0.000365971 0.0213085 0)
(-0.000359911 0.0205825 0)
(-0.000353569 0.019869 0)
(-0.000346983 0.0191683 0)
(-0.000340188 0.0184811 0)
(-0.000333219 0.0178077 0)
(-0.000326108 0.0171483 0)
(-0.000318885 0.0165033 0)
(-0.000311579 0.0158728 0)
(-0.000304215 0.0152571 0)
(-0.000296819 0.0146561 0)
(-0.000289414 0.0140699 0)
(-0.000282021 0.0134985 0)
(-0.00027466 0.0129419 0)
(-0.000267351 0.0123999 0)
(-0.000260109 0.0118725 0)
(-0.000252953 0.0113595 0)
(-0.000245895 0.0108608 0)
(-0.000238951 0.010376 0)
(-0.000232133 0.00990502 0)
(-0.000225451 0.00944754 0)
(-0.000218918 0.00900327 0)
(-0.000212543 0.00857192 0)
(-0.000206334 0.00815315 0)
(-0.000200299 0.00774664 0)
(-0.000194447 0.00735201 0)
(-0.000188784 0.0069689 0)
(-0.000183315 0.00659692 0)
(-0.000178047 0.00623568 0)
(-0.000172984 0.00588477 0)
(-0.00016813 0.00554379 0)
(-0.000163489 0.0052123 0)
(-0.000159066 0.00488987 0)
(-0.000154862 0.00457607 0)
(-0.000150881 0.00427046 0)
(-0.000147125 0.00397259 0)
(-0.000143597 0.003682 0)
(-0.000140297 0.00339823 0)
(-0.000137228 0.00312084 0)
(-0.00013439 0.00284936 0)
(-0.000131786 0.00258331 0)
(-0.000129416 0.00232225 0)
(-0.000127281 0.00206568 0)
(-0.000125382 0.00181315 0)
(-0.000123719 0.00156419 0)
(-0.000122292 0.00131831 0)
(-0.000121103 0.00107505 0)
(-0.000120151 0.000833927 0)
(-0.000119437 0.000594472 0)
(-0.000118961 0.000356207 0)
(-0.000118723 0.000118656 0)
(0.00364292 0.0257108 0)
(0.00331128 0.0280254 0)
(0.00299506 0.0301246 0)
(0.00269405 0.032018 0)
(0.0024081 0.033716 0)
(0.00213663 0.0352283 0)
(0.00187959 0.0365642 0)
(0.00163599 0.0377335 0)
(0.00140576 0.0387451 0)
(0.001189 0.0396077 0)
(0.00098468 0.04033 0)
(0.000792223 0.0409201 0)
(0.00061157 0.041386 0)
(0.000442496 0.0417355 0)
(0.000284487 0.041976 0)
(0.000136973 0.0421147 0)
(-5.06748e-07 0.0421585 0)
(-0.00012831 0.042114 0)
(-0.000246766 0.0419875 0)
(-0.000356226 0.041785 0)
(-0.000457072 0.0415126 0)
(-0.000549702 0.0411758 0)
(-0.000634511 0.0407799 0)
(-0.000711881 0.04033 0)
(-0.000782176 0.0398309 0)
(-0.000845748 0.0392873 0)
(-0.000902933 0.0387035 0)
(-0.00095406 0.0380836 0)
(-0.000999448 0.0374317 0)
(-0.00103941 0.0367513 0)
(-0.00107424 0.0360461 0)
(-0.00110425 0.0353193 0)
(-0.0011297 0.0345741 0)
(-0.00115089 0.0338134 0)
(-0.00116807 0.03304 0)
(-0.0011815 0.0322563 0)
(-0.00119144 0.031465 0)
(-0.00119811 0.0306681 0)
(-0.00120174 0.0298679 0)
(-0.00120257 0.0290662 0)
(-0.00120078 0.0282648 0)
(-0.00119659 0.0274655 0)
(-0.00119019 0.0266697 0)
(-0.00118176 0.0258789 0)
(-0.00117148 0.0250944 0)
(-0.00115951 0.0243173 0)
(-0.00114601 0.0235487 0)
(-0.00113114 0.0227896 0)
(-0.00111503 0.0220409 0)
(-0.00109782 0.0213032 0)
(-0.00107964 0.0205774 0)
(-0.00106062 0.019864 0)
(-0.00104086 0.0191636 0)
(-0.00102048 0.0184765 0)
(-0.000999575 0.0178033 0)
(-0.000978244 0.0171441 0)
(-0.000956578 0.0164992 0)
(-0.00093466 0.0158689 0)
(-0.000912571 0.0152533 0)
(-0.000890384 0.0146524 0)
(-0.00086817 0.0140664 0)
(-0.000845993 0.0134951 0)
(-0.000823913 0.0129387 0)
(-0.000801986 0.0123968 0)
(-0.000780264 0.0118696 0)
(-0.000758796 0.0113567 0)
(-0.000737626 0.0108581 0)
(-0.000716795 0.0103735 0)
(-0.000696341 0.00990258 0)
(-0.000676299 0.00944521 0)
(-0.000656701 0.00900105 0)
(-0.000637575 0.0085698 0)
(-0.00061895 0.00815114 0)
(-0.000600849 0.00774472 0)
(-0.000583294 0.00735019 0)
(-0.000566305 0.00696718 0)
(-0.0005499 0.00659529 0)
(-0.000534097 0.00623414 0)
(-0.000518908 0.00588332 0)
(-0.000504348 0.00554242 0)
(-0.000490428 0.00521101 0)
(-0.000477158 0.00488866 0)
(-0.000464548 0.00457494 0)
(-0.000452606 0.00426941 0)
(-0.00044134 0.00397161 0)
(-0.000430754 0.00368109 0)
(-0.000420856 0.0033974 0)
(-0.000411649 0.00312007 0)
(-0.000403138 0.00284866 0)
(-0.000395326 0.00258268 0)
(-0.000388217 0.00232167 0)
(-0.000381812 0.00206517 0)
(-0.000376114 0.00181271 0)
(-0.000371125 0.0015638 0)
(-0.000366846 0.00131798 0)
(-0.000363279 0.00107478 0)
(-0.000360424 0.000833721 0)
(-0.000358283 0.000594325 0)
(-0.000356854 0.000356119 0)
(-0.00035614 0.000118627 0)
(0.00607038 0.0256982 0)
(0.00551771 0.0280117 0)
(0.00499103 0.0301097 0)
(0.00448945 0.0320022 0)
(0.00401294 0.0336993 0)
(0.00356049 0.0352108 0)
(0.00313195 0.0365462 0)
(0.00272624 0.0377149 0)
(0.00234274 0.038726 0)
(0.00198133 0.0395882 0)
(0.00164071 0.0403101 0)
(0.00132009 0.0408999 0)
(0.00101917 0.0413656 0)
(0.000737453 0.0417149 0)
(0.000474098 0.0419553 0)
(0.000228229 0.042094 0)
(-8.83271e-07 0.0421377 0)
(-0.000213843 0.0420932 0)
(-0.000411217 0.0419667 0)
(-0.000593605 0.0417644 0)
(-0.000761648 0.0414921 0)
(-0.000916007 0.0411554 0)
(-0.00105734 0.0407597 0)
(-0.00118627 0.0403101 0)
(-0.00130341 0.0398113 0)
(-0.00140935 0.0392679 0)
(-0.00150464 0.0386844 0)
(-0.00158984 0.0380649 0)
(-0.00166547 0.0374132 0)
(-0.00173206 0.0367332 0)
(-0.00179011 0.0360283 0)
(-0.00184011 0.0353019 0)
(-0.00188253 0.0345571 0)
(-0.00191783 0.0337967 0)
(-0.00194646 0.0330237 0)
(-0.00196885 0.0322404 0)
(-0.0019854 0.0314495 0)
(-0.00199652 0.030653 0)
(-0.00200258 0.0298531 0)
(-0.00200395 0.0290518 0)
(-0.00200097 0.0282509 0)
(-0.001994 0.0274519 0)
(-0.00198333 0.0266565 0)
(-0.00196928 0.0258661 0)
(-0.00195215 0.025082 0)
(-0.0019322 0.0243053 0)
(-0.00190971 0.0235371 0)
(-0.00188492 0.0227784 0)
(-0.00185808 0.02203 0)
(-0.0018294 0.0212927 0)
(-0.00179911 0.0205673 0)
(-0.00176741 0.0198542 0)
(-0.00173448 0.0191541 0)
(-0.00170052 0.0184674 0)
(-0.00166568 0.0177945 0)
(-0.00163014 0.0171356 0)
(-0.00159403 0.0164911 0)
(-0.00155751 0.0158611 0)
(-0.0015207 0.0152458 0)
(-0.00148373 0.0146452 0)
(-0.00144671 0.0140595 0)
(-0.00140976 0.0134885 0)
(-0.00137296 0.0129323 0)
(-0.00133642 0.0123907 0)
(-0.00130023 0.0118637 0)
(-0.00126445 0.0113511 0)
(-0.00122917 0.0108527 0)
(-0.00119446 0.0103683 0)
(-0.00116038 0.00989769 0)
(-0.00112698 0.00944055 0)
(-0.00109432 0.00899661 0)
(-0.00106245 0.00856558 0)
(-0.00103141 0.00814712 0)
(-0.00100125 0.0077409 0)
(-0.000971996 0.00734656 0)
(-0.000943686 0.00696374 0)
(-0.00091635 0.00659204 0)
(-0.000890014 0.00623106 0)
(-0.000864704 0.00588042 0)
(-0.000840441 0.00553968 0)
(-0.000817245 0.00520844 0)
(-0.000795133 0.00488625 0)
(-0.00077412 0.00457269 0)
(-0.00075422 0.0042673 0)
(-0.000735445 0.00396965 0)
(-0.000717806 0.00367927 0)
(-0.000701311 0.00339572 0)
(-0.000685969 0.00311853 0)
(-0.000671786 0.00284725 0)
(-0.000658768 0.0025814 0)
(-0.000646921 0.00232053 0)
(-0.000636248 0.00206415 0)
(-0.000626754 0.00181181 0)
(-0.00061844 0.00156303 0)
(-0.00061131 0.00131733 0)
(-0.000605366 0.00107425 0)
(-0.000600608 0.00083331 0)
(-0.000597039 0.000594032 0)
(-0.000594659 0.000355943 0)
(-0.000593469 0.000118569 0)
(0.00849645 0.0256791 0)
(0.00772271 0.0279912 0)
(0.0069856 0.0300874 0)
(0.00628368 0.0319786 0)
(0.00561668 0.0336743 0)
(0.0049835 0.0351847 0)
(0.00438365 0.0365191 0)
(0.00381582 0.037687 0)
(0.0032791 0.0386973 0)
(0.00277313 0.0395589 0)
(0.00229633 0.0402802 0)
(0.00184766 0.0408696 0)
(0.00142656 0.0413349 0)
(0.00103224 0.041684 0)
(0.000663586 0.0419243 0)
(0.000319411 0.0420628 0)
(-1.27799e-06 0.0421065 0)
(-0.000299331 0.042062 0)
(-0.000575564 0.0419356 0)
(-0.000830829 0.0417335 0)
(-0.00106603 0.0414614 0)
(-0.00128208 0.041125 0)
(-0.0014799 0.0407296 0)
(-0.00166037 0.0402802 0)
(-0.00182433 0.0397818 0)
(-0.00197261 0.0392388 0)
(-0.00210598 0.0386558 0)
(-0.00222523 0.0380367 0)
(-0.00233109 0.0373855 0)
(-0.00242429 0.036706 0)
(-0.00250554 0.0360017 0)
(-0.00257551 0.0352758 0)
(-0.00263489 0.0345315 0)
(-0.0026843 0.0337717 0)
(-0.00272437 0.0329992 0)
(-0.00275571 0.0322166 0)
(-0.00277888 0.0314262 0)
(-0.00279444 0.0306303 0)
(-0.00280292 0.029831 0)
(-0.00280483 0.0290303 0)
(-0.00280067 0.0282299 0)
(-0.0027909 0.0274316 0)
(-0.00277598 0.0266368 0)
(-0.00275632 0.025847 0)
(-0.00273233 0.0250634 0)
(-0.00270441 0.0242873 0)
(-0.00267293 0.0235197 0)
(-0.00263824 0.0227615 0)
(-0.00260066 0.0220137 0)
(-0.00256053 0.021277 0)
(-0.00251813 0.0205521 0)
(-0.00247376 0.0198395 0)
(-0.00242768 0.01914 0)
(-0.00238014 0.0184538 0)
(-0.00233138 0.0177813 0)
(-0.00228163 0.0171229 0)
(-0.0022311 0.0164789 0)
(-0.00217998 0.0158494 0)
(-0.00212846 0.0152345 0)
(-0.00207671 0.0146344 0)
(-0.0020249 0.014049 0)
(-0.00197317 0.0134785 0)
(-0.00192167 0.0129227 0)
(-0.00187053 0.0123816 0)
(-0.00181987 0.0118549 0)
(-0.0017698 0.0113427 0)
(-0.00172042 0.0108447 0)
(-0.00167183 0.0103607 0)
(-0.00162413 0.00989036 0)
(-0.00157738 0.00943356 0)
(-0.00153167 0.00898995 0)
(-0.00148706 0.00855923 0)
(-0.00144362 0.00814109 0)
(-0.0014014 0.00773517 0)
(-0.00136046 0.00734112 0)
(-0.00132083 0.00695858 0)
(-0.00128257 0.00658715 0)
(-0.00124571 0.00622645 0)
(-0.00121029 0.00587606 0)
(-0.00117633 0.00553558 0)
(-0.00114386 0.00520458 0)
(-0.00111291 0.00488263 0)
(-0.0010835 0.0045693 0)
(-0.00105565 0.00426414 0)
(-0.00102937 0.00396671 0)
(-0.00100468 0.00367655 0)
(-0.000981593 0.00339321 0)
(-0.000960119 0.00311622 0)
(-0.000940268 0.00284514 0)
(-0.000922048 0.00257949 0)
(-0.000905466 0.00231881 0)
(-0.000890528 0.00206262 0)
(-0.000877239 0.00181047 0)
(-0.000865603 0.00156187 0)
(-0.000855623 0.00131636 0)
(-0.000847303 0.00107346 0)
(-0.000840644 0.000832693 0)
(-0.000835649 0.000593592 0)
(-0.000832318 0.00035568 0)
(-0.000830652 0.000118481 0)
(0.0109206 0.0256535 0)
(0.00992602 0.0279635 0)
(0.00897838 0.0300578 0)
(0.00807633 0.031947 0)
(0.00721904 0.0336411 0)
(0.00640529 0.0351499 0)
(0.00563429 0.0364831 0)
(0.00490445 0.0376498 0)
(0.00421462 0.0386591 0)
(0.00356423 0.0395198 0)
(0.0029514 0.0402404 0)
(0.00237479 0.0408292 0)
(0.0018336 0.0412941 0)
(0.00132678 0.0416429 0)
(0.000852898 0.0418829 0)
(0.000410499 0.0420213 0)
(-1.68233e-06 0.0420649 0)
(-0.000384749 0.0420204 0)
(-0.000739766 0.0418942 0)
(-0.00106784 0.0416922 0)
(-0.00137014 0.0414204 0)
(-0.00164783 0.0410844 0)
(-0.00190209 0.0406893 0)
(-0.00213405 0.0402404 0)
(-0.0023448 0.0397425 0)
(-0.00253538 0.0392001 0)
(-0.00270681 0.0386176 0)
(-0.00286007 0.0379991 0)
(-0.00299613 0.0373486 0)
(-0.00311592 0.0366698 0)
(-0.00322034 0.0359661 0)
(-0.00331029 0.0352409 0)
(-0.0033866 0.0344974 0)
(-0.00345011 0.0337383 0)
(-0.00350162 0.0329666 0)
(-0.00354189 0.0321847 0)
(-0.00357167 0.0313951 0)
(-0.00359166 0.0306 0)
(-0.00360257 0.0298016 0)
(-0.00360503 0.0290016 0)
(-0.00359968 0.0282021 0)
(-0.00358713 0.0274045 0)
(-0.00356794 0.0266105 0)
(-0.00354267 0.0258215 0)
(-0.00351184 0.0250387 0)
(-0.00347596 0.0242633 0)
(-0.0034355 0.0234964 0)
(-0.0033909 0.022739 0)
(-0.00334261 0.0219919 0)
(-0.00329103 0.0212559 0)
(-0.00323654 0.0205318 0)
(-0.0031795 0.0198199 0)
(-0.00312027 0.0191211 0)
(-0.00305917 0.0184355 0)
(-0.00299651 0.0177637 0)
(-0.00293256 0.017106 0)
(-0.00286761 0.0164626 0)
(-0.0028019 0.0158337 0)
(-0.00273569 0.0152194 0)
(-0.00266918 0.0146199 0)
(-0.00260258 0.0140352 0)
(-0.0025361 0.0134652 0)
(-0.00246991 0.0129099 0)
(-0.00240418 0.0123693 0)
(-0.00233906 0.0118432 0)
(-0.0022747 0.0113315 0)
(-0.00221124 0.010834 0)
(-0.00214879 0.0103504 0)
(-0.00208748 0.00988059 0)
(-0.00202739 0.00942424 0)
(-0.00196864 0.00898107 0)
(-0.00191131 0.00855078 0)
(-0.00185548 0.00813305 0)
(-0.00180121 0.00772753 0)
(-0.00174859 0.00733387 0)
(-0.00169766 0.00695171 0)
(-0.00164848 0.00658065 0)
(-0.0016011 0.0062203 0)
(-0.00155557 0.00587026 0)
(-0.00151192 0.00553011 0)
(-0.00147019 0.00519944 0)
(-0.00143041 0.00487781 0)
(-0.00139261 0.00456479 0)
(-0.00135681 0.00425993 0)
(-0.00132304 0.00396279 0)
(-0.00129131 0.00367291 0)
(-0.00126163 0.00338985 0)
(-0.00123403 0.00311315 0)
(-0.00120852 0.00284233 0)
(-0.0011851 0.00257694 0)
(-0.00116379 0.00231652 0)
(-0.00114459 0.00206059 0)
(-0.00112751 0.00180868 0)
(-0.00111255 0.00156033 0)
(-0.00109972 0.00131506 0)
(-0.00108903 0.0010724 0)
(-0.00108047 0.00083187 0)
(-0.00107405 0.000593006 0)
(-0.00106977 0.000355329 0)
(-0.00106763 0.000118364 0)
(0.0133421 0.0256218 0)
(0.012127 0.0279289 0)
(0.010969 0.0300206 0)
(0.009867 0.0319075 0)
(0.00881965 0.0335995 0)
(0.00782549 0.0351065 0)
(0.00688351 0.036438 0)
(0.00599184 0.0376033 0)
(0.00514909 0.0386113 0)
(0.00435446 0.0394709 0)
(0.00360576 0.0401907 0)
(0.00290135 0.0407788 0)
(0.0022402 0.0412431 0)
(0.00162099 0.0415914 0)
(0.00104199 0.0418311 0)
(0.000501476 0.0419693 0)
(-2.09086e-06 0.0420129 0)
(-0.000470071 0.0419685 0)
(-0.000903782 0.0418424 0)
(-0.00130459 0.0416407 0)
(-0.0016739 0.0413693 0)
(-0.00201317 0.0410336 0)
(-0.00232382 0.0406391 0)
(-0.00260721 0.0401907 0)
(-0.00286469 0.0396934 0)
(-0.00309752 0.0391517 0)
(-0.00330696 0.0385699 0)
(-0.00349421 0.0379522 0)
(-0.00366044 0.0373024 0)
(-0.00380678 0.0366245 0)
(-0.00393436 0.0359217 0)
(-0.00404424 0.0351974 0)
(-0.00413747 0.0344547 0)
(-0.00421506 0.0336967 0)
(-0.00427799 0.0329259 0)
(-0.00432719 0.032145 0)
(-0.00436357 0.0313563 0)
(-0.00438801 0.0305622 0)
(-0.00440133 0.0297647 0)
(-0.00440433 0.0289658 0)
(-0.0043978 0.0281672 0)
(-0.00438246 0.0273706 0)
(-0.00435902 0.0265776 0)
(-0.00432815 0.0257896 0)
(-0.00429049 0.0250077 0)
(-0.00424665 0.0242333 0)
(-0.00419721 0.0234674 0)
(-0.00414273 0.0227109 0)
(-0.00408373 0.0219648 0)
(-0.00402071 0.0212297 0)
(-0.00395414 0.0205064 0)
(-0.00388446 0.0197955 0)
(-0.0038121 0.0190974 0)
(-0.00373745 0.0184127 0)
(-0.00366089 0.0177418 0)
(-0.00358277 0.0170849 0)
(-0.00350341 0.0164423 0)
(-0.00342314 0.0158141 0)
(-0.00334224 0.0152006 0)
(-0.00326098 0.0146019 0)
(-0.00317963 0.0140178 0)
(-0.0030984 0.0134485 0)
(-0.00301754 0.012894 0)
(-0.00293723 0.012354 0)
(-0.00285767 0.0118286 0)
(-0.00277905 0.0113175 0)
(-0.00270151 0.0108206 0)
(-0.00262522 0.0103376 0)
(-0.00255031 0.00986838 0)
(-0.00247691 0.00941259 0)
(-0.00240513 0.00896997 0)
(-0.00233509 0.00854021 0)
(-0.00226687 0.008123 0)
(-0.00220058 0.00771798 0)
(-0.00213628 0.00732481 0)
(-0.00207406 0.00694312 0)
(-0.00201398 0.00657252 0)
(-0.0019561 0.00621261 0)
(-0.00190047 0.00586301 0)
(-0.00184715 0.00552328 0)
(-0.00179616 0.00519302 0)
(-0.00174757 0.00487178 0)
(-0.00170138 0.00455915 0)
(-0.00165765 0.00425466 0)
(-0.00161638 0.00395789 0)
(-0.00157761 0.00366838 0)
(-0.00154136 0.00338567 0)
(-0.00150764 0.0031093 0)
(-0.00147647 0.00283882 0)
(-0.00144786 0.00257376 0)
(-0.00142182 0.00231366 0)
(-0.00139837 0.00205804 0)
(-0.0013775 0.00180645 0)
(-0.00135923 0.0015584 0)
(-0.00134356 0.00131343 0)
(-0.00133049 0.00107107 0)
(-0.00132003 0.000830842 0)
(-0.00131219 0.000592273 0)
(-0.00130696 0.00035489 0)
(-0.00130434 0.000118217 0)
(0.0157602 0.0255838 0)
(0.0143249 0.0278874 0)
(0.012957 0.0299761 0)
(0.0116553 0.0318602 0)
(0.0104181 0.0335497 0)
(0.00924375 0.0350544 0)
(0.00813103 0.0363839 0)
(0.00707776 0.0375475 0)
(0.00608229 0.038554 0)
(0.00514362 0.0394124 0)
(0.00425923 0.0401311 0)
(0.0034272 0.0407183 0)
(0.00264625 0.0411819 0)
(0.00191478 0.0415297 0)
(0.00123082 0.041769 0)
(0.000592325 0.0419071 0)
(-2.50007e-06 0.0419506 0)
(-0.000555274 0.0419062 0)
(-0.00106757 0.0417803 0)
(-0.001541 0.0415789 0)
(-0.00197725 0.0413079 0)
(-0.00237801 0.0409727 0)
(-0.00274496 0.0405788 0)
(-0.00307973 0.0401311 0)
(-0.00338387 0.0396345 0)
(-0.00365891 0.0390936 0)
(-0.00390631 0.0385126 0)
(-0.00412749 0.0378958 0)
(-0.00432384 0.0372471 0)
(-0.00449671 0.0365701 0)
(-0.0046474 0.0358684 0)
(-0.0047772 0.0351452 0)
(-0.00488733 0.0344036 0)
(-0.00497898 0.0336467 0)
(-0.00505331 0.032877 0)
(-0.00511143 0.0320973 0)
(-0.00515441 0.0313098 0)
(-0.00518327 0.0305169 0)
(-0.005199 0.0297206 0)
(-0.00520255 0.0289228 0)
(-0.00519483 0.0281254 0)
(-0.00517672 0.02733 0)
(-0.00514903 0.0265382 0)
(-0.00511256 0.0257513 0)
(-0.00506807 0.0249706 0)
(-0.00501629 0.0241974 0)
(-0.00495789 0.0234326 0)
(-0.00489354 0.0226772 0)
(-0.00482385 0.0219322 0)
(-0.00474941 0.0211982 0)
(-0.00467077 0.020476 0)
(-0.00458846 0.0197661 0)
(-0.00450299 0.0190691 0)
(-0.00441481 0.0183854 0)
(-0.00432437 0.0177155 0)
(-0.00423209 0.0170595 0)
(-0.00413835 0.0164179 0)
(-0.00404353 0.0157907 0)
(-0.00394797 0.0151781 0)
(-0.00385199 0.0145802 0)
(-0.00375588 0.013997 0)
(-0.00365994 0.0134286 0)
(-0.00356442 0.0128748 0)
(-0.00346956 0.0123357 0)
(-0.00337558 0.0118111 0)
(-0.00328271 0.0113007 0)
(-0.00319112 0.0108045 0)
(-0.003101 0.0103223 0)
(-0.00301252 0.00985374 0)
(-0.00292581 0.00939863 0)
(-0.00284102 0.00895666 0)
(-0.00275828 0.00852754 0)
(-0.00267771 0.00811094 0)
(-0.0025994 0.00770653 0)
(-0.00252345 0.00731394 0)
(-0.00244995 0.00693282 0)
(-0.00237898 0.00656276 0)
(-0.00231061 0.0062034 0)
(-0.0022449 0.00585431 0)
(-0.00218191 0.00551509 0)
(-0.00212169 0.00518531 0)
(-0.00206428 0.00486456 0)
(-0.00200973 0.00455238 0)
(-0.00195807 0.00424835 0)
(-0.00190933 0.00395202 0)
(-0.00186353 0.00366293 0)
(-0.00182071 0.00338064 0)
(-0.00178088 0.00310469 0)
(-0.00174406 0.00283461 0)
(-0.00171026 0.00256994 0)
(-0.00167951 0.00231022 0)
(-0.0016518 0.00205499 0)
(-0.00162715 0.00180377 0)
(-0.00160556 0.00155609 0)
(-0.00158705 0.00131148 0)
(-0.00157162 0.00106948 0)
(-0.00155927 0.00082961 0)
(-0.00155 0.000591394 0)
(-0.00154383 0.000354363 0)
(-0.00154074 0.000118042 0)
(0.0181744 0.0255396 0)
(0.0165192 0.0278391 0)
(0.0149418 0.0299241 0)
(0.0134406 0.031805 0)
(0.0120139 0.0334916 0)
(0.0106597 0.0349937 0)
(0.00937653 0.0363209 0)
(0.00816193 0.0374824 0)
(0.00701401 0.0384872 0)
(0.00593152 0.0393441 0)
(0.00491166 0.0400616 0)
(0.0039522 0.0406477 0)
(0.00305163 0.0411106 0)
(0.0022081 0.0414577 0)
(0.00141934 0.0416967 0)
(0.000683025 0.0418344 0)
(-2.9081e-06 0.0418779 0)
(-0.000640338 0.0418336 0)
(-0.00123109 0.0417079 0)
(-0.00177704 0.0415069 0)
(-0.00228011 0.0412363 0)
(-0.00274227 0.0409017 0)
(-0.00316543 0.0405085 0)
(-0.00355148 0.0400616 0)
(-0.00390222 0.0395658 0)
(-0.00421939 0.0390258 0)
(-0.00450468 0.0384459 0)
(-0.00475975 0.0378302 0)
(-0.00498617 0.0371826 0)
(-0.00518552 0.0365067 0)
(-0.0053593 0.0358062 0)
(-0.00550898 0.0350843 0)
(-0.00563598 0.034344 0)
(-0.00574167 0.0335884 0)
(-0.00582739 0.0328201 0)
(-0.00589441 0.0320417 0)
(-0.00594397 0.0312556 0)
(-0.00597725 0.030464 0)
(-0.00599539 0.0296691 0)
(-0.00599949 0.0288727 0)
(-0.00599059 0.0280767 0)
(-0.00596969 0.0272827 0)
(-0.00593776 0.0264922 0)
(-0.00589571 0.0257067 0)
(-0.00584441 0.0249274 0)
(-0.00578469 0.0241554 0)
(-0.00571735 0.023392 0)
(-0.00564314 0.0226379 0)
(-0.00556277 0.0218942 0)
(-0.00547693 0.0211615 0)
(-0.00538624 0.0204405 0)
(-0.00529133 0.0197318 0)
(-0.00519276 0.019036 0)
(-0.00509107 0.0183536 0)
(-0.00498678 0.0176848 0)
(-0.00488037 0.01703 0)
(-0.00477227 0.0163894 0)
(-0.00466293 0.0157633 0)
(-0.00455273 0.0151518 0)
(-0.00444204 0.0145549 0)
(-0.00433122 0.0139728 0)
(-0.00422058 0.0134053 0)
(-0.00411042 0.0128525 0)
(-0.00400103 0.0123143 0)
(-0.00389266 0.0117906 0)
(-0.00378556 0.0112811 0)
(-0.00367994 0.0107858 0)
(-0.00357602 0.0103044 0)
(-0.00347398 0.00983667 0)
(-0.00337399 0.00938234 0)
(-0.00327622 0.00894114 0)
(-0.0031808 0.00851276 0)
(-0.00308788 0.00809689 0)
(-0.00299758 0.00769318 0)
(-0.00291 0.00730127 0)
(-0.00282524 0.0069208 0)
(-0.0027434 0.00655139 0)
(-0.00266456 0.00619265 0)
(-0.00258878 0.00584416 0)
(-0.00251614 0.00550553 0)
(-0.0024467 0.00517633 0)
(-0.0023805 0.00485613 0)
(-0.00231759 0.00454449 0)
(-0.00225801 0.00424099 0)
(-0.0022018 0.00394517 0)
(-0.00214899 0.00365659 0)
(-0.00209961 0.00337478 0)
(-0.00205368 0.00309931 0)
(-0.00201122 0.00282969 0)
(-0.00197224 0.00256549 0)
(-0.00193678 0.00230622 0)
(-0.00190482 0.00205143 0)
(-0.0018764 0.00180064 0)
(-0.00185151 0.00155339 0)
(-0.00183016 0.00130921 0)
(-0.00181236 0.00106763 0)
(-0.00179812 0.000828172 0)
(-0.00178744 0.00059037 0)
(-0.00178031 0.000353749 0)
(-0.00177675 0.000117837 0)
(0.0205841 0.025489 0)
(0.0187094 0.0277839 0)
(0.0169229 0.0298648 0)
(0.0152227 0.0317419 0)
(0.0136068 0.0334252 0)
(0.0120731 0.0349243 0)
(0.0106197 0.0362489 0)
(0.00924409 0.0374081 0)
(0.00794399 0.0384109 0)
(0.00671797 0.0392661 0)
(0.00556287 0.0399821 0)
(0.00447623 0.0405672 0)
(0.00345626 0.0410291 0)
(0.00250087 0.0413756 0)
(0.0016075 0.041614 0)
(0.000773556 0.0417515 0)
(-3.31386e-06 0.0417949 0)
(-0.000725242 0.0417507 0)
(-0.0013943 0.0416252 0)
(-0.00201263 0.0414246 0)
(-0.00258241 0.0411546 0)
(-0.00310585 0.0408206 0)
(-0.00358512 0.0404282 0)
(-0.00402236 0.0399822 0)
(-0.00441961 0.0394874 0)
(-0.00477883 0.0389485 0)
(-0.00510195 0.0383697 0)
(-0.00539083 0.0377552 0)
(-0.00564728 0.0371089 0)
(-0.00587306 0.0364344 0)
(-0.00606988 0.0357352 0)
(-0.0062394 0.0350147 0)
(-0.00638323 0.0342759 0)
(-0.00650294 0.0335218 0)
(-0.00660002 0.032755 0)
(-0.00667593 0.0319781 0)
(-0.00673206 0.0311936 0)
(-0.00676975 0.0304036 0)
(-0.0067903 0.0296102 0)
(-0.00679494 0.0288155 0)
(-0.00678486 0.028021 0)
(-0.0067612 0.0272286 0)
(-0.00672503 0.0264397 0)
(-0.0066774 0.0256557 0)
(-0.0066193 0.0248779 0)
(-0.00655167 0.0241075 0)
(-0.0064754 0.0233456 0)
(-0.00639135 0.0225931 0)
(-0.00630032 0.0218508 0)
(-0.0062031 0.0211195 0)
(-0.00610039 0.0204 0)
(-0.00599289 0.0196927 0)
(-0.00588125 0.0189983 0)
(-0.00576608 0.0183172 0)
(-0.00564797 0.0176497 0)
(-0.00552744 0.0169962 0)
(-0.00540502 0.0163569 0)
(-0.00528117 0.0157321 0)
(-0.00515636 0.0151217 0)
(-0.005031 0.0145261 0)
(-0.00490548 0.0139451 0)
(-0.00478017 0.0133787 0)
(-0.00465541 0.0128271 0)
(-0.00453151 0.0122899 0)
(-0.00440878 0.0117672 0)
(-0.00428747 0.0112588 0)
(-0.00416786 0.0107644 0)
(-0.00405015 0.010284 0)
(-0.00393458 0.00981717 0)
(-0.00382134 0.00936374 0)
(-0.0037106 0.00892342 0)
(-0.00360254 0.00849589 0)
(-0.0034973 0.00808084 0)
(-0.00339502 0.00767792 0)
(-0.00329582 0.0072868 0)
(-0.00319983 0.00690708 0)
(-0.00310714 0.0065384 0)
(-0.00301784 0.00618037 0)
(-0.00293202 0.00583258 0)
(-0.00284975 0.00549462 0)
(-0.0027711 0.00516607 0)
(-0.00269612 0.0048465 0)
(-0.00262487 0.00453548 0)
(-0.00255739 0.00423258 0)
(-0.00249373 0.00393735 0)
(-0.00243392 0.00364934 0)
(-0.00237799 0.00336809 0)
(-0.00232597 0.00309316 0)
(-0.00227788 0.00282409 0)
(-0.00223374 0.0025604 0)
(-0.00219357 0.00230165 0)
(-0.00215738 0.00204736 0)
(-0.00212518 0.00179707 0)
(-0.00209699 0.00155031 0)
(-0.00207282 0.00130662 0)
(-0.00205266 0.00106551 0)
(-0.00203653 0.00082653 0)
(-0.00202443 0.000589199 0)
(-0.00201636 0.000353048 0)
(-0.00201232 0.000117604 0)
(0.0229888 0.025432 0)
(0.020895 0.0277219 0)
(0.0188998 0.0297981 0)
(0.017001 0.031671 0)
(0.0151963 0.0333505 0)
(0.0134834 0.0348463 0)
(0.0118603 0.0361679 0)
(0.010324 0.0373246 0)
(0.00887202 0.0383251 0)
(0.00750275 0.0391784 0)
(0.00621271 0.0398929 0)
(0.00499914 0.0404766 0)
(0.00386003 0.0409375 0)
(0.00279302 0.0412832 0)
(0.00179527 0.0415211 0)
(0.000863897 0.0416582 0)
(-3.71673e-06 0.0417015 0)
(-0.000809963 0.0416574 0)
(-0.00155717 0.0415323 0)
(-0.00224772 0.0413321 0)
(-0.00288406 0.0410627 0)
(-0.00346865 0.0407295 0)
(-0.00400393 0.0403379 0)
(-0.00449225 0.0398929 0)
(-0.0049359 0.0393992 0)
(-0.00533709 0.0388615 0)
(-0.00569796 0.038284 0)
(-0.00602059 0.0376709 0)
(-0.00630699 0.037026 0)
(-0.00655915 0.036353 0)
(-0.00677896 0.0356554 0)
(-0.00696828 0.0349365 0)
(-0.00712892 0.0341994 0)
(-0.00726261 0.0334469 0)
(-0.00737103 0.0326818 0)
(-0.00745581 0.0319067 0)
(-0.00751849 0.0311239 0)
(-0.00756059 0.0303357 0)
(-0.00758354 0.0295441 0)
(-0.00758872 0.0287511 0)
(-0.00757746 0.0279584 0)
(-0.00755103 0.0271678 0)
(-0.00751064 0.0263806 0)
(-0.00745745 0.0255984 0)
(-0.00739256 0.0248224 0)
(-0.00731703 0.0240537 0)
(-0.00723185 0.0232935 0)
(-0.00713798 0.0225426 0)
(-0.00703632 0.021802 0)
(-0.00692773 0.0210723 0)
(-0.00681303 0.0203544 0)
(-0.00669297 0.0196487 0)
(-0.00656829 0.0189559 0)
(-0.00643967 0.0182763 0)
(-0.00630776 0.0176103 0)
(-0.00617315 0.0169583 0)
(-0.00603642 0.0163204 0)
(-0.00589811 0.0156969 0)
(-0.00575872 0.015088 0)
(-0.00561872 0.0144936 0)
(-0.00547853 0.0139139 0)
(-0.00533858 0.0133489 0)
(-0.00519925 0.0127984 0)
(-0.00506088 0.0122625 0)
(-0.00492381 0.0117409 0)
(-0.00478833 0.0112336 0)
(-0.00465474 0.0107404 0)
(-0.00452329 0.010261 0)
(-0.00439421 0.00979524 0)
(-0.00426774 0.00934283 0)
(-0.00414407 0.00890349 0)
(-0.00402338 0.00847692 0)
(-0.00390585 0.00806279 0)
(-0.00379162 0.00766078 0)
(-0.00368084 0.00727052 0)
(-0.00357363 0.00689166 0)
(-0.00347011 0.0065238 0)
(-0.00337038 0.00616657 0)
(-0.00327454 0.00581955 0)
(-0.00318265 0.00548235 0)
(-0.00309481 0.00515453 0)
(-0.00301108 0.00483568 0)
(-0.0029315 0.00452536 0)
(-0.00285614 0.00422313 0)
(-0.00278505 0.00392856 0)
(-0.00271825 0.00364119 0)
(-0.00265578 0.00336057 0)
(-0.00259769 0.00308625 0)
(-0.00254398 0.00281778 0)
(-0.00249468 0.00255468 0)
(-0.00244982 0.00229651 0)
(-0.0024094 0.00204279 0)
(-0.00237344 0.00179306 0)
(-0.00234196 0.00154685 0)
(-0.00231496 0.0013037 0)
(-0.00229245 0.00106313 0)
(-0.00227444 0.000824685 0)
(-0.00226092 0.000587883 0)
(-0.00225191 0.000352259 0)
(-0.0022474 0.000117341 0)
(0.0253877 0.0253688 0)
(0.0230755 0.027653 0)
(0.0208721 0.0297241 0)
(0.0187751 0.0315923 0)
(0.0167821 0.0332676 0)
(0.0148905 0.0347597 0)
(0.013098 0.036078 0)
(0.0114013 0.0372318 0)
(0.00979786 0.0382299 0)
(0.00828568 0.0390811 0)
(0.00686101 0.0397937 0)
(0.00552082 0.040376 0)
(0.00426284 0.0408357 0)
(0.00308448 0.0411806 0)
(0.00198259 0.0414179 0)
(0.000954026 0.0415547 0)
(-4.11656e-06 0.0415979 0)
(-0.000894483 0.0415539 0)
(-0.00171965 0.0414291 0)
(-0.00248226 0.0412294 0)
(-0.00318501 0.0409606 0)
(-0.00383061 0.0406283 0)
(-0.00442175 0.0402377 0)
(-0.00496103 0.0397938 0)
(-0.00545098 0.0393013 0)
(-0.00589404 0.0387649 0)
(-0.00629257 0.0381889 0)
(-0.00664886 0.0375773 0)
(-0.00696515 0.036934 0)
(-0.00724361 0.0362627 0)
(-0.00748636 0.0355668 0)
(-0.00769544 0.0348497 0)
(-0.00787284 0.0341144 0)
(-0.00802049 0.0333638 0)
(-0.00814022 0.0326006 0)
(-0.00823384 0.0318274 0)
(-0.00830307 0.0310466 0)
(-0.00834956 0.0302603 0)
(-0.0083749 0.0294707 0)
(-0.00838063 0.0286797 0)
(-0.00836819 0.027889 0)
(-0.00833901 0.0271003 0)
(-0.0082944 0.0263151 0)
(-0.00823566 0.0255348 0)
(-0.008164 0.0247607 0)
(-0.00808058 0.0239939 0)
(-0.00798651 0.0232356 0)
(-0.00788285 0.0224866 0)
(-0.00777058 0.0217478 0)
(-0.00765066 0.02102 0)
(-0.00752399 0.0203038 0)
(-0.00739141 0.0195999 0)
(-0.00725371 0.0189088 0)
(-0.00711167 0.0182309 0)
(-0.00696599 0.0175665 0)
(-0.00681734 0.0169161 0)
(-0.00666634 0.0162798 0)
(-0.0065136 0.0156579 0)
(-0.00635966 0.0150505 0)
(-0.00620504 0.0144576 0)
(-0.00605023 0.0138794 0)
(-0.00589568 0.0133157 0)
(-0.00574181 0.0127666 0)
(-0.005589 0.012232 0)
(-0.00543762 0.0117118 0)
(-0.00528801 0.0112057 0)
(-0.00514048 0.0107137 0)
(-0.00499531 0.0102355 0)
(-0.00485276 0.0097709 0)
(-0.00471309 0.00931961 0)
(-0.00457651 0.00888136 0)
(-0.00444323 0.00845585 0)
(-0.00431343 0.00804276 0)
(-0.00418729 0.00764174 0)
(-0.00406495 0.00725246 0)
(-0.00394655 0.00687453 0)
(-0.00383223 0.00650759 0)
(-0.00372209 0.00615125 0)
(-0.00361624 0.00580509 0)
(-0.00351477 0.00546872 0)
(-0.00341777 0.00514172 0)
(-0.00332529 0.00482366 0)
(-0.00323741 0.00451411 0)
(-0.00315419 0.00421264 0)
(-0.00307567 0.0039188 0)
(-0.00300191 0.00363214 0)
(-0.00293292 0.00335222 0)
(-0.00286876 0.00307859 0)
(-0.00280945 0.00281078 0)
(-0.00275501 0.00254834 0)
(-0.00270546 0.0022908 0)
(-0.00266083 0.00203771 0)
(-0.00262112 0.0017886 0)
(-0.00258635 0.00154301 0)
(-0.00255654 0.00130046 0)
(-0.00253167 0.00106049 0)
(-0.00251178 0.000822635 0)
(-0.00249685 0.000586423 0)
(-0.0024869 0.000351384 0)
(-0.00248192 0.00011705 0)
(0.0277804 0.0252994 0)
(0.0252503 0.0275772 0)
(0.0228392 0.0296427 0)
(0.0205445 0.0315058 0)
(0.0183638 0.0331766 0)
(0.0162938 0.0346646 0)
(0.0143324 0.0359793 0)
(0.0124758 0.0371299 0)
(0.0107213 0.0381253 0)
(0.00906657 0.0389741 0)
(0.00750762 0.0396848 0)
(0.00604113 0.0402654 0)
(0.00466461 0.0407239 0)