/*--------------------------------*- C++ -*----------------------------------*\
| =========                 |                                                 |
| \\      /  F ield         | OpenFOAM: The Open Source CFD Toolbox           |
|  \\    /   O peration     | Version:  2406                                  |
|   \\  /    A nd           | Website:  www.openfoam.com                      |
|    \\/     M anipulation  |                                                 |
\*---------------------------------------------------------------------------*/
FoamFile
{
    version     2.0;
    format      ascii;
    arch        "LSB;label=32;scalar=64";
    class       volScalarField;
    location    "120";
    object      gradTy;
}
// * * * * * * * * * * * * * * * * * * * * * * * * * * * * * * * * * * * * * //

dimensions      [0 -1 0 1 0 0 0];

internalField   nonuniform List<scalar> 
20000
(
93.4041
101.814
109.44
116.318
122.486
127.98
132.834
137.082
140.756
143.89
146.514
148.659
150.351
151.62
152.494
152.998
153.157
152.995
152.536
151.8
150.811
149.587
148.149
146.514
144.701
142.726
140.605
138.354
135.985
133.513
130.952
128.311
125.604
122.84
120.03
117.184
114.309
111.414
108.507
105.594
102.683
99.779
96.888
94.0152
91.1651
88.342
85.5498
82.7921
80.072
77.3923
74.7555
72.1638
69.6192
67.1232
64.6773
62.2825
59.9399
57.65
55.4135
53.2307
51.1016
49.0264
47.0047
45.0363
43.1209
41.2577
39.4462
37.6856
35.975
34.3134
32.6998
31.1331
29.6122
28.1357
26.7024
25.311
23.9599
22.6479
21.3734
20.135
18.931
17.76
16.6203
15.5103
14.4284
13.373
12.3424
11.3349
10.3488
9.38258
8.43438
7.50254
6.58535
5.68111
4.78809
3.90456
3.02881
2.15912
1.29374
0.430959
93.3813
101.788
109.412
116.289
122.456
127.949
132.801
137.048
140.722
143.855
146.478
148.622
150.314
151.583
152.456
152.96
153.119
152.958
152.498
151.763
150.773
149.55
148.112
146.478
144.665
142.691
140.571
138.319
135.952
133.481
130.919
128.28
125.573
122.81
120.001
117.155
114.281
111.386
108.48
105.568
102.658
99.7544
96.8641
93.992
91.1426
88.3202
85.5287
82.7717
80.0522
77.3732
74.7371
72.146
69.602
67.1066
64.6613
62.2671
59.9251
57.6358
55.3999
53.2176
51.089
49.0143
46.9931
45.0252
43.1102
41.2475
39.4365
37.6763
35.9661
34.3049
32.6917
31.1255
29.6049
28.1288
26.6958
25.3047
23.954
22.6423
21.3682
20.13
18.9263
17.7556
16.6162
15.5064
14.4248
13.3697
12.3393
11.3321
10.3463
9.38026
8.43229
7.50069
6.58373
5.67971
4.78691
3.9036
3.02807
2.15858
1.29342
0.430852
93.3357
101.738
109.358
116.232
122.396
127.885
132.735
136.98
140.652
143.784
146.406
148.548
150.239
151.508
152.381
152.885
153.044
152.882
152.423
151.688
150.699
149.476
148.039
146.406
144.594
142.621
140.501
138.251
135.884
133.415
130.855
128.216
125.511
122.749
119.942
117.097
114.224
111.331
108.426
105.516
102.607
99.7051
96.8163
93.9456
91.0976
88.2766
85.4865
82.7308
80.0127
77.335
74.7002
72.1104
69.5677
67.0735
64.6294
62.2364
59.8955
57.6074
55.3725
53.1913
51.0638
48.9901
46.9699
45.003
43.089
41.2272
39.417
37.6577
35.9483
34.288
32.6756
31.1101
29.5903
28.1149
26.6827
25.2922
23.9422
22.6312
21.3576
20.1201
18.917
17.7468
16.608
15.4988
14.4177
13.3631
12.3332
11.3265
10.3412
9.37563
8.42813
7.49699
6.58048
5.67691
4.78454
3.90167
3.02657
2.15752
1.29278
0.43064
93.2664
101.664
109.277
116.146
122.305
127.79
132.637
136.879
140.548
143.678
146.297
148.438
150.128
151.396
152.269
152.772
152.931
152.769
152.31
151.576
150.587
149.366
147.929
146.297
144.487
142.515
140.397
138.149
135.784
133.316
130.758
128.121
125.418
122.659
119.853
117.01
114.14
111.249
108.346
105.438
102.531
99.6313
96.7446
93.876
91.0301
88.2112
85.4232
82.6696
79.9535
77.2777
74.6449
72.057
69.5162
67.0239
64.5815
62.1903
59.8511
57.5647
55.3315
53.1519
51.026
48.9538
46.9351
44.9697
43.057
41.1967
39.3878
37.6298
35.9217
34.2626
32.6514
31.0871
29.5684
28.0941
26.6629
25.2735
23.9245
22.6144
21.3418
20.1052
18.903
17.7337
16.5957
15.4873
14.407
13.3532
12.3241
11.3181
10.3335
9.36869
8.42189
7.49143
6.57561
5.6727
4.781
3.89878
3.02433
2.15592
1.29183
0.430321
93.1733
101.563
109.17
116.031
122.184
127.664
132.506
136.744
140.409
143.536
146.153
148.291
149.98
151.246
152.118
152.621
152.779
152.618
152.159
151.426
150.439
149.218
147.783
146.153
144.344
142.374
140.259
138.012
135.65
133.184
130.629
127.995
125.294
122.537
119.734
116.895
114.027
111.139
108.239
105.334
102.43
99.5329
96.6491
93.7833
90.9402
88.1241
85.3388
82.5879
79.8745
77.2014
74.5711
71.9859
69.4475
66.9576
64.5177
62.1289
59.792
57.5078
55.2769
53.0994
50.9756
48.9054
46.8888
44.9253
43.0145
41.156
39.3489
37.5926
35.8862
34.2287
32.6192
31.0563
29.5391
28.0663
26.6366
25.2485
23.9008
22.5921
21.3207
20.0853
18.8843
17.7162
16.5793
15.472
14.3928
13.34
12.3119
11.3069
10.3233
9.35943
8.41357
7.48403
6.56911
5.6671
4.77628
3.89493
3.02134
2.15379
1.29055
0.429896
93.058
101.437
109.035
115.888
122.033
127.507
132.342
136.575
140.236
143.358
145.972
148.108
149.795
151.06
151.93
152.432
152.591
152.429
151.971
151.239
150.253
149.034
147.601
145.972
144.166
142.198
140.085
137.842
135.482
133.02
130.467
127.837
125.139
122.386
119.586
116.75
113.886
111.002
108.105
105.203
102.303
99.4099
96.5297
93.6674
90.8278
88.0152
85.2334
82.4859
79.7758
77.106
74.479
71.8969
69.3617
66.8749
64.438
62.0521
59.7182
57.4368
55.2086
53.0338
50.9126
48.845
46.8308
44.8698
42.9614
41.1051
39.3003
37.5462
35.8419
34.1864
32.5788
31.018
29.5026
28.0316
26.6036
25.2173
23.8713
22.5642
21.2944
20.0605
18.861
17.6943
16.5588
15.4529
14.375
13.3235
12.2967
11.2929
10.3106
9.34787
8.40318
7.47479
6.561
5.6601
4.77038
3.89012
3.01761
2.15113
1.28896
0.429365
92.9202
101.287
108.873
115.716
121.852
127.317
132.146
136.372
140.028
143.145
145.756
147.888
149.572
150.836
151.705
152.206
152.364
152.203
151.746
151.014
150.03
148.813
147.382
145.756
143.952
141.987
139.878
137.637
135.281
132.822
130.274
127.647
124.954
122.204
119.409
116.577
113.717
110.837
107.945
105.047
102.151
99.2624
96.3864
93.5284
90.6931
87.8846
85.1069
82.3635
79.6574
76.9916
74.3685
71.7902
69.2588
66.7757
64.3424
61.9601
59.6295
57.3516
55.1266
52.9551
50.8371
48.7725
46.7613
44.8032
42.8976
41.0441
39.242
37.4905
35.7887
34.1357
32.5305
30.9719
29.4589
27.99
26.5642
25.1799
23.8359
22.5307
21.2628
20.0307
18.833
17.668
16.5342
15.43
14.3537
13.3037
12.2785
11.2762
10.2953
9.334
8.39071
7.4637
6.55126
5.6517
4.7633
3.88435
3.01313
2.14794
1.28704
0.428728
92.7595
101.111
108.684
115.515
121.641
127.097
131.917
136.136
139.785
142.897
145.503
147.632
149.313
150.574
151.442
151.942
152.1
151.939
151.483
150.753
149.77
148.555
147.126
145.503
143.703
141.741
139.635
137.399
135.047
132.592
130.048
127.426
124.737
121.993
119.202
116.375
113.52
110.645
107.758
104.865
101.974
99.0904
96.2194
93.3664
90.5359
87.7323
84.9594
82.2208
79.5194
76.8582
74.2396
71.6658
69.1387
66.66
64.2309
61.8527
59.5262
57.2522
55.0311
52.8633
50.749
48.688
46.6803
44.7255
42.8233
40.973
39.174
37.4255
35.7267
34.0766
32.4741
30.9183
29.4078
27.9415
26.5181
25.1363
23.7946
22.4916
21.2259
19.996
18.8004
17.6374
16.5056
15.4032
14.3288
13.2807
12.2572
11.2567
10.2774
9.31783
8.37617
7.45076
6.53991
5.64191
4.75504
3.87762
3.00791
2.14422
1.28481
0.427985
92.5757
100.911
108.469
115.286
121.4
126.845
131.656
135.866
139.508
142.614
145.215
147.34
149.017
150.276
151.142
151.641
151.799
151.638
151.182
150.454
149.473
148.26
146.835
145.215
143.418
141.46
139.358
137.127
134.779
132.329
129.79
127.173
124.49
121.751
118.966
116.144
113.295
110.426
107.544
104.657
101.772
98.894
96.0287
93.1813
90.3564
87.5584
84.791
82.0578
79.3618
76.7058
74.0924
71.5238
69.0017
66.5278
64.1036
61.7301
59.4082
57.1387
54.922
52.7585
50.6484
48.5915
46.5878
44.6369
42.7384
40.8918
39.0963
37.3513
35.6559
34.009
32.4098
30.857
29.3495
27.8862
26.4656
25.0865
23.7474
22.447
21.1839
19.9564
18.7631
17.6024
16.4728
15.3727
14.3004
13.2544
12.2329
11.2343
10.2571
9.29935
8.35957
7.43599
6.52694
5.63072
4.74562
3.86993
3.00195
2.13997
1.28227
0.427136
92.3689
100.686
108.226
115.029
121.129
126.562
131.362
135.562
139.197
142.296
144.89
147.011
148.684
149.94
150.804
151.302
151.46
151.299
150.845
150.118
149.139
147.929
146.507
144.891
143.098
141.145
139.047
136.82
134.478
132.034
129.5
126.889
124.212
121.479
118.7
115.885
113.042
110.179
107.304
104.424
101.545
98.6731
95.8142
92.9732
90.1546
87.3629
84.6017
81.8745
79.1845
76.5345
73.927
71.364
68.8476
66.3793
63.9604
61.5922
59.2755
57.0111
54.7994
52.6407
50.5353
48.483
46.4837
44.5372
42.643
40.8005
39.009
37.2679
35.5762
33.9331
32.3374
30.7881
29.284
27.8239
26.4065
25.0304
23.6944
22.3969
21.1366
19.9118
18.7212
17.5631
16.4361
15.3384
14.2685
13.2248
12.2056
11.2092
10.2341
9.27859
8.3409
7.41939
6.51237
5.61815
4.73502
3.86129
2.99525
2.13519
1.2794
0.426182
92.1394
100.435
107.958
114.743
120.828
126.247
131.035
135.226
138.851
141.942
144.53
146.645
148.315
149.567
150.429
150.926
151.083
150.923
150.47
149.745
148.769
147.562
146.143
144.531
142.742
140.794
138.702
136.48
134.144
131.706
129.178
126.574
123.903
121.177
118.405
115.597
112.761
109.905
107.037
104.164
101.292
98.4279
95.5761
92.7421
89.9306
87.1458
84.3914
81.6711
78.9878
76.3444
73.7433
71.1867
68.6765
66.2143
63.8015
61.4392
59.1282
56.8694
54.6632
52.5099
50.4097
48.3625
46.3682
44.4265
42.537
40.6991
38.9121
37.1753
35.4878
33.8488
32.257
30.7116
29.2112
27.7547
26.3409
24.9682
23.6355
22.3413
21.084
19.8624
18.6747
17.5195
16.3952
15.3003
14.233
13.1919
12.1752
11.1814
10.2087
9.25553
8.32017
7.40095
6.49619
5.60419
4.72325
3.85169
2.9878
2.12988
1.27622
0.425123
91.8871
100.16
107.662
114.429
120.497
125.901
130.676
134.855
138.471
141.554
144.135
146.244
147.909
149.158
150.017
150.513
150.67
150.51
150.058
149.335
148.361
147.158
145.743
144.135
142.351
140.408
138.322
136.107
133.777
131.345
128.825
126.227
123.564
120.845
118.081
115.28
112.452
109.604
106.744
103.879
101.015
98.1584
95.3145
92.4882
89.6844
86.9072
84.1604
81.4475
78.7715
76.1353
73.5414
70.9918
68.4885
66.033
63.6268
61.271
58.9664
56.7137
54.5135
52.3661
50.2717
48.2301
46.2413
44.3049
42.4205
40.5876
38.8056
37.0735
35.3907
33.7561
32.1687
30.6275
29.1312
27.6788
26.2687
24.8999
23.5708
22.2801
21.0263
19.808
18.6236
17.4715
16.3503
15.2584
14.1941
13.1558
12.1419
11.1508
10.1808
9.23019
8.29739
7.38069
6.4784
5.58884
4.71032
3.84115
2.97962
2.12405
1.27273
0.42396
91.6122
99.8606
107.34
114.086
120.136
125.525
130.285
134.452
138.056
141.13
143.703
145.806
147.466
148.712
149.569
150.063
150.219
150.06
149.609
148.888
147.917
146.717
145.307
143.704
141.925
139.988
137.908
135.699
133.376
130.952
128.439
125.85
123.194
120.484
117.728
114.936
112.116
109.276
106.425
103.568
100.713
97.8647
95.0293
92.2115
89.4161
86.6471
83.9086
81.2038
78.5358
75.9075
73.3213
70.7794
68.2836
65.8355
63.4364
61.0876
58.7899
56.544
54.3504
52.2095
50.1213
48.0858
46.1029
44.1723
42.2936
40.4662
38.6894
36.9626
35.2848
33.6551
32.0725
30.5359
29.0441
27.5959
26.1901
24.8254
23.5003
22.2134
20.9634
19.7487
18.5678
17.4192
16.3014
15.2127
14.1516
13.1164
12.1056
11.1174
10.1503
9.20258
8.27257
7.35861
6.45902
5.57212
4.69623
3.82966
2.97071
2.1177
1.26892
0.422691
91.3147
99.5363
106.991
113.716
119.746
125.117
129.862
134.015
137.608
140.672
143.237
145.333
146.987
148.229
149.083
149.575
149.731
149.573
149.123
148.404
147.437
146.241
144.835
143.237
141.464
139.534
137.46
135.259
132.943
130.527
128.022
125.441
122.794
120.092
117.345
114.562
111.752
108.921
106.079
103.232
100.386
97.5469
94.7206
91.912
89.1257
86.3657
83.636
80.94
78.2808
75.661
73.0832
70.5495
68.0618
65.6216
63.2304
60.8892
58.599
56.3604
54.1739
52.0399
49.9585
47.9296
45.9532
44.0289
42.1562
40.3348
38.5638
36.8425
35.1702
33.5458
31.9683
30.4367
28.9498
27.5063
26.1051
24.7448
23.424
22.1413
20.8953
19.6846
18.5075
17.3627
16.2485
15.1633
14.1056
13.0738
12.0663
11.0813
10.1173
9.17269
8.2457
7.33471
6.43804
5.55402
4.68098
3.81722
2.96106
2.11082
1.2648
0.421318
90.9946
99.1874
106.616
113.317
119.327
124.679
129.407
133.546
137.126
140.179
142.735
144.823
146.472
147.709
148.56
149.051
149.206
149.048
148.601
147.884
146.92
145.728
144.327
142.735
140.969
139.045
136.978
134.785
132.477
130.069
127.573
125.001
122.364
119.671
116.934
114.161
111.36
108.54
105.707
102.87
100.034
97.205
94.3886
91.5899
88.8133
86.063
83.3429
80.6563
78.0064
75.3958
72.827
70.3022
67.8232
65.3916
63.0088
60.6758
58.3936
56.1628
53.984
51.8575
49.7834
47.7616
45.7921
43.8745
42.0085
40.1934
38.4286
36.7134
35.0469
33.4282
31.8563
30.33
28.8483
27.4099
26.0136
24.658
23.3419
22.0637
20.8221
19.6156
18.4427
17.3018
16.1915
15.1102
14.0562
13.028
12.024
11.0425
10.0819
9.14054
8.2168
7.309
6.41548
5.53456
4.66457
3.80384
2.95068
2.10342
1.26037
0.419841
90.6521
98.8141
106.215
112.891
118.877
124.209
128.92
133.043
136.609
139.651
142.197
144.278
145.921
147.153
148.001
148.49
148.644
148.487
148.041
147.328
146.367
145.18
143.784
142.198
140.438
138.521
136.463
134.277
131.979
129.58
127.093
124.531
121.903
119.221
116.494
113.731
110.941
108.131
105.31
102.483
99.6574
96.8391
94.0333
91.2451
88.479
85.7391
83.0292
80.3527
77.7127
75.112
72.5529
70.0376
67.5679
65.1455
62.7716
60.4474
58.1738
55.9514
53.7808
51.6623
49.596
47.5818
45.6197
43.7094
41.8504
40.0421
38.284
36.5752
34.915
33.3024
31.7363
30.2158
28.7397
27.3067
25.9157
24.5652
23.254
21.9806
20.7437
19.5417
18.3732
17.2367
16.1306
15.0533
14.0033
12.979
11.9787
11.0009
10.0439
9.10613
8.18587
7.28149
6.39133
5.51372
4.64701
3.78952
2.93958
2.0955
1.25562
0.418261
90.2872
98.4164
105.787
112.436
118.399
123.709
128.401
132.507
136.06
139.089
141.625
143.697
145.333
146.561
147.405
147.892
148.046
147.89
147.445
146.735
145.778
144.595
143.205
141.625
139.873
137.964
135.914
133.737
131.447
129.058
126.582
124.029
121.413
118.741
116.025
113.273
110.494
107.696
104.886
102.07
99.2563
96.4493
93.6548
90.8778
88.1228
85.3939
82.695
80.0293
77.3999
74.8097
72.2609
69.7557
67.296
64.8833
62.5189
60.2041
57.9396
55.7262
53.5644
51.4543
49.3963
47.3903
45.4361
43.5335
41.6819
39.8809
38.1299
36.428
34.7744
33.1683
31.6086
30.0942
28.624
27.1968
25.8113
24.4663
23.1604
21.8922
20.6602
19.4631
18.2993
17.1673
16.0656
14.9927
13.9469
12.9267
11.9305
10.9566
10.0035
9.06948
8.15292
7.25218
6.3656
5.49153
4.62831
3.77427
2.92774
2.08707
1.25057
0.416578
89.9001
97.9944
105.334
111.954
117.891
123.179
127.85
131.939
135.476
138.492
141.018
143.081
144.71
145.932
146.773
147.258
147.411
147.256
146.813
146.106
145.153
143.975
142.591
141.018
139.273
137.372
135.331
133.163
130.884
128.505
126.039
123.498
120.892
118.232
115.527
112.787
110.02
107.234
104.436
101.633
98.8306
96.0357
93.2532
90.4881
87.7449
85.0278
82.3404
79.6861
77.068
74.4889
71.951
69.4566
67.0074
64.605
62.2508
59.9459
57.6912
55.4873
53.3347
51.2337
49.1845
47.1871
45.2413
43.3468
41.5032
39.7099
37.9664
36.2718
34.6253
33.0261
31.4731
29.9652
28.5013
27.0802
25.7007
24.3614
23.0611
21.7983
20.5716
19.3796
18.2208
17.0937
15.9967
14.9284
13.8871
12.8713
11.8793
10.9096
9.96061
9.03059
8.11796
7.22108
6.33831
5.46798
4.60846
3.75808
2.91519
2.07812
1.24521
0.414791
89.4907
97.5481
104.854
111.445
117.354
122.618
127.268
131.338
134.859
137.862
140.376
142.43
144.051
145.268
146.105
146.588
146.74
146.585
146.145
145.44
144.492
143.32
141.942
140.376
138.639
136.747
134.715
132.557
130.288
127.92
125.465
122.935
120.341
117.694
115.001
112.274
109.519
106.746
103.96
101.17
98.3806
95.5984
92.8286
90.0761
87.3454
84.6406
81.9654
79.3233
76.7171
74.1497
71.6234
69.1403
66.7023
64.3109
61.9674
59.673
57.4285
55.2346
53.0918
51.0004
48.9606
46.9722
45.0353
43.1494
41.3142
39.5291
37.7935
36.1066
34.4677
32.8757
31.3297
29.8287
28.3715
26.9569
25.5836
24.2505
22.9561
21.699
20.4779
19.2914
18.1378
17.0159
15.9239
14.8604
13.8239
12.8127
11.8252
10.86
9.91525
8.98947
8.081
7.1882
6.30945
5.44309
4.58748
3.74097
2.90192
2.06866
1.23954
0.412903
89.0593
97.0779
104.349
110.907
116.789
122.027
126.655
130.705
134.209
137.197
139.699
141.743
143.357
144.568
145.401
145.881
146.033
145.878
145.44
144.739
143.796
142.629
141.258
139.699
137.97
136.087
134.065
131.918
129.66
127.303
124.86
122.343
119.761
117.126
114.447
111.733
108.991
106.231
103.459
100.682
97.9064
95.1376
92.3811
89.6419
86.9243
84.2326
81.5703
78.9409
76.3473
73.7922
71.2781
68.807
66.3807
64.0008
61.6687
59.3853
57.1516
54.9683
52.8359
50.7545
48.7245
46.7458
44.8182
42.9414
41.115
39.3385
37.6113
35.9326
34.3015
32.7172
31.1787
29.6849
28.2347
26.8269
25.4603
24.1336
22.8454
21.5944
20.3792
19.1984
18.0504
16.9338
15.8471
14.7888
13.7572
12.7509
11.7682
10.8076
9.86745
8.94613
8.04204
7.15355
6.27903
5.41685
4.56536
3.72294
2.88793
2.05868
1.23356
0.410912
88.6059
96.5836
103.817
110.343
116.194
121.406
126.01
130.04
133.526
136.499
138.988
141.021
142.627
143.832
144.66
145.138
145.289
145.136
144.7
144.002
143.064
141.903
140.538
138.988
137.268
135.395
133.383
131.246
129
126.655
124.224
121.72
119.152
116.53
113.864
111.164
108.437
105.69
102.932
100.17
97.4079
94.6532
91.9108
89.1855
86.4818
83.8037
81.155
78.539
75.9586
73.4166
70.9152
68.4567
66.0428
63.675
61.3547
59.083
56.8607
54.6885
52.5669
50.4962
48.4765
46.5078
44.59
42.7228
40.9057
39.1383
37.4198
35.7496
34.1269
32.5507
31.02
29.5338
28.091
26.6904
25.3307
24.0107
22.7291
21.4845
20.2755
19.1006
17.9585
16.8476
15.7665
14.7135
13.6872
12.686
11.7083
10.7526
9.81722
8.90059
8.0011
7.11713
6.24706
5.38927
4.54212
3.70398
2.87322
2.0482
1.22728
0.40882
88.1306
96.0656
103.261
109.751
115.571
120.754
125.334
129.342
132.81
135.767
138.242
140.265
141.862
143.06
143.885
144.36
144.51
144.357
143.924
143.23
142.296
141.142
139.785
138.242
136.532
134.668
132.667
130.542
128.308
125.976
123.558
121.067
118.512
115.905
113.254
110.568
107.855
105.123
102.38
99.6323
96.8854
94.1455
91.4178
88.7071
86.0179
83.3542
80.7197
78.1177
75.5512
73.0228
70.5348
68.0895
65.6885
63.3335
61.0256
58.7661
56.5557
54.3951
52.2849
50.2253
48.2165
46.2583
44.3508
42.4936
40.6863
38.9283
37.2191
35.5579
33.9438
32.3761
30.8536
29.3754
27.9403
26.5472
25.1948
23.8819
22.6072
21.3692
20.1667
18.9982
17.8622
16.7573
15.6819
14.6346
13.6138
12.618
11.6455
10.6949
9.76456
8.85285
7.95818
7.07896
6.21355
5.36036
4.51776
3.68412
2.85781
2.03722
1.2207
0.406627
87.6336
95.5238
102.678
109.132
114.919
120.073
124.627
128.613
132.061
135.001
137.463
139.474
141.062
142.253
143.073
143.546
143.695
143.543
143.112
142.422
141.494
140.346
138.996
137.463
135.762
133.909
131.919
129.806
127.584
125.265
122.861
120.384
117.844
115.251
112.615
109.944
107.247
104.531
101.803
99.0704
96.3391
93.6146
90.9022
88.2069
85.5328
82.8842
80.2645
77.6772
75.1251
72.611
70.1371
67.7055
65.3181
62.9763
60.6815
58.4347
56.2367
54.0884
51.9901
49.9421
47.9445
45.9975
44.1007
42.254
40.4568
38.7088
37.0092
35.3574
33.7524
32.1935
30.6796
29.2097
27.7827
26.3975
25.0527
23.7472
22.4797
21.2487
20.053
18.891
17.7615
16.6628
15.5935
14.5521
13.537
12.5468
11.5799
10.6346
9.70949
8.80292
7.9133
7.03903
6.17851
5.33013
4.49228
3.66334
2.8417
2.02573
1.21381
0.404334
87.115
94.9585
102.071
108.486
114.239
119.363
123.89
127.852
131.279
134.202
136.649
138.649
140.227
141.411
142.226
142.696
142.845
142.694
142.265
141.579
140.656
139.515
138.174
136.649
134.958
133.116
131.138
129.038
126.829
124.524
122.134
119.672
117.147
114.569
111.948
109.293
106.612
103.912
101.201
98.4841
95.7689
93.0606
90.3643
87.6848
85.0266
82.3936
79.7895
77.2175
74.6805
72.1812
69.722
67.3048
64.9315
62.6036
60.3223
58.0888
55.9039
53.7683
51.6824
49.6465
47.6608
45.7253
43.8397
42.0039
40.2174
38.4797
36.7902
35.1481
33.5527
32.003
30.498
29.0369
27.6183
26.2413
24.9045
23.6067
22.3467
21.123
19.9343
18.7792
17.6563
16.5641
15.5012
14.4659
13.4569
12.4725
11.5113
10.5717
9.65203
8.75083
7.86647
6.99738
6.14195
5.29859
4.4657
3.64166
2.82488
2.01374
1.20663
0.401941
86.5749
94.3698
101.438
107.813
113.531
118.623
123.122
127.059
130.465
133.37
135.802
137.789
139.358
140.535
141.345
141.812
141.959
141.809
141.383
140.701
139.784
138.65
137.317
135.802
134.122
132.291
130.325
128.238
126.043
123.752
121.377
118.93
116.42
113.859
111.254
108.616
105.951
103.268
100.573
97.8735
95.1751
92.4836
89.804
87.1412
84.4994
81.8828
79.2948
76.7387
74.2175
71.7337
69.2897
66.8875
64.5289
62.2154
59.9483
57.7287
55.5573
53.4349
51.3619
49.3387
47.3653
45.4418
43.5679
41.7435
39.9681
38.2411
36.5621
34.9302
33.3446
31.8045
30.3089
28.8568
27.4471
26.0786
24.7501
23.4603
22.2081
20.992
19.8107
18.6628
17.5469
16.4614
15.4051
14.3762
13.3735
12.3952
11.4399
10.5061
9.59219
8.69657
7.8177
6.95399
6.10387
5.26574
4.43801
3.61908
2.80736
2.00125
1.19915
0.399449
86.0134
93.7577
100.78
107.114
112.794
117.853
122.323
126.235
129.619
132.505
134.921
136.895
138.454
139.623
140.428
140.892
141.038
140.889
140.466
139.789
138.878
137.751
136.426
134.921
133.252
131.433
129.48
127.406
125.225
122.949
120.59
118.158
115.665
113.12
110.533
107.911
105.264
102.598
99.9208
97.2387
94.5579
91.8838
89.2216
86.576
83.9514
81.3517
78.7805
76.241
73.7361
71.2685
68.8403
66.4537
64.1104
61.8119
59.5595
57.3543
55.197
53.0884
51.0288
49.0187
47.0581
45.147
43.2854
41.4728
39.7089
37.9931
36.325
34.7036
33.1284
31.5983
30.1124
28.6697
27.2691
25.9094
24.5896
23.3082
22.0641
20.8559
19.6822
18.5418
17.4331
16.3547
15.3052
14.283
13.2867
12.3148
11.3658
10.438
9.52998
8.64017
7.767
6.90889
6.06428
5.23159
4.40923
3.59561
2.78916
1.98828
1.19137
0.396859
85.4307
93.1226
100.097
106.389
112.03
117.055
121.494
125.38
128.741
131.607
134.007
135.968
137.516
138.677
139.477
139.937
140.083
139.935
139.514
138.842
137.937
136.818
135.502
134.007
132.349
130.543
128.603
126.543
124.377
122.116
119.773
117.358
114.882
112.354
109.784
107.18
104.551
101.903
99.2439
96.58
93.9173
91.2613
88.6171
85.9895
83.3827
80.8006
78.2468
75.7245
73.2366
70.7856
68.374
66.0035
63.6761
61.3932
59.156
56.9657
54.8231
52.7287
50.6831
48.6866
46.7393
44.8412
42.9921
41.1918
39.4398
37.7357
36.0789
34.4685
32.9039
31.3842
29.9084
28.4755
27.0843
25.7339
24.423
23.1503
21.9146
20.7146
19.5489
18.4162
17.315
16.2439
15.2015
14.1862
13.1967
12.2314
11.2888
10.3673
9.46542
8.58164
7.71438
6.86209
6.0232
5.19615
4.37936
3.57125
2.77026
1.97481
1.1833
0.39417
84.8269
92.4644
99.3897
105.637
111.238
116.228
120.636
124.494
127.831
130.677
133.06
135.007
136.544
137.697
138.491
138.948
139.093
138.946
138.528
137.861
136.962
135.851
134.545
133.06
131.414
129.62
127.694
125.649
123.498
121.253
118.926
116.528
114.07
111.56
109.008
106.423
103.812
101.183
98.5425
95.8974
93.2535
90.6163
87.9908
85.3818
82.7934
80.2295
77.6938
75.1893
72.719
70.2854
67.8907
65.537
63.2261
60.9593
58.738
56.5631
54.4356
52.356
50.3249
48.3425
46.409
44.5243
42.6883
40.9007
39.1611
37.469
35.8239
34.2249
32.6714
31.1624
29.697
28.2742
26.8929
25.552
24.2504
22.9867
21.7597
20.5682
19.4107
18.286
17.1926
16.1291
15.094
14.086
13.1035
12.145
11.209
10.294
9.39852
8.52099
7.65986
6.81359
5.98063
5.15942
4.3484
3.54601
2.75068
1.96085
1.17494
0.391385
84.2022
91.7835
98.6577
104.859
110.419
115.372
119.747
123.577
126.89
129.715
132.08
134.013
135.539
136.683
137.471
137.925
138.068
137.923
137.508
136.845
135.953
134.85
133.554
132.08
130.446
128.665
126.753
124.723
122.588
120.36
118.051
115.67
113.23
110.738
108.205
105.639
103.047
100.438
97.8167
95.1911
92.5667
89.9489
87.3428
84.753
82.1836
79.6387
77.1216
74.6356
72.1834
69.7677
67.3907
65.0544
62.7604
60.5103
58.3054
56.1465
54.0347
51.9705
49.9543
47.9865
46.0672
44.1964
42.3739
40.5995
38.8727
37.1931
35.5601
33.9729
32.4308
30.9329
29.4783
28.066
26.6949
25.3639
24.0718
22.8174
21.5995
20.4167
19.2678
18.1513
17.066
16.0103
14.9829
13.9822
13.007
12.0555
11.1264
10.2182
9.32931
8.45824
7.60345
6.76341
5.93659
5.12143
4.31638
3.5199
2.73043
1.94641
1.16629
0.388502
83.5567
91.0799
97.9014
104.055
109.573
114.487
118.829
122.63
125.917
128.72
131.068
132.985
134.5
135.635
136.417
136.868
137.01
136.865
136.454
135.796
134.911
133.817
132.53
131.068
129.446
127.679
125.782
123.767
121.649
119.437
117.146
114.784
112.362
109.889
107.376
104.829
102.257
99.6676
97.0669
94.4614
91.8571
89.2594
86.6732
84.1032
81.5536
79.0282
76.5304
74.0634
71.6301
69.2329
66.8741
64.5557
62.2793
60.0465
57.8584
55.7161
53.6205
51.5721
49.5714
47.6186
45.714
43.8576
42.049
40.2882
38.5747
36.908
35.2875
33.7124
32.1822
30.6958
29.2523
27.8508
26.4902
25.1694
23.8872
22.6425
21.4339
20.2602
19.1201
18.0122
16.9352
15.8876
14.868
13.8751
12.9072
11.9631
11.0411
10.1399
9.25779
8.3934
7.54516
6.71157
5.89108
5.08217
4.28329
3.49292
2.7095
1.93149
1.15735
0.385524
82.8906
90.3538
97.121
103.225
108.699
113.575
117.882
121.652
124.913
127.694
130.023
131.925
133.427
134.554
135.33
135.777
135.918
135.774
135.366
134.714
133.836
132.75
131.473
130.023
128.414
126.661
124.779
122.781
120.679
118.485
116.212
113.869
111.466
109.013
106.52
103.993
101.442
98.8731
96.2931
93.7084
91.1248
88.5478
85.9823
83.4328
80.9035
78.3982
75.9203
73.473
71.0591
68.681
66.341
64.041
61.7828
59.5678
57.3972
55.272
53.193
51.1609
49.1762
47.239
45.3496
43.5079
41.7138
39.9671
38.2672
36.6138
35.0062
33.4437
31.9256
30.4511
29.0191
27.6288
26.279
24.9688
23.6968
22.462
21.263
20.0987
18.9677
17.8686
16.8002
15.7609
14.7495
13.7645
12.8044
11.8677
10.9531
10.059
9.18399
8.32649
7.48501
6.65806
5.84412
5.04165
4.24915
3.46507
2.6879
1.91609
1.14812
0.382451
82.2041
89.6054
96.3165
102.37
107.799
112.634
116.906
120.644
123.879
126.637
128.946
130.833
132.322
133.44
134.209
134.652
134.792
134.65
134.245
133.598
132.727
131.65
130.384
128.946
127.35
125.612
123.746
121.764
119.679
117.504
115.249
112.925
110.543
108.111
105.638
103.132
100.602
98.0541
95.4955
92.9322
90.3701
87.8144
85.2701
82.7417
80.2334
77.7488
75.2915
72.8644
70.4705
68.1121
65.7915
63.5106
61.2711
59.0744
56.9218
54.8142
52.7524
50.7372
48.7689
46.8478
44.974
43.1476
41.3683
39.636
37.9502
36.3105
34.7162
33.1667
31.6612
30.1989
28.7788
27.4
26.0614
24.762
23.5005
22.2759
21.0869
19.9322
18.8106
17.7206
16.661
15.6304
14.6273
13.6504
12.6983
11.7694
10.8624
9.97572
9.10792
8.25752
7.42302
6.60292
5.79571
4.9999
4.21395
3.43637
2.66563
1.90022
1.13861
0.379283
81.4972
88.8349
95.4884
101.49
106.872
111.665
115.9
119.607
122.813
125.548
127.837
129.708
131.184
132.292
133.055
133.494
133.633
133.492
133.091
132.449
131.586
130.518
129.263
127.837
126.255
124.532
122.682
120.717
118.65
116.494
114.258
111.954
109.592
107.181
104.729
102.245
99.7369
97.211
94.6744
92.1331
89.593
87.0593
84.5369
82.0303
79.5435
77.0803
74.6441
72.2379
69.8645
67.5264
65.2258
62.9645
60.7443
58.5664
56.4323
54.3428
52.2988
50.3009
48.3495
46.4449
44.5873
42.7766
41.0126
39.2952
37.6239
35.9983
34.4177
32.8815
31.3889
29.9392
28.5313
27.1644
25.8373
24.549
23.2985
22.0844
20.9056
19.7608
18.6488
17.5682
16.5177
15.496
14.5016
13.5331
12.5891
11.6682
10.769
9.88994
9.02961
8.18652
7.35919
6.54614
5.74588
4.9569
4.17772
3.40682
2.64271
1.88388
1.12882
0.376022
80.7703
88.0425
94.6366
100.585
105.919
110.669
114.867
118.54
121.718
124.428
126.697
128.551
130.014
131.112
131.868
132.304
132.441
132.301
131.904
131.268
130.412
129.354
128.11
126.697
125.129
123.421
121.587
119.64
117.592
115.454
113.239
110.956
108.615
106.225
103.795
101.333
98.8472
96.3439
93.8299
91.3113
88.7939
86.2828
83.7828
81.2986
78.8339
76.3927
73.9782
71.5935
69.2414
66.9241
64.644
62.4029
60.2024
58.044
55.9289
53.8581
51.8323
49.8522
47.9182
46.0306
44.1896
42.395
40.6468
38.9447
37.2883
35.6772
34.1107
32.5882
31.109
29.6721
28.2768
26.9221
25.6068
24.3301
23.0906
21.8874
20.7191
19.5846
18.4825
17.4115
16.3704
15.3578
14.3722
13.4124
12.4768
11.5642
10.6729
9.80173
8.94907
8.1135
7.29355
6.48775
5.69463
4.91269
4.14046
3.37644
2.61914
1.86708
1.11875
0.372668
80.0234
87.2284
93.7615
99.6547
104.939
109.646
113.805
117.444
120.592
123.277
125.525
127.362
128.812
129.9
130.648
131.08
131.216
131.078
130.684
130.054
129.206
128.158
126.926
125.525
123.972
122.28
120.463
118.534
116.504
114.387
112.192
109.93
107.61
105.243
102.835
100.396
97.9332
95.453
92.9622
90.467
87.9728
85.4849
83.0081
80.5468
78.105
75.6863
73.2942
70.9315
68.6011
66.3053
64.0462
61.8258
59.6457
57.5073
55.4118
53.3601
51.353
49.3913
47.4752
45.605
43.781
42.003
40.2709
38.5846
36.9435
35.3473
33.7953
32.2869
30.8213
29.3978
28.0153
26.6731
25.37
24.1051
22.8771
21.685
20.5275
19.4035
18.3116
17.2505
16.219
15.2157
14.2393
13.2883
12.3614
11.4572
10.5742
9.71109
8.86632
8.03847
7.22611
6.42776
5.64197
4.86726
4.10217
3.34521
2.59492
1.84981
1.10841
0.369222
79.2568
86.3928
92.8633
98.7
103.934
108.596
112.714
116.319
119.437
122.096
124.323
126.142
127.578
128.655
129.397
129.824
129.959
129.822
129.432
128.808
127.968
126.93
125.71
124.323
122.784
121.109
119.309
117.398
115.388
113.291
111.117
108.877
106.579
104.234
101.85
99.4345
96.995
94.5386
92.0717
89.6003
87.13
84.666
82.2129
79.7752
77.3567
74.9613
72.592
70.252
67.9439
65.6701
63.4327
61.2335
59.0743
56.9564
54.8809
52.8489
50.8611
48.9181
47.0203
45.1681
43.3615
41.6006
39.8851
38.2149
36.5896
35.0086
33.4715
31.9776
30.526
29.1161
27.747
26.4176
25.127
23.8742
22.658
21.4773
20.3309
19.2176
18.1362
17.0853
16.0637
15.07
14.1029
13.161
12.243
11.3475
10.4729
9.61806
8.78138
7.96147
7.15688
6.36618
5.58792
4.82063
4.06287
3.31317
2.57006
1.83209
1.09779
0.365685
78.4706
85.5358
91.9421
97.721
102.903
107.518
111.596
115.165
118.252
120.885
123.089
124.891
126.313
127.379
128.113
128.537
128.67
128.534
128.148
127.53
126.699
125.671
124.463
123.09
121.566
119.907
118.125
116.234
114.244
112.167
110.015
107.797
105.522
103.2
100.84
98.4482
96.0329
93.6008
91.1584
88.7115
86.2657
83.8261
81.3974
78.9838
76.5894
74.2177
71.8719
69.5551
67.2699
65.0187
62.8035
60.6261
58.4883
56.3914
54.3365
52.3247
50.3566
48.4329
46.5539
44.7201
42.9314
41.1879
39.4895
37.8359
36.2266
34.6614
33.1395
31.6604
30.2232
28.8273
27.4717
26.1555
24.8778
23.6374
22.4332
21.2642
20.1292
19.027
17.9563
16.9158
15.9043
14.9205
13.963
13.0305
12.1216
11.2349
10.3691
9.52266