/*--------------------------------*- C++ -*----------------------------------*\
| =========                 |                                                 |
| \\      /  F ield         | OpenFOAM: The Open Source CFD Toolbox           |
|  \\    /   O peration     | Version:  2406                                  |
|   \\  /    A nd           | Website:  www.openfoam.com                      |
|    \\/     M anipulation  |                                                 |
\*---------------------------------------------------------------------------*/
FoamFile
{
    version     2.0;
    format      ascii;
    arch        "LSB;label=32;scalar=64";
    class       volScalarField;
    location    "25";
    object      T;
}
// * * * * * * * * * * * * * * * * * * * * * * * * * * * * * * * * * * * * * //

dimensions      [0 0 0 1 0 0 0];

internalField   nonuniform List<scalar> 
20000
(
300.369
300.343
300.318
300.295
300.274
300.253
300.235
300.217
300.2
300.185
300.17
300.157
300.145
300.133
300.122
300.112
300.103
300.094
300.086
300.079
300.072
300.066
300.06
300.055
300.05
300.046
300.041
300.038
300.034
300.031
300.028
300.026
300.023
300.021
300.019
300.017
300.015
300.014
300.012
300.011
300.01
300.009
300.008
300.007
300.007
300.006
300.005
300.005
300.004
300.004
300.003
300.003
300.003
300.002
300.002
300.002
300.002
300.001
300.001
300.001
300.001
300.001
300.001
300.001
300.001
300.001
300
300
300
300
300
300
300
300
300
300
300
300
300
300
300
300
300
300
300
300
300
300
300
300
300
300
300
300
300
300
300
300
300
300
301.107
301.028
300.955
300.886
300.821
300.76
300.704
300.65
300.601
300.555
300.511
300.471
300.434
300.399
300.367
300.337
300.309
300.283
300.259
300.237
300.217
300.198
300.181
300.165
300.15
300.137
300.124
300.113
300.103
300.093
300.084
300.077
300.069
300.063
300.057
300.051
300.046
300.042
300.037
300.034
300.03
300.027
300.024
300.022
300.02
300.018
300.016
300.014
300.013
300.011
300.01
300.009
300.008
300.007
300.006
300.006
300.005
300.004
300.004
300.003
300.003
300.003
300.002
300.002
300.002
300.002
300.001
300.001
300.001
300.001
300.001
300.001
300.001
300.001
300.001
300
300
300
300
300
300
300
300
300
300
300
300
300
300
300
300
300
300
300
300
300
300
300
300
300
301.844
301.714
301.591
301.476
301.368
301.267
301.172
301.084
301.001
300.924
300.852
300.785
300.723
300.665
300.611
300.561
300.515
300.472
300.432
300.395
300.362
300.33
300.301
300.275
300.25
300.228
300.207
300.189
300.171
300.155
300.141
300.128
300.115
300.104
300.094
300.085
300.077
300.069
300.062
300.056
300.05
300.045
300.041
300.036
300.033
300.029
300.026
300.023
300.021
300.019
300.017
300.015
300.013
300.012
300.01
300.009
300.008
300.007
300.006
300.006
300.005
300.004
300.004
300.003
300.003
300.003
300.002
300.002
300.002
300.002
300.001
300.001
300.001
300.001
300.001
300.001
300.001
300.001
300
300
300
300
300
300
300
300
300
300
300
300
300
300
300
300
300
300
300
300
300
300
302.581
302.399
302.227
302.066
301.915
301.773
301.641
301.517
301.401
301.293
301.193
301.099
301.012
300.931
300.855
300.785
300.72
300.66
300.605
300.553
300.506
300.462
300.422
300.385
300.351
300.319
300.29
300.264
300.24
300.217
300.197
300.178
300.162
300.146
300.132
300.119
300.107
300.097
300.087
300.078
300.071
300.063
300.057
300.051
300.046
300.041
300.037
300.033
300.029
300.026
300.023
300.021
300.018
300.016
300.015
300.013
300.011
300.01
300.009
300.008
300.007
300.006
300.006
300.005
300.004
300.004
300.003
300.003
300.003
300.002
300.002
300.002
300.002
300.001
300.001
300.001
300.001
300.001
300.001
300.001
300.001
300
300
300
300
300
300
300
300
300
300
300
300
300
300
300
300
300
300
300
303.318
303.083
302.862
302.655
302.461
302.279
302.109
301.95
301.801
301.662
301.533
301.412
301.3
301.196
301.099
301.009
300.926
300.849
300.777
300.711
300.65
300.594
300.542
300.495
300.451
300.41
300.373
300.339
300.308
300.279
300.253
300.229
300.208
300.188
300.17
300.153
300.138
300.124
300.112
300.101
300.091
300.081
300.073
300.065
300.059
300.053
300.047
300.042
300.038
300.033
300.03
300.027
300.024
300.021
300.019
300.017
300.015
300.013
300.012
300.01
300.009
300.008
300.007
300.006
300.006
300.005
300.004
300.004
300.003
300.003
300.003
300.002
300.002
300.002
300.002
300.001
300.001
300.001
300.001
300.001
300.001
300.001
300.001
300
300
300
300
300
300
300
300
300
300
300
300
300
300
300
300
300
304.053
303.767
303.497
303.244
303.007
302.785
302.577
302.382
302.201
302.031
301.873
301.726
301.589
301.461
301.343
301.233
301.131
301.037
300.95
300.869
300.795
300.726
300.663
300.604
300.551
300.501
300.456
300.414
300.376
300.341
300.309
300.28
300.254
300.229
300.207
300.187
300.169
300.152
300.137
300.123
300.111
300.099
300.089
300.08
300.072
300.064
300.057
300.051
300.046
300.041
300.036
300.032
300.029
300.026
300.023
300.02
300.018
300.016
300.014
300.013
300.011
300.01
300.009
300.008
300.007
300.006
300.005
300.005
300.004
300.004
300.003
300.003
300.002
300.002
300.002
300.002
300.001
300.001
300.001
300.001
300.001
300.001
300.001
300.001
300
300
300
300
300
300
300
300
300
300
300
300
300
300
300
300
304.788
304.449
304.131
303.832
303.552
303.289
303.044
302.814
302.599
302.399
302.212
302.038
301.877
301.726
301.586
301.457
301.336
301.225
301.122
301.027
300.939
300.857
300.783
300.714
300.65
300.592
300.539
300.489
300.444
300.403
300.366
300.331
300.3
300.271
300.245
300.221
300.199
300.18
300.162
300.145
300.131
300.117
300.105
300.095
300.085
300.076
300.068
300.061
300.054
300.048
300.043
300.038
300.034
300.03
300.027
300.024
300.021
300.019
300.017
300.015
300.013
300.012
300.01
300.009
300.008
300.007
300.006
300.005
300.005
300.004
300.004
300.003
300.003
300.002
300.002
300.002
300.002
300.001
300.001
300.001
300.001
300.001
300.001
300.001
300.001
300
300
300
300
300
300
300
300
300
300
300
300
300
300
300
305.522
305.131
304.764
304.419
304.096
303.793
303.51
303.245
302.998
302.767
302.551
302.351
302.164
301.99
301.829
301.68
301.541
301.413
301.294
301.184
301.082
300.989
300.903
300.823
300.75
300.683
300.621
300.564
300.513
300.465
300.422
300.382
300.346
300.312
300.282
300.255
300.23
300.207
300.186
300.168
300.151
300.135
300.122
300.109
300.098
300.087
300.078
300.07
300.062
300.056
300.05
300.044
300.039
300.035
300.031
300.028
300.025
300.022
300.019
300.017
300.015
300.013
300.012
300.01
300.009
300.008
300.007
300.006
300.006
300.005
300.004
300.004
300.003
300.003
300.003
300.002
300.002
300.002
300.001
300.001
300.001
300.001
300.001
300.001
300.001
300.001
300
300
300
300
300
300
300
300
300
300
300
300
300
300
306.254
305.811
305.395
305.005
304.639
304.296
303.975
303.675
303.395
303.133
302.889
302.662
302.451
302.254
302.072
301.902
301.745
301.6
301.465
301.341
301.226
301.12
301.022
300.932
300.849
300.773
300.703
300.639
300.58
300.527
300.477
300.432
300.391
300.354
300.32
300.289
300.26
300.235
300.211
300.19
300.171
300.153
300.138
300.123
300.111
300.099
300.089
300.079
300.071
300.063
300.056
300.05
300.045
300.04
300.035
300.031
300.028
300.025
300.022
300.019
300.017
300.015
300.013
300.012
300.01
300.009
300.008
300.007
300.006
300.005
300.005
300.004
300.004
300.003
300.003
300.002
300.002
300.002
300.002
300.001
300.001
300.001
300.001
300.001
300.001
300.001
300.001
300
300
300
300
300
300
300
300
300
300
300
300
300
306.984
306.49
306.025
305.59
305.181
304.798
304.44
304.105
303.792
303.499
303.227
302.973
302.737
302.518
302.314
302.125
301.949
301.787
301.636
301.497
301.369
301.251
301.142
301.041
300.949
300.864
300.786
300.714
300.648
300.588
300.533
300.483
300.437
300.395
300.357
300.322
300.291
300.262
300.236
300.212
300.191
300.171
300.154
300.138
300.124
300.111
300.099
300.088
300.079
300.07
300.063
300.056
300.05
300.044
300.039
300.035
300.031
300.028
300.024
300.022
300.019
300.017
300.015
300.013
300.012
300.01
300.009
300.008
300.007
300.006
300.005
300.005
300.004
300.004
300.003
300.003
300.002
300.002
300.002
300.002
300.001
300.001
300.001
300.001
300.001
300.001
300.001
300.001
300
300
300
300
300
300
300
300
300
300
300
300
307.713
307.167
306.654
306.173
305.722
305.299
304.903
304.533
304.187
303.865
303.564
303.284
303.023
302.78
302.555
302.346
302.153
301.973
301.807
301.654
301.512
301.381
301.261
301.15
301.048
300.954
300.868
300.788
300.716
300.65
300.589
300.533
300.483
300.436
300.394
300.356
300.321
300.289
300.26
300.234
300.211
300.189
300.17
300.152
300.136
300.122
300.109
300.098
300.087
300.078
300.069
300.062
300.055
300.049
300.043
300.039
300.034
300.03
300.027
300.024
300.021
300.019
300.016
300.015
300.013
300.011
300.01
300.009
300.008
300.007
300.006
300.005
300.005
300.004
300.003
300.003
300.003
300.002
300.002
300.002
300.002
300.001
300.001
300.001
300.001
300.001
300.001
300.001
300
300
300
300
300
300
300
300
300
300
300
300
308.44
307.843
307.281
306.755
306.261
305.798
305.365
304.96
304.582
304.229
303.9
303.593
303.308
303.042
302.796
302.567
302.355
302.159
301.978
301.81
301.655
301.511
301.38
301.258
301.146
301.044
300.949
300.863
300.783
300.711
300.644
300.584
300.528
300.478
300.431
300.389
300.351
300.317
300.285
300.256
300.231
300.207
300.186
300.167
300.149
300.134
300.12
300.107
300.095
300.085
300.076
300.068
300.06
300.054
300.048
300.042
300.037
300.033
300.029
300.026
300.023
300.02
300.018
300.016
300.014
300.012
300.011
300.01
300.008
300.007
300.006
300.006
300.005
300.004
300.004
300.003
300.003
300.003
300.002
300.002
300.002
300.001
300.001
300.001
300.001
300.001
300.001
300.001
300.001
300
300
300
300
300
300
300
300
300
300
300
309.165
308.516
307.907
307.335
306.798
306.296
305.826
305.386
304.975
304.592
304.235
303.902
303.592
303.304
303.036
302.788
302.558
302.345
302.147
301.965
301.797
301.641
301.498
301.366
301.245
301.133
301.031
300.937
300.851
300.772
300.7
300.634
300.574
300.519
300.469
300.423
300.381
300.344
300.31
300.278
300.25
300.225
300.202
300.181
300.162
300.145
300.13
300.116
300.104
300.092
300.082
300.073
300.065
300.058
300.052
300.046
300.041
300.036
300.032
300.028
300.025
300.022
300.02
300.017
300.015
300.013
300.012
300.01
300.009
300.008
300.007
300.006
300.005
300.005
300.004
300.004
300.003
300.003
300.002
300.002
300.002
300.002
300.001
300.001
300.001
300.001
300.001
300.001
300.001
300
300
300
300
300
300
300
300
300
300
300
309.887
309.188
308.53
307.913
307.334
306.792
306.285
305.811
305.368
304.954
304.568
304.209
303.875
303.564
303.276
303.008
302.759
302.529
302.317
302.12
301.938
301.771
301.616
301.474
301.343
301.223
301.112
301.011
300.918
300.833
300.755
300.684
300.619
300.559
300.505
300.456
300.412
300.371
300.334
300.3
300.27
300.243
300.218
300.195
300.175
300.157
300.14
300.125
300.112
300.1
300.089
300.079
300.071
300.063
300.056
300.049
300.044
300.039
300.035
300.031
300.027
300.024
300.021
300.019
300.016
300.014
300.013
300.011
300.01
300.009
300.008
300.007
300.006
300.005
300.004
300.004
300.003
300.003
300.003
300.002
300.002
300.002
300.002
300.001
300.001
300.001
300.001
300.001
300.001
300.001
300
300
300
300
300
300
300
300
300
300
310.607
309.857
309.151
308.489
307.869
307.287
306.743
306.234
305.759
305.315
304.901
304.516
304.157
303.824
303.514
303.227
302.96
302.714
302.485
302.274
302.079
301.9
301.734
301.581
301.441
301.312
301.193
301.084
300.985
300.893
300.81
300.733
300.664
300.6
300.542
300.489
300.441
300.398
300.358
300.322
300.29
300.26
300.234
300.209
300.188
300.168
300.15
300.134
300.12
300.107
300.095
300.085
300.076
300.067
300.06
300.053
300.047
300.042
300.037
300.033
300.029
300.026
300.023
300.02
300.018
300.016
300.014
300.012
300.011
300.009
300.008
300.007
300.006
300.005
300.005
300.004
300.004
300.003
300.003
300.002
300.002
300.002
300.002
300.001
300.001
300.001
300.001
300.001
300.001
300.001
300
300
300
300
300
300
300
300
300
300
311.325
310.523
309.77
309.064
308.401
307.78
307.199
306.656
306.148
305.674
305.233
304.821
304.438
304.082
303.752
303.445
303.161
302.897
302.654
302.428
302.22
302.028
301.851
301.688
301.538
301.4
301.274
301.158
301.051
300.954
300.865
300.783
300.709
300.641
300.579
300.523
300.471
300.425
300.382
300.344
300.309
300.278
300.249
300.224
300.2
300.179
300.16
300.143
300.128
300.114
300.102
300.091
300.081
300.072
300.064
300.057
300.05
300.045
300.04
300.035
300.031
300.027
300.024
300.021
300.019
300.017
300.015
300.013
300.011
300.01
300.009
300.008
300.007
300.006
300.005
300.004
300.004
300.003
300.003
300.003
300.002
300.002
300.002
300.001
300.001
300.001
300.001
300.001
300.001
300.001
300.001
300
300
300
300
300
300
300
300
300
312.04
311.188
310.387
309.636
308.931
308.271
307.653
307.076
306.536
306.032
305.563
305.126
304.719
304.34
303.989
303.662
303.36
303.08
302.821
302.581
302.36
302.156
301.968
301.795
301.635
301.489
301.354
301.231
301.118
301.014
300.919
300.833
300.753
300.681
300.615
300.556
300.501
300.452
300.407
300.366
300.329
300.295
300.265
300.238
300.213
300.191
300.171
300.152
300.136
300.121
300.108
300.096
300.086
300.076
300.068
300.06
300.053
300.047
300.042
300.037
300.033
300.029
300.026
300.023
300.02
300.018
300.016
300.014
300.012
300.011
300.009
300.008
300.007
300.006
300.005
300.005
300.004
300.004
300.003
300.003
300.002
300.002
300.002
300.002
300.001
300.001
300.001
300.001
300.001
300.001
300.001
300
300
300
300
300
300
300
300
300
312.751
311.849
311.001
310.205
309.459
308.76
308.106
307.494
306.922
306.389
305.892
305.429
304.997
304.597
304.224
303.879
303.559
303.262
302.988
302.734
302.5
302.284
302.084
301.901
301.732
301.577
301.434
301.303
301.184
301.074
300.974
300.882
300.798
300.722
300.652
300.588
300.531
300.478
300.431
300.387
300.348
300.313
300.281
300.252
300.226
300.202
300.181
300.161
300.144
300.129
300.115
300.102
300.091
300.081
300.072
300.064
300.057
300.05
300.044
300.039
300.035
300.031
300.027
300.024
300.021
300.019
300.016
300.014
300.013
300.011
300.01
300.009
300.008
300.007
300.006
300.005
300.004
300.004
300.003
300.003
300.003
300.002
300.002
300.002
300.001
300.001
300.001
300.001
300.001
300.001
300.001
300.001
300
300
300
300
300
300
300
300
313.46
312.507
311.612
310.772
309.985
309.247
308.556
307.91
307.307
306.744
306.219
305.73
305.275
304.852
304.459
304.095
303.757
303.443
303.154
302.886
302.639
302.41
302.2
302.006
301.828
301.664
301.514
301.376
301.249
301.134
301.028
300.931
300.842
300.762
300.688
300.621
300.56
300.505
300.455
300.409
300.368
300.33
300.296
300.266
300.238
300.213
300.191
300.17
300.152
300.136
300.121
300.108
300.096
300.085
300.076
300.067
300.06
300.053
300.047
300.042
300.037
300.033
300.029
300.025
300.022
300.02
300.017
300.015
300.013
300.012
300.01
300.009
300.008
300.007
300.006
300.005
300.005
300.004
300.004
300.003
300.003
300.002
300.002
300.002
300.002
300.001
300.001
300.001
300.001
300.001
300.001
300.001
300
300
300
300
300
300
300
300
314.165
313.163
312.221
311.337
310.508
309.731
309.004
308.325
307.69
307.098
306.545
306.03
305.552
305.106
304.693
304.309
303.953
303.624
303.319
303.037
302.777
302.537
302.315
302.112
301.924
301.752
301.593
301.448
301.315
301.193
301.081
300.98
300.886
300.802
300.724
300.654
300.59
300.531
300.478
300.43
300.387
300.347
300.312
300.28
300.251
300.224
300.201
300.179
300.16
300.143
300.127
300.113
300.101
300.09
300.08
300.071
300.063
300.056
300.049
300.044
300.039
300.034
300.03
300.027
300.024
300.021
300.018
300.016
300.014
300.012
300.011
300.01
300.008
300.007
300.006
300.006
300.005
300.004
300.004
300.003
300.003
300.002
300.002
300.002
300.002
300.001
300.001
300.001
300.001
300.001
300.001
300.001
300
300
300
300
300
300
300
300
314.867
313.815
312.826
311.899
311.029
310.213
309.451
308.737
308.071
307.449
306.869
306.329
305.827
305.359
304.925
304.523
304.149
303.803
303.483
303.188
302.914
302.662
302.43
302.216
302.019
301.838
301.672
301.52
301.38
301.252
301.135
301.028
300.93
300.841
300.76
300.686
300.619
300.558
300.502
300.452
300.406
300.365
300.327
300.293
300.263
300.235
300.211
300.188
300.168
300.15
300.134
300.119
300.106
300.094
300.084
300.074
300.066
300.059
300.052
300.046
300.041
300.036
300.032
300.028
300.025
300.022
300.019
300.017
300.015
300.013
300.011
300.01
300.009
300.008
300.007
300.006
300.005
300.005
300.004
300.003
300.003
300.003
300.002
300.002
300.002
300.001
300.001
300.001
300.001
300.001
300.001
300.001
300
300
300
300
300
300
300
300
315.565
314.464
313.429
312.457
311.546
310.693
309.894
309.148
308.45
307.799
307.192
306.626
306.1
305.611
305.157
304.735
304.344
303.982
303.647
303.337
303.051
302.787
302.544
302.32
302.114
301.925
301.751
301.591
301.445
301.311
301.188
301.076
300.974
300.881
300.796
300.718
300.648
300.584
300.526
300.473
300.425
300.382
300.343
300.307
300.275
300.246
300.22
300.197
300.176
300.157
300.14
300.125
300.111
300.099
300.088
300.078
300.069
300.061
300.054
300.048
300.043
300.038
300.033
300.029
300.026
300.023
300.02
300.018
300.016
300.014
300.012
300.011
300.009
300.008
300.007
300.006
300.005
300.005
300.004
300.004
300.003
300.003
300.002
300.002
300.002
300.002
300.001
300.001
300.001
300.001
300.001
300.001
300.001
300
300
300
300
300
300
300
316.26
315.109
314.028
313.013
312.061
311.17
310.336
309.556
308.827
308.147
307.513
306.922
306.372
305.861
305.387
304.946
304.538
304.16
303.81
303.486
303.187
302.912
302.658
302.424
302.208
302.01
301.829
301.662
301.509
301.369
301.241
301.124
301.017
300.92
300.831
300.75
300.677
300.61
300.549
300.494
300.444
300.399
300.358
300.321
300.288
300.257
300.23
300.206
300.184
300.164
300.146
300.13
300.116
300.103
300.092
300.081
300.072
300.064
300.057
300.05
300.044
300.039
300.035
300.031
300.027
300.024
300.021
300.018
300.016
300.014
300.013
300.011
300.01
300.008
300.007
300.006
300.006
300.005
300.004
300.004
300.003
300.003
300.002
300.002
300.002
300.002
300.001
300.001
300.001
300.001
300.001
300.001
300.001
300
300
300
300
300
300
300
316.95
315.75
314.623
313.565
312.573
311.644
310.774
309.961
309.202
308.493
307.832
307.216
306.643
306.11
305.615
305.156
304.73
304.336
303.971
303.634
303.323
303.035
302.77
302.527
302.302
302.096
301.906
301.733
301.573
301.427
301.294
301.172
301.061
300.959
300.866
300.782
300.705
300.636
300.572
300.515
300.463
300.416
300.373
300.335
300.3
300.268
300.24
300.215
300.192
300.171
300.152
300.136
300.121
300.108
300.096
300.085
300.075
300.067
300.059
300.052
300.046
300.041
300.036
300.032
300.028
300.025
300.022
300.019
300.017
300.015
300.013
300.011
300.01
300.009
300.008
300.007
300.006
300.005
300.004
300.004
300.003
300.003
300.003
300.002
300.002
300.002
300.001
300.001
300.001
300.001
300.001
300.001
300.001
300
300
300
300
300
300
300
317.636
316.388
315.215
314.114
313.082
312.116
311.211
310.364
309.574
308.836
308.149
307.508
306.912
306.357
305.843
305.365
304.922
304.512
304.132
303.781
303.457
303.158
302.883
302.629
302.395
302.181
301.984
301.803
301.637
301.485
301.346
301.219
301.104
300.998
300.902
300.814
300.734
300.661
300.596
300.536
300.482
300.433
300.388
300.348
300.312
300.279
300.25
300.223
300.199
300.178
300.159
300.141
300.126
300.112
300.099
300.088
300.078
300.069
300.062
300.054
300.048
300.043
300.038
300.033
300.029
300.026
300.023
300.02
300.018
300.015
300.014
300.012
300.01
300.009
300.008
300.007
300.006
300.005
300.005
300.004
300.004
300.003
300.003
300.002
300.002
300.002
300.002
300.001
300.001
300.001
300.001
300.001
300.001
300
300
300
300
300
300
300
318.318
317.021
315.803
314.66
313.588
312.584
311.644
310.765
309.944
309.178
308.464
307.798
307.179
306.603
306.068
305.572
305.112
304.686
304.292
303.927
303.591
303.28
302.994
302.73
302.488
302.265
302.06
301.872
301.7
301.543
301.398
301.267
301.146
301.036
300.936
300.845
300.762
300.687
300.619
300.557
300.5
300.449
300.403
300.362
300.324
300.29
300.259
300.232
300.207
300.185
300.165
300.147
300.131
300.116
300.103
300.092
300.081
300.072
300.064
300.057
300.05
300.044
300.039
300.034
300.03
300.027
300.024
300.021
300.018
300.016
300.014
300.012
300.011
300.009
300.008
300.007
300.006
300.006
300.005
300.004
300.004
300.003
300.003
300.002
300.002
300.002
300.002
300.001
300.001
300.001
300.001
300.001
300.001
300.001
300
300
300
300
300
300
318.995
317.651
316.388
315.202
314.09
313.049
312.074
311.163
310.312
309.517
308.777
308.087
307.444
306.847
306.293
305.778
305.301
304.859
304.451
304.073
303.724
303.402
303.105
302.831
302.58
302.349
302.136
301.942
301.763
301.6
301.45
301.313
301.189
301.075
300.971
300.877
300.791
300.712
300.641
300.577
300.519
300.466
300.418
300.375
300.336
300.301
300.269
300.24
300.215
300.192
300.171
300.152
300.135
300.12
300.107
300.095
300.084
300.075
300.066
300.059
300.052
300.046
300.041
300.036
300.032
300.028
300.024
300.022
300.019
300.017
300.015
300.013
300.011
300.01
300.009
300.008
300.007
300.006
300.005
300.004
300.004
300.003
300.003
300.003
300.002
300.002
300.002
300.001
300.001
300.001
300.001
300.001
300.001
300.001
300
300
300
300
300
300
319.667
318.275
316.968
315.74
314.589
313.511
312.502
311.558
310.677
309.854
309.087
308.373
307.708
307.09
306.516
305.983
305.489
305.031
304.608
304.217
303.855
303.522
303.215
302.932
302.671
302.432
302.212
302.01
301.826
301.656
301.501
301.36
301.231
301.113
301.005
300.908
300.819
300.738
300.664
300.598
300.537
300.482
300.433
300.388
300.348
300.311
300.279
300.249
300.222
300.198
300.177
300.158
300.14
300.125
300.111
300.098
300.087
300.077
300.069
300.061
300.054
300.048
300.042
300.037
300.033
300.029
300.025
300.022
300.02
300.017
300.015
300.013
300.012
300.01
300.009
300.008
300.007
300.006
300.005
300.005
300.004
300.003
300.003
300.003
300.002
300.002
300.002
300.001
300.001
300.001
300.001
300.001
300.001
300.001
300
300
300
300
300
300
320.335
318.896
317.544
316.275
315.085
313.97
312.926
311.951
311.039
310.189
309.396
308.657
307.97
307.33
306.737
306.186
305.675
305.202
304.765
304.36
303.986
303.642
303.324
303.031
302.762
302.514
302.287
302.079
301.888
301.713
301.552
301.406
301.273
301.151
301.04
300.938
300.846
300.763
300.687
300.618
300.555
300.499
300.448
300.401
300.36
300.322
300.288
300.257
300.23
300.205
300.183
300.163
300.145
300.129
300.115
300.102
300.09
300.08
300.071
300.063
300.056
300.049
300.043
300.038
300.034
300.03
300.026
300.023
300.02
300.018
300.016
300.014
300.012
300.011
300.009
300.008
300.007
300.006
300.005
300.005
300.004
300.004
300.003
300.003
300.002
300.002
300.002
300.002
300.001
300.001
300.001
300.001
300.001
300.001
300
300
300
300
300
300
320.998
319.512
318.115
316.805
315.576
314.425
313.348
312.34
311.399
310.521
309.702
308.939
308.229
307.569
306.956
306.388
305.86
305.372
304.92
304.502
304.116
303.76
303.432
303.13
302.852
302.596
302.362
302.146
301.949
301.768
301.603
301.452
301.314
301.188
301.073
300.969
300.874
300.788
300.709
300.638
300.573
300.515
300.462
300.414
300.371
300.332
300.297
300.266
300.237
300.212
300.189
300.168
300.15
300.133
300.118
300.105
300.093
300.083
300.073
300.065
300.057
300.051
300.045
300.04
300.035
300.031
300.027
300.024
300.021
300.018
300.016
300.014
300.012
300.011
300.01
300.008
300.007
300.006
300.006
300.005
300.004
300.004
300.003
300.003
300.002
300.002
300.002
300.002
300.001
300.001
300.001
300.001
300.001
300.001
300
300
300
300
300
300
321.655
320.123
318.683
317.331
316.064
314.877
313.766
312.727
311.756
310.85
310.006
309.219
308.487
307.806
307.174
306.588
306.044
305.54
305.074
304.643
304.245
303.878
303.54
303.228
302.941
302.678
302.436
302.214
302.01
301.824
301.653
301.497
301.355
301.225
301.107
300.999
300.901
300.812
300.731
300.658
300.591
300.531
300.477
300.427
300.383
300.343
300.307
300.274
300.245
300.218
300.195
300.173
300.154
300.137
300.122
300.108
300.096
300.085
300.076
300.067
300.059
300.052
300.046
300.041
300.036
300.032
300.028
300.025
300.022
300.019
300.017
300.015
300.013
300.011
300.01
300.009
300.008
300.007
300.006
300.005
300.004
300.004
300.003
300.003
300.002
300.002
300.002
300.002
300.001
300.001
300.001
300.001
300.001
300.001
300
300
300
300
300
300
322.307
320.729
319.245
317.853
316.548
315.325
314.18
313.11
312.11
311.177
310.307
309.497
308.743
308.041
307.39
306.786
306.226
305.707
305.227
304.783
304.373
303.995
303.646
303.325
303.03
302.758
302.509
302.28
302.071
301.879
301.703
301.543
301.396
301.262
301.14
301.029
300.928
300.837
300.753
300.678
300.609
300.547
300.491
300.44
300.395
300.353
300.316
300.282
300.252
300.225
300.201
300.179
300.159
300.141
300.126
300.112
300.099
300.088
300.078
300.069
300.061
300.054
300.048
300.042
300.037
300.033
300.029
300.025
300.022
300.02
300.017
300.015
300.013
300.012
300.01
300.009
300.008
300.007
300.006
300.005
300.004
300.004
300.003
300.003
300.003
300.002
300.002
300.002
300.001
300.001
300.001
300.001
300.001
300.001
300
300
300
300
300
300
322.954
321.329
319.803
318.371
317.027
315.769
314.591
313.49
312.461
311.501
310.606
309.772
308.996
308.275
307.604
306.983
306.406
305.872
305.378
304.922
304.5
304.111
303.752
303.422
303.118
302.838
302.582
302.346
302.131
301.933
301.752
301.587
301.436
301.299
301.173
301.059
300.955
300.861
300.775
300.697
300.627
300.563
300.505
300.453
300.406
300.363
300.325
300.291
300.259
300.232
300.206
300.184
300.164
300.146
300.129
300.115
300.102
300.09
300.08
300.071
300.063
300.055
300.049
300.043
300.038
300.034
300.03
300.026
300.023
300.02
300.018
300.015
300.014
300.012
300.01
300.009
300.008
300.007
300.006
300.005
300.005
300.004
300.003
300.003
300.003
300.002
300.002
300.002
300.001
300.001
300.001
300.001
300.001
300.001
300.001
300
300
300
300
300
323.595
321.925
320.356
318.884
317.503
316.209
314.999
313.867
312.809
311.822
310.902
310.045
309.247
308.506
307.817
307.178
306.585
306.036
305.528
305.059
304.625
304.225
303.857
303.517
303.205
302.918
302.654
302.412
302.19
301.987
301.801
301.632
301.477
301.335
301.206
301.089
300.982
300.885
300.797
300.717
300.644
300.579
300.519
300.466
300.417
300.374
300.334
300.299
300.267
300.238
300.212
300.189
300.168
300.15
300.133
300.118
300.105
300.093
300.082
300.073
300.064
300.057
300.05
300.044
300.039
300.035
300.03
300.027
300.024
300.021
300.018
300.016
300.014
300.012
300.011
300.009
300.008
300.007
300.006
300.005
300.005
300.004
300.004
300.003
300.003
300.002
300.002
300.002
300.001
300.001
300.001
300.001
300.001
300.001
300.001
300
300
300
300
300
324.23
322.515
320.904
319.392
317.974
316.646
315.402
314.24
313.154
312.14
311.195
310.315
309.496
308.735
308.027
307.371
306.762
306.199
305.677
305.195
304.75
304.339
303.96
303.612
303.291
302.996
302.725
302.477
302.249
302.041
301.85
301.675
301.516
301.371
301.239
301.118
301.008
300.909
300.818
300.736
300.662
300.594
300.533
300.478
300.429
300.384
300.343
300.307
300.274
300.244
300.218
300.194
300.173
300.154
300.137
300.121
300.108
300.095
300.085
300.075
300.066
300.059
300.052
300.046
300.04
300.035
300.031
300.027
300.024
300.021
300.019
300.016
300.014
300.013
300.011
300.01
300.008
300.007
300.006
300.006
300.005
300.004
300.004
300.003
300.003
300.002
300.002
300.002
300.002
300.001
300.001
300.001
300.001
300.001
300.001
300
300
300
300
300
324.859
323.1
321.447
319.896
318.441
317.078
315.802
314.61
313.495
312.456
311.486
310.583
309.743
308.961
308.236
307.562
306.938
306.36
305.825
305.33
304.873
304.452
304.063
303.706
303.376
303.074
302.796
302.541
302.308
302.094
301.898
301.719
301.556
301.407
301.271
301.147
301.035
300.932
300.84
300.755
300.679
300.61
300.547
300.491
300.44
300.394
300.352
300.315
300.281
300.251
300.224
300.199
300.177
300.158
300.14
300.124
300.11
300.098
300.087
300.077
300.068
300.06
300.053
300.047
300.041
300.036
300.032
300.028
300.025
300.022
300.019
300.017
300.015
300.013
300.011
300.01
300.009
300.008
300.007
300.006
300.005
300.004
300.004
300.003
300.003
300.002
300.002
300.002
300.002
300.001
300.001
300.001
300.001
300.001
300.001
300
300
300
300
300
325.482
323.679
321.984
320.394
318.903
317.506
316.198
314.976
313.834
312.768
311.774
310.848
309.987
309.186
308.442
307.752
307.112
306.519
305.971
305.464
304.995
304.563
304.165
303.798
303.461
303.151
302.866
302.605
302.365
302.146
301.945
301.762
301.595
301.442
301.303
301.176
301.061
300.956
300.861
300.774
300.696
300.625
300.561
300.503
300.451
300.403
300.361
300.323
300.288
300.257
300.229
300.204
300.182
300.162
300.144
300.128
300.113
300.1
300.089
300.079
300.07
300.062
300.054
300.048
300.042
300.037
300.033
300.029
300.025
300.022
300.02
300.017
300.015
300.013
300.012
300.01
300.009
300.008
300.007
300.006
300.005
300.004
300.004
300.003
300.003
300.003
300.002
300.002
300.002
300.001
300.001
300.001
300.001
300.001
300.001
300
300
300
300
300
326.099
324.252
322.517
320.888
319.36
317.93
316.59
315.338
314.168
313.077
312.059
311.111
310.229
309.408
308.646
307.939
307.284
306.677
306.115
305.596
305.116
304.674
304.266
303.89
303.545
303.227
302.935
302.668
302.423
302.198
301.993
301.805
301.633
301.477
301.334
301.204
301.086
300.979
300.881
300.793
300.713
300.64
300.575
300.515
300.462
300.413
300.37
300.33
300.295
300.263
300.235
300.209
300.186
300.166
300.147
300.131
300.116
300.103
300.091
300.081
300.071
300.063
300.056
300.049
300.043
300.038
300.034
300.03
300.026
300.023
300.02
300.018
300.015
300.014
300.012
300.01
300.009
300.008
300.007
300.006
300.005
300.005
300.004
300.003
300.003
300.003
300.002
300.002
300.002
300.001
300.001
300.001
300.001
300.001
300.001
300
300
300
300
300
326.709
324.819
323.043
321.376
319.813
318.349
316.978
315.697
314.5
313.383
312.341
311.371
310.468
309.628
308.849
308.125
307.454
306.833
306.258
305.727
305.236
304.783
304.366
303.981
303.628
303.303
303.004
302.73
302.479
302.249
302.039
301.847
301.671
301.511
301.365
301.233
301.112
301.002
300.902
300.811
300.729
300.655
300.588
300.527
300.472
300.423
300.378
300.338
300.302
300.269
300.24
300.214
300.19
300.169
300.151
300.134
300.119
300.105
300.093
300.083
300.073
300.065
300.057
300.05
300.044
300.039
300.034
300.03
300.027
300.023
300.021