/*--------------------------------*- C++ -*----------------------------------*\
| =========                 |                                                 |
| \\      /  F ield         | OpenFOAM: The Open Source CFD Toolbox           |
|  \\    /   O peration     | Version:  2406                                  |
|   \\  /    A nd           | Website:  www.openfoam.com                      |
|    \\/     M anipulation  |                                                 |
\*---------------------------------------------------------------------------*/
FoamFile
{
    version     2.0;
    format      ascii;
    arch        "LSB;label=32;scalar=64";
    class       volVectorField;
    location    "170";
    object      flux;
}
// * * * * * * * * * * * * * * * * * * * * * * * * * * * * * * * * * * * * * //

dimensions      [0 1 -1 1 0 0 0];

internalField   nonuniform List<vector> 
20000
(
(0.00179629 -0.0704612 0)
(0.00176729 -0.0668964 0)
(0.00173564 -0.0633925 0)
(0.00170163 -0.0599542 0)
(0.00166553 -0.0565863 0)
(0.00162754 -0.0532926 0)
(0.00158787 -0.0500766 0)
(0.00154693 -0.0469414 0)
(0.00150482 -0.0438892 0)
(0.00146161 -0.0409225 0)
(0.0014176 -0.0380432 0)
(0.00137305 -0.0352524 0)
(0.00132805 -0.0325513 0)
(0.0012827 -0.0299406 0)
(0.00123715 -0.0274208 0)
(0.00119157 -0.0249923 0)
(0.0011461 -0.0226548 0)
(0.00110083 -0.0204082 0)
(0.00105586 -0.0182518 0)
(0.00101127 -0.016185 0)
(0.000967165 -0.0142069 0)
(0.000923609 -0.0123166 0)
(0.00088068 -0.0105127 0)
(0.000838445 -0.00879408 0)
(0.000796965 -0.00715916 0)
(0.000756289 -0.00560641 0)
(0.000716464 -0.00413419 0)
(0.000677527 -0.00274074 0)
(0.000639512 -0.00142425 0)
(0.000602449 -0.000182844 0)
(0.000566361 0.000985401 0)
(0.000531269 0.00208246 0)
(0.000497187 0.00311034 0)
(0.000464129 0.00407109 0)
(0.000432103 0.00496675 0)
(0.000401113 0.00579939 0)
(0.000371162 0.0065711 0)
(0.000342248 0.00728395 0)
(0.000314367 0.00794001 0)
(0.000287514 0.00854134 0)
(0.000261679 0.00908999 0)
(0.000236852 0.00958799 0)
(0.00021302 0.0100373 0)
(0.00019017 0.01044 0)
(0.000168284 0.010798 0)
(0.000147345 0.0111131 0)
(0.000127335 0.0113873 0)
(0.000108235 0.0116224 0)
(9.00227e-05 0.0118202 0)
(7.26771e-05 0.0119825 0)
(5.61759e-05 0.0121109 0)
(4.04959e-05 0.0122072 0)
(2.56137e-05 0.0122729 0)
(1.15053e-05 0.0123096 0)
(-1.85355e-06 0.0123189 0)
(-1.44874e-05 0.0123022 0)
(-2.64209e-05 0.012261 0)
(-3.76789e-05 0.0121965 0)
(-4.82861e-05 0.0121103 0)
(-5.82672e-05 0.0120034 0)
(-6.76468e-05 0.0118772 0)
(-7.64494e-05 0.0117328 0)
(-8.4699e-05 0.0115714 0)
(-9.24196e-05 0.0113941 0)
(-9.96349e-05 0.0112018 0)
(-0.000106368 0.0109955 0)
(-0.000112641 0.0107763 0)
(-0.000118478 0.010545 0)
(-0.000123899 0.0103024 0)
(-0.000128927 0.0100494 0)
(-0.000133581 0.00978677 0)
(-0.000137883 0.00951515 0)
(-0.000141853 0.00923527 0)
(-0.000145508 0.00894777 0)
(-0.000148868 0.00865327 0)
(-0.000151951 0.00835234 0)
(-0.000154774 0.0080455 0)
(-0.000157353 0.00773328 0)
(-0.000159705 0.00741613 0)
(-0.000161845 0.0070945 0)
(-0.000163788 0.00676879 0)
(-0.000165546 0.00643939 0)
(-0.000167135 0.00610665 0)
(-0.000168566 0.00577089 0)
(-0.000169851 0.00543242 0)
(-0.000171002 0.00509153 0)
(-0.000172029 0.00474846 0)
(-0.000172941 0.00440345 0)
(-0.000173748 0.00405674 0)
(-0.000174458 0.0037085 0)
(-0.00017508 0.00335894 0)
(-0.000175619 0.00300823 0)
(-0.000176083 0.00265651 0)
(-0.000176476 0.00230394 0)
(-0.000176804 0.00195065 0)
(-0.000177071 0.00159677 0)
(-0.00017728 0.00124241 0)
(-0.000177435 0.000887692 0)
(-0.000177537 0.000532716 0)
(-0.000177587 0.000177589 0)
(0.00538844 -0.0704438 0)
(0.00530142 -0.0668798 0)
(0.00520651 -0.0633768 0)
(0.00510449 -0.0599394 0)
(0.00499611 -0.0565724 0)
(0.00488221 -0.0532795 0)
(0.00476335 -0.0500642 0)
(0.00464042 -0.0469297 0)
(0.00451401 -0.0438784 0)
(0.00438444 -0.0409125 0)
(0.00425252 -0.0380338 0)
(0.00411885 -0.0352437 0)
(0.0039838 -0.0325432 0)
(0.00384775 -0.0299332 0)
(0.00371114 -0.0274141 0)
(0.00357443 -0.0249861 0)
(0.00343801 -0.0226492 0)
(0.00330221 -0.0204031 0)
(0.00316731 -0.0182473 0)
(0.00303357 -0.016181 0)
(0.00290125 -0.0142034 0)
(0.00277059 -0.0123135 0)
(0.00264182 -0.0105101 0)
(0.00251513 -0.00879191 0)
(0.0023907 -0.0071574 0)
(0.00226868 -0.00560503 0)
(0.00214921 -0.00413317 0)
(0.00203241 -0.00274006 0)
(0.00191838 -0.0014239 0)
(0.0018072 -0.000182799 0)
(0.00169894 0.000985158 0)
(0.00159367 0.00208195 0)
(0.00149144 0.00310958 0)
(0.00139227 0.00407008 0)
(0.0012962 0.00496552 0)
(0.00120324 0.00579796 0)
(0.00111339 0.00656948 0)
(0.00102666 0.00728215 0)
(0.000943024 0.00793805 0)
(0.00086247 0.00853923 0)
(0.000784972 0.00908775 0)
(0.000710498 0.00958562 0)
(0.000639008 0.0100349 0)
(0.000570462 0.0104374 0)
(0.000504809 0.0107953 0)
(0.000441999 0.0111104 0)
(0.000381975 0.0113845 0)
(0.000324678 0.0116196 0)
(0.000270046 0.0118173 0)
(0.000218013 0.0119795 0)
(0.000168514 0.0121079 0)
(0.000121478 0.0122042 0)
(7.68348e-05 0.0122699 0)
(3.45131e-05 0.0123066 0)
(-5.56023e-06 0.0123159 0)
(-4.34587e-05 0.0122992 0)
(-7.92564e-05 0.0122579 0)
(-0.000113028 0.0121935 0)
(-0.000144846 0.0121073 0)
(-0.000174787 0.0120004 0)
(-0.000202924 0.0118743 0)
(-0.000229329 0.0117299 0)
(-0.000254076 0.0115686 0)
(-0.000277236 0.0113912 0)
(-0.00029888 0.011199 0)
(-0.000319077 0.0109928 0)
(-0.000337897 0.0107737 0)
(-0.000355405 0.0105424 0)
(-0.000371667 0.0102999 0)
(-0.000386749 0.010047 0)
(-0.000400711 0.00978435 0)
(-0.000413616 0.0095128 0)
(-0.000425523 0.00923299 0)
(-0.000436488 0.00894556 0)
(-0.000446567 0.00865114 0)
(-0.000455815 0.00835027 0)
(-0.000464283 0.00804352 0)
(-0.000472021 0.00773137 0)
(-0.000479076 0.0074143 0)
(-0.000485495 0.00709275 0)
(-0.000491322 0.00676712 0)
(-0.000496598 0.0064378 0)
(-0.000501364 0.00610514 0)
(-0.000505657 0.00576947 0)
(-0.000509512 0.00543108 0)
(-0.000512964 0.00509027 0)
(-0.000516043 0.00474728 0)
(-0.00051878 0.00440237 0)
(-0.000521201 0.00405573 0)
(-0.000523332 0.00370759 0)
(-0.000525196 0.00335812 0)
(-0.000526814 0.00300749 0)
(-0.000528204 0.00265586 0)
(-0.000529384 0.00230337 0)
(-0.000530368 0.00195017 0)
(-0.000531169 0.00159638 0)
(-0.000531797 0.00124211 0)
(-0.000532261 0.000887473 0)
(-0.000532566 0.000532585 0)
(-0.000532718 0.000177545 0)
(0.00897931 -0.0704091 0)
(0.0088343 -0.0668469 0)
(0.00867605 -0.0633455 0)
(0.00850606 -0.0599099 0)
(0.00832545 -0.0565444 0)
(0.00813566 -0.0532532 0)
(0.00793767 -0.0500395 0)
(0.00773277 -0.0469065 0)
(0.00752203 -0.0438568 0)
(0.0073062 -0.0408923 0)
(0.00708641 -0.038015 0)
(0.00686364 -0.0352263 0)
(0.00663856 -0.0325271 0)
(0.00641183 -0.0299184 0)
(0.0061842 -0.0274006 0)
(0.00595641 -0.0249738 0)
(0.0057291 -0.0226381 0)
(0.00550279 -0.020393 0)
(0.00527799 -0.0182383 0)
(0.00505512 -0.016173 0)
(0.00483462 -0.0141964 0)
(0.00461689 -0.0123075 0)
(0.00440231 -0.010505 0)
(0.00419119 -0.00878758 0)
(0.00398384 -0.00715387 0)
(0.00378052 -0.00560227 0)
(0.00358144 -0.00413113 0)
(0.0033868 -0.00273871 0)
(0.00319677 -0.00142319 0)
(0.0030115 -0.000182709 0)
(0.00283111 0.000984672 0)
(0.00265569 0.00208092 0)
(0.00248532 0.00310804 0)
(0.00232007 0.00406808 0)
(0.00215998 0.00496307 0)
(0.00200507 0.0057951 0)
(0.00185535 0.00656624 0)
(0.00171082 0.00727856 0)
(0.00157145 0.00793413 0)
(0.00143721 0.00853502 0)
(0.00130807 0.00908326 0)
(0.00118397 0.00958089 0)
(0.00106484 0.0100299 0)
(0.000950613 0.0104323 0)
(0.00084121 0.01079 0)
(0.000736543 0.0111049 0)
(0.00063652 0.0113789 0)
(0.000541041 0.0116138 0)
(0.000450002 0.0118115 0)
(0.000363296 0.0119736 0)
(0.00028081 0.012102 0)
(0.000202429 0.0121981 0)
(0.000128037 0.0122638 0)
(5.75123e-05 0.0123005 0)
(-9.26554e-06 0.0123098 0)
(-7.24193e-05 0.0122931 0)
(-0.000132072 0.0122519 0)
(-0.000188348 0.0121875 0)
(-0.000241371 0.0121013 0)
(-0.000291264 0.0119945 0)
(-0.000338151 0.0118684 0)
(-0.000382153 0.0117242 0)
(-0.000423391 0.0115629 0)
(-0.000461984 0.0113856 0)
(-0.000498051 0.0111935 0)
(-0.000531708 0.0109874 0)
(-0.000563068 0.0107683 0)
(-0.000592244 0.0105372 0)
(-0.000619344 0.0102948 0)
(-0.000644475 0.010042 0)
(-0.000667743 0.00977952 0)
(-0.000689247 0.0095081 0)
(-0.000709088 0.00922843 0)
(-0.00072736 0.00894115 0)
(-0.000744157 0.00864687 0)
(-0.000759567 0.00834615 0)
(-0.000773678 0.00803955 0)
(-0.000786572 0.00772756 0)
(-0.000798329 0.00741064 0)
(-0.000809026 0.00708925 0)
(-0.000818735 0.00676378 0)
(-0.000827528 0.00643462 0)
(-0.000835469 0.00610213 0)
(-0.000842623 0.00576662 0)
(-0.000849047 0.0054284 0)
(-0.000854799 0.00508776 0)
(-0.000859931 0.00474494 0)
(-0.000864491 0.00440019 0)
(-0.000868526 0.00405373 0)
(-0.000872077 0.00370576 0)
(-0.000875183 0.00335646 0)
(-0.000877879 0.003006 0)
(-0.000880196 0.00265455 0)
(-0.000882162 0.00230224 0)
(-0.000883801 0.00194921 0)
(-0.000885136 0.00159559 0)
(-0.000886182 0.00124149 0)
(-0.000886955 0.000887035 0)
(-0.000887465 0.000532322 0)
(-0.000887717 0.000177458 0)
(0.0125679 -0.0703569 0)
(0.012365 -0.0667974 0)
(0.0121435 -0.0632986 0)
(0.0119055 -0.0598655 0)
(0.0116528 -0.0565025 0)
(0.0113871 -0.0532137 0)
(0.01111 -0.0500025 0)
(0.0108232 -0.0468718 0)
(0.0105282 -0.0438243 0)
(0.0102262 -0.040862 0)
(0.00991857 -0.0379869 0)
(0.00960674 -0.0352002 0)
(0.00929167 -0.0325031 0)
(0.00897432 -0.0298963 0)
(0.00865574 -0.0273803 0)
(0.00833693 -0.0249553 0)
(0.00801877 -0.0226213 0)
(0.00770202 -0.0203779 0)
(0.00738736 -0.0182247 0)
(0.00707542 -0.016161 0)
(0.00676679 -0.0141859 0)
(0.00646205 -0.0122983 0)
(0.0061617 -0.0104972 0)
(0.00586622 -0.00878107 0)
(0.005576 -0.00714857 0)
(0.00529142 -0.00559812 0)
(0.00501278 -0.00412807 0)
(0.00474035 -0.00273668 0)
(0.00447438 -0.00142214 0)
(0.00421506 -0.000182573 0)
(0.00396257 0.000983943 0)
(0.00371705 0.00207938 0)
(0.00347859 0.00310574 0)
(0.0032473 0.00406506 0)
(0.00302323 0.0049594 0)
(0.00280641 0.00579081 0)
(0.00259685 0.00656138 0)
(0.00239455 0.00727317 0)
(0.00219948 0.00792826 0)
(0.0020116 0.0085287 0)
(0.00183085 0.00907654 0)
(0.00165715 0.0095738 0)
(0.00149041 0.0100225 0)
(0.00133053 0.0104246 0)
(0.0011774 0.010782 0)
(0.00103091 0.0110967 0)
(0.000890908 0.0113705 0)
(0.00075727 0.0116052 0)
(0.000629848 0.0118027 0)
(0.000508489 0.0119648 0)
(0.000393037 0.012093 0)
(0.000283331 0.0121891 0)
(0.000179207 0.0122547 0)
(8.04973e-05 0.0122914 0)
(-1.29686e-05 0.0123007 0)
(-0.000101362 0.012284 0)
(-0.000184855 0.0122428 0)
(-0.000263622 0.0121785 0)
(-0.000337836 0.0120923 0)
(-0.000407669 0.0119856 0)
(-0.000473294 0.0118596 0)
(-0.000534882 0.0117155 0)
(-0.000592601 0.0115543 0)
(-0.000646618 0.0113772 0)
(-0.0006971 0.0111852 0)
(-0.000744208 0.0109793 0)
(-0.000788101 0.0107604 0)
(-0.000828936 0.0105294 0)
(-0.000866867 0.0102872 0)
(-0.000902043 0.0100346 0)
(-0.000934609 0.00977228 0)
(-0.000964708 0.00950106 0)
(-0.000992478 0.0092216 0)
(-0.00101805 0.00893453 0)
(-0.00104156 0.00864046 0)
(-0.00106313 0.00833997 0)
(-0.00108288 0.0080336 0)
(-0.00110093 0.00772183 0)
(-0.00111738 0.00740515 0)
(-0.00113236 0.007084 0)
(-0.00114595 0.00675877 0)
(-0.00115825 0.00642986 0)
(-0.00116937 0.00609761 0)
(-0.00117938 0.00576235 0)
(-0.00118837 0.00542438 0)
(-0.00119642 0.00508399 0)
(-0.00120361 0.00474143 0)
(-0.00120999 0.00439694 0)
(-0.00121564 0.00405073 0)
(-0.00122061 0.00370301 0)
(-0.00122495 0.00335397 0)
(-0.00122873 0.00300378 0)
(-0.00123197 0.00265258 0)
(-0.00123472 0.00230053 0)
(-0.00123702 0.00194776 0)
(-0.00123888 0.00159441 0)
(-0.00124035 0.00124057 0)
(-0.00124143 0.000886378 0)
(-0.00124214 0.000531928 0)
(-0.0012425 0.000177326 0)
(0.0161534 -0.0702873 0)
(0.0158926 -0.0667315 0)
(0.015608 -0.0632361 0)
(0.0153021 -0.0598064 0)
(0.0149772 -0.0564467 0)
(0.0146357 -0.0531612 0)
(0.0142796 -0.0499531 0)
(0.013911 -0.0468255 0)
(0.0135318 -0.043781 0)
(0.0131436 -0.0408217 0)
(0.0127483 -0.0379493 0)
(0.0123475 -0.0351654 0)
(0.0119425 -0.032471 0)
(0.0115346 -0.0298667 0)
(0.0111251 -0.0273532 0)
(0.0107154 -0.0249307 0)
(0.0103065 -0.0225989 0)
(0.00989935 -0.0203578 0)
(0.00949491 -0.0182067 0)
(0.00909397 -0.0161451 0)
(0.00869729 -0.0141719 0)
(0.00830561 -0.0122862 0)
(0.00791958 -0.0104868 0)
(0.0075398 -0.0087724 0)
(0.00716679 -0.00714151 0)
(0.00680102 -0.0055926 0)
(0.00644288 -0.004124 0)
(0.00609273 -0.00273398 0)
(0.00575088 -0.00142073 0)
(0.00541759 -0.000182392 0)
(0.00509306 0.000982973 0)
(0.00477749 0.00207733 0)
(0.00447101 0.00310268 0)
(0.00417373 0.00406105 0)
(0.00388573 0.0049545 0)
(0.00360705 0.00578509 0)
(0.00333771 0.0065549 0)
(0.0030777 0.00726599 0)
(0.00282698 0.00792043 0)
(0.0025855 0.00852027 0)
(0.00235317 0.00906757 0)
(0.00212992 0.00956434 0)
(0.00191561 0.0100126 0)
(0.00171012 0.0104143 0)
(0.00151331 0.0107713 0)
(0.00132501 0.0110857 0)
(0.00114508 0.0113592 0)
(0.000973313 0.0115938 0)
(0.000809538 0.0117911 0)
(0.000653556 0.0119529 0)
(0.000505167 0.012081 0)
(0.000364163 0.0121771 0)
(0.000230334 0.0122426 0)
(0.000103462 0.0122793 0)
(-1.66684e-05 0.0122885 0)
(-0.00013028 0.0122719 0)
(-0.000237593 0.0122307 0)
(-0.000338832 0.0121665 0)
(-0.000434218 0.0120804 0)
(-0.000523974 0.0119738 0)
(-0.000608321 0.0118479 0)
(-0.000687479 0.0117039 0)
(-0.000761664 0.0115429 0)
(-0.000831093 0.011366 0)
(-0.000895976 0.0111741 0)
(-0.000956524 0.0109684 0)
(-0.00101294 0.0107497 0)
(-0.00106542 0.010519 0)
(-0.00111418 0.010277 0)
(-0.00115939 0.0100247 0)
(-0.00120124 0.00976263 0)
(-0.00123993 0.00949168 0)
(-0.00127562 0.00921249 0)
(-0.00130849 0.0089257 0)
(-0.00133871 0.00863193 0)
(-0.00136643 0.00833174 0)
(-0.00139182 0.00802566 0)
(-0.00141501 0.00771421 0)
(-0.00143616 0.00739784 0)
(-0.00145541 0.007077 0)
(-0.00147288 0.0067521 0)
(-0.00148869 0.00642351 0)
(-0.00150298 0.00609158 0)
(-0.00151585 0.00575666 0)
(-0.00152741 0.00541902 0)
(-0.00153775 0.00507897 0)
(-0.00154698 0.00473674 0)
(-0.00155519 0.00439259 0)
(-0.00156245 0.00404673 0)
(-0.00156884 0.00369936 0)
(-0.00157442 0.00335066 0)
(-0.00157927 0.00300081 0)
(-0.00158344 0.00264996 0)
(-0.00158698 0.00229826 0)
(-0.00158993 0.00194584 0)
(-0.00159233 0.00159283 0)
(-0.00159421 0.00123935 0)
(-0.0015956 0.000885502 0)
(-0.00159652 0.000531402 0)
(-0.00159697 0.000177151 0)
(0.0197348 -0.0702005 0)
(0.0194163 -0.066649 0)
(0.0190686 -0.0631579 0)
(0.0186949 -0.0597325 0)
(0.018298 -0.056377 0)
(0.0178807 -0.0530955 0)
(0.0174456 -0.0498914 0)
(0.0169953 -0.0467677 0)
(0.0165321 -0.0437269 0)
(0.0160578 -0.0407712 0)
(0.0155748 -0.0379025 0)
(0.0150851 -0.035122 0)
(0.0145903 -0.0324308 0)
(0.014092 -0.0298298 0)
(0.0135918 -0.0273194 0)
(0.0130912 -0.0248999 0)
(0.0125916 -0.022571 0)
(0.0120942 -0.0203326 0)
(0.0116001 -0.0181842 0)
(0.0111103 -0.0161251 0)
(0.0106256 -0.0141544 0)
(0.0101471 -0.012271 0)
(0.0096755 -0.0104739 0)
(0.00921152 -0.00876156 0)
(0.00875581 -0.00713269 0)
(0.00830893 -0.00558569 0)
(0.00787139 -0.0041189 0)
(0.00744361 -0.0027306 0)
(0.00702597 -0.00141898 0)
(0.00661877 -0.000182166 0)
(0.00622229 0.000981759 0)
(0.00583675 0.00207476 0)
(0.00546232 0.00309884 0)
(0.00509913 0.00405603 0)
(0.00474727 0.00494838 0)
(0.0044068 0.00577795 0)
(0.00407774 0.0065468 0)
(0.00376008 0.00725701 0)
(0.00345377 0.00791064 0)
(0.00315875 0.00850975 0)
(0.00287492 0.00905637 0)
(0.00260216 0.00955253 0)
(0.00234033 0.0100002 0)
(0.00208928 0.0104014 0)
(0.00184884 0.010758 0)
(0.0016188 0.011072 0)
(0.00139896 0.0113452 0)
(0.00118912 0.0115794 0)
(0.000989028 0.0117765 0)
(0.000798462 0.0119382 0)
(0.000617172 0.0120661 0)
(0.000444905 0.012162 0)
(0.000281403 0.0122275 0)
(0.000126402 0.0122641 0)
(-2.03642e-05 0.0122733 0)
(-0.000159165 0.0122567 0)
(-0.000290272 0.0122156 0)
(-0.000413957 0.0121514 0)
(-0.000530492 0.0120655 0)
(-0.000640149 0.011959 0)
(-0.000743198 0.0118333 0)
(-0.000839906 0.0116894 0)
(-0.00093054 0.0115286 0)
(-0.00101536 0.0113519 0)
(-0.00109463 0.0111603 0)
(-0.0011686 0.0109549 0)
(-0.00123753 0.0107365 0)
(-0.00130165 0.010506 0)
(-0.00136121 0.0102643 0)
(-0.00141645 0.0100123 0)
(-0.00146758 0.00975057 0)
(-0.00151485 0.00947995 0)
(-0.00155845 0.00920111 0)
(-0.00159861 0.00891467 0)
(-0.00163553 0.00862126 0)
(-0.0016694 0.00832144 0)
(-0.00170041 0.00801574 0)
(-0.00172875 0.00770467 0)
(-0.00175459 0.0073887 0)
(-0.0017781 0.00706826 0)
(-0.00179944 0.00674375 0)
(-0.00181876 0.00641557 0)
(-0.00183622 0.00608406 0)
(-0.00185194 0.00574954 0)
(-0.00186606 0.00541233 0)
(-0.0018787 0.00507269 0)
(-0.00188998 0.00473089 0)
(-0.0019 0.00438717 0)
(-0.00190887 0.00404173 0)
(-0.00191668 0.00369479 0)
(-0.0019235 0.00334652 0)
(-0.00192943 0.0029971 0)
(-0.00193452 0.00264669 0)
(-0.00193884 0.00229542 0)
(-0.00194244 0.00194344 0)
(-0.00194538 0.00159086 0)
(-0.00194768 0.00123782 0)
(-0.00194938 0.000884408 0)
(-0.0019505 0.000530746 0)
(-0.00195105 0.000176932 0)
(0.0233115 -0.0700963 0)
(0.0229352 -0.0665501 0)
(0.0225245 -0.0630642 0)
(0.022083 -0.0596438 0)
(0.0216142 -0.0562934 0)
(0.0211214 -0.0530167 0)
(0.0206074 -0.0498173 0)
(0.0200755 -0.0466983 0)
(0.0195283 -0.043662 0)
(0.0189681 -0.0407107 0)
(0.0183975 -0.0378462 0)
(0.0178191 -0.0350699 0)
(0.0172346 -0.0323827 0)
(0.016646 -0.0297856 0)
(0.0160551 -0.0272789 0)
(0.0154638 -0.0248629 0)
(0.0148737 -0.0225375 0)
(0.0142861 -0.0203025 0)
(0.0137025 -0.0181573 0)
(0.0131238 -0.0161012 0)
(0.0125514 -0.0141334 0)
(0.0119861 -0.0122528 0)
(0.011429 -0.0104583 0)
(0.010881 -0.00874857 0)
(0.0103427 -0.00712211 0)
(0.00981481 -0.0055774 0)
(0.00929797 -0.00411279 0)
(0.00879266 -0.00272655 0)
(0.00829932 -0.00141687 0)
(0.00781832 -0.000181895 0)
(0.00734999 0.000980303 0)
(0.00689457 0.00207168 0)
(0.00645228 0.00309425 0)
(0.00602327 0.00405002 0)
(0.00560764 0.00494104 0)
(0.00520547 0.00576937 0)
(0.00481677 0.00653709 0)
(0.00444154 0.00724624 0)
(0.00407972 0.0078989 0)
(0.00373123 0.00849712 0)
(0.00339595 0.00904293 0)
(0.00307376 0.00953835 0)
(0.00276448 0.00998538 0)
(0.00246794 0.010386 0)
(0.00218391 0.0107421 0)
(0.00191218 0.0110556 0)
(0.0016525 0.0113284 0)
(0.00140462 0.0115623 0)
(0.00116827 0.011759 0)
(0.000943171 0.0119205 0)
(0.000729025 0.0120482 0)
(0.000525537 0.012144 0)
(0.000332403 0.0122094 0)
(0.00014931 0.0122459 0)
(-2.4055e-05 0.0122551 0)
(-0.000188012 0.0122385 0)
(-0.00034288 0.0121975 0)
(-0.000488981 0.0121334 0)
(-0.000626636 0.0120476 0)
(-0.000756167 0.0119413 0)
(-0.000877891 0.0118157 0)
(-0.000992126 0.0116721 0)
(-0.00109919 0.0115115 0)
(-0.00119938 0.0113351 0)
(-0.00129302 0.0111438 0)
(-0.0013804 0.0109386 0)
(-0.00146181 0.0107205 0)
(-0.00153755 0.0104904 0)
(-0.00160791 0.0102491 0)
(-0.00167316 0.00999741 0)
(-0.00173356 0.0097361 0)
(-0.00178939 0.00946588 0)
(-0.0018409 0.00918745 0)
(-0.00188834 0.00890145 0)
(-0.00193194 0.00860847 0)
(-0.00197195 0.00830909 0)
(-0.00200859 0.00800385 0)
(-0.00204206 0.00769324 0)
(-0.00207258 0.00737774 0)
(-0.00210035 0.00705777 0)
(-0.00212556 0.00673375 0)
(-0.00214839 0.00640605 0)
(-0.00216901 0.00607503 0)
(-0.00218758 0.00574101 0)
(-0.00220426 0.0054043 0)
(-0.00221919 0.00506517 0)
(-0.00223251 0.00472387 0)
(-0.00224435 0.00438066 0)
(-0.00225483 0.00403573 0)
(-0.00226405 0.0036893 0)
(-0.00227211 0.00334155 0)
(-0.00227911 0.00299265 0)
(-0.00228512 0.00264276 0)
(-0.00229023 0.00229201 0)
(-0.00229448 0.00194055 0)
(-0.00229795 0.0015885 0)
(-0.00230066 0.00123598 0)
(-0.00230267 0.000883096 0)
(-0.00230399 0.000529958 0)
(-0.00230465 0.00017667 0)
(0.0268823 -0.0699749 0)
(0.0264484 -0.0664348 0)
(0.0259748 -0.062955 0)
(0.0254657 -0.0595405 0)
(0.0249251 -0.0561958 0)
(0.0243567 -0.0529249 0)
(0.0237641 -0.049731 0)
(0.0231506 -0.0466174 0)
(0.0225196 -0.0435864 0)
(0.0218736 -0.0406402 0)
(0.0212157 -0.0377806 0)
(0.0205486 -0.0350091 0)
(0.0198746 -0.0323266 0)
(0.0191958 -0.029734 0)
(0.0185145 -0.0272316 0)
(0.0178326 -0.0248198 0)
(0.0171521 -0.0224985 0)
(0.0164745 -0.0202673 0)
(0.0158014 -0.0181258 0)
(0.0151341 -0.0160733 0)
(0.014474 -0.0141089 0)
(0.0138222 -0.0122316 0)
(0.0131798 -0.0104402 0)
(0.0125477 -0.00873341 0)
(0.011927 -0.00710977 0)
(0.0113183 -0.00556774 0)
(0.0107222 -0.00410566 0)
(0.0101395 -0.00272182 0)
(0.00957062 -0.00141442 0)
(0.00901595 -0.000181579 0)
(0.00847587 0.000978606 0)
(0.00795069 0.0020681 0)
(0.00744065 0.00308889 0)
(0.00694592 0.004043 0)
(0.00646663 0.00493248 0)
(0.00600285 0.00575938 0)
(0.00555461 0.00652576 0)
(0.0051219 0.00723369 0)
(0.00470465 0.00788522 0)
(0.00430278 0.0084824 0)
(0.00391615 0.00902727 0)
(0.0035446 0.00952183 0)
(0.00318795 0.00996808 0)
(0.00284598 0.010368 0)
(0.00251844 0.0107235 0)
(0.00220509 0.0110364 0)
(0.00190564 0.0113087 0)
(0.00161979 0.0115422 0)
(0.00134723 0.0117387 0)
(0.00108765 0.0118998 0)
(0.000840698 0.0120273 0)
(0.00060604 0.0121229 0)
(0.000383321 0.0121882 0)
(0.000172182 0.0122247 0)
(-2.77399e-05 0.0122339 0)
(-0.000216812 0.0122173 0)
(-0.000395403 0.0121764 0)
(-0.000563884 0.0121124 0)
(-0.000722625 0.0120267 0)
(-0.000871997 0.0119206 0)
(-0.00101237 0.0117952 0)
(-0.0011441 0.0116519 0)
(-0.00126756 0.0114916 0)
(-0.0013831 0.0113154 0)
(-0.00149108 0.0111245 0)
(-0.00159185 0.0109197 0)
(-0.00168573 0.010702 0)
(-0.00177308 0.0104722 0)
(-0.00185421 0.0102313 0)
(-0.00192945 0.00998009 0)
(-0.00199911 0.00971923 0)
(-0.00206349 0.00944948 0)
(-0.00212289 0.00917153 0)
(-0.0021776 0.00888602 0)
(-0.00222788 0.00859355 0)
(-0.00227402 0.0082947 0)
(-0.00231626 0.00798998 0)
(-0.00235487 0.00767991 0)
(-0.00239006 0.00736495 0)
(-0.00242209 0.00704554 0)
(-0.00245116 0.00672208 0)
(-0.00247748 0.00639495 0)
(-0.00250126 0.0060645 0)
(-0.00252267 0.00573106 0)
(-0.00254191 0.00539493 0)
(-0.00255913 0.00505639 0)
(-0.00257449 0.00471569 0)
(-0.00258814 0.00437306 0)
(-0.00260022 0.00402874 0)
(-0.00261086 0.00368291 0)
(-0.00262015 0.00333576 0)
(-0.00262822 0.00298747 0)
(-0.00263516 0.00263818 0)
(-0.00264105 0.00228804 0)
(-0.00264596 0.00193719 0)
(-0.00264995 0.00158575 0)
(-0.00265308 0.00123384 0)
(-0.0026554 0.000881566 0)
(-0.00265692 0.00052904 0)
(-0.00265768 0.000176363 0)
(0.0304466 -0.0698362 0)
(0.0299551 -0.0663031 0)
(0.0294188 -0.0628301 0)
(0.0288422 -0.0594225 0)
(0.0282298 -0.0560844 0)
(0.0275861 -0.0528199 0)
(0.0269149 -0.0496324 0)
(0.0262201 -0.0465249 0)
(0.0255054 -0.0435 0)
(0.0247738 -0.0405596 0)
(0.0240286 -0.0377057 0)
(0.0232731 -0.0349397 0)
(0.0225097 -0.0322625 0)
(0.021741 -0.029675 0)
(0.0209693 -0.0271777 0)
(0.020197 -0.0247706 0)
(0.0194262 -0.0224539 0)
(0.0186588 -0.0202271 0)
(0.0178965 -0.0180899 0)
(0.0171407 -0.0160414 0)
(0.0163931 -0.0140809 0)
(0.0156548 -0.0122073 0)
(0.0149272 -0.0104195 0)
(0.0142114 -0.0087161 0)
(0.0135083 -0.00709568 0)
(0.0128189 -0.0055567 0)
(0.0121439 -0.00409752 0)
(0.0114839 -0.00271643 0)
(0.0108396 -0.00141161 0)
(0.0102113 -0.000181218 0)
(0.00959966 0.000976667 0)
(0.00900485 0.002064 0)
(0.00842718 0.00308276 0)
(0.00786686 0.00403499 0)
(0.00732402 0.0049227 0)
(0.00679875 0.00574796 0)
(0.00629108 0.00651282 0)
(0.005801 0.00721935 0)
(0.00532843 0.00786959 0)
(0.00487327 0.00846559 0)
(0.00443538 0.00900937 0)
(0.00401457 0.00950295 0)
(0.00361063 0.00994832 0)
(0.00322332 0.0103474 0)
(0.00285236 0.0107022 0)
(0.00249745 0.0110145 0)
(0.0021583 0.0112863 0)
(0.00183455 0.0115193 0)
(0.00152586 0.0117154 0)
(0.00123186 0.0118762 0)
(0.000952164 0.0120035 0)
(0.000686393 0.0120989 0)
(0.000434144 0.012164 0)
(0.000195011 0.0122004 0)
(-3.1418e-05 0.0122096 0)
(-0.000245558 0.0121931 0)
(-0.000447828 0.0121522 0)
(-0.000638648 0.0120884 0)
(-0.000818436 0.0120028 0)
(-0.000987613 0.0118969 0)
(-0.00114659 0.0117719 0)
(-0.0012958 0.0116288 0)
(-0.00143562 0.0114688 0)
(-0.00156649 0.011293 0)
(-0.00168878 0.0111024 0)
(-0.0018029 0.010898 0)
(-0.00190924 0.0106807 0)
(-0.00200817 0.0104515 0)
(-0.00210006 0.0102111 0)
(-0.00218527 0.0099603 0)
(-0.00226417 0.00969996 0)
(-0.00233708 0.00943075 0)
(-0.00240436 0.00915335 0)
(-0.00246632 0.00886841 0)
(-0.00252327 0.00857652 0)
(-0.00257552 0.00827825 0)
(-0.00262337 0.00797414 0)
(-0.00266709 0.00766469 0)
(-0.00270696 0.00735035 0)
(-0.00274323 0.00703157 0)
(-0.00277615 0.00670875 0)
(-0.00280596 0.00638227 0)
(-0.00283289 0.00605248 0)
(-0.00285715 0.0057197 0)
(-0.00287893 0.00538424 0)
(-0.00289843 0.00504636 0)
(-0.00291584 0.00470634 0)
(-0.0029313 0.0043644 0)
(-0.00294498 0.00402075 0)
(-0.00295702 0.00367561 0)
(-0.00296755 0.00332915 0)
(-0.00297669 0.00298155 0)
(-0.00298455 0.00263295 0)
(-0.00299121 0.00228351 0)
(-0.00299677 0.00193335 0)
(-0.0030013 0.00158261 0)
(-0.00300485 0.00123139 0)
(-0.00300747 0.000879818 0)
(-0.0030092 0.000527991 0)
(-0.00301005 0.000176014 0)
(0.0340033 -0.0696802 0)
(0.0334545 -0.066155 0)
(0.0328554 -0.0626898 0)
(0.0322115 -0.0592898 0)
(0.0315276 -0.0559592 0)
(0.0308087 -0.052702 0)
(0.0300591 -0.0495216 0)
(0.0292831 -0.046421 0)
(0.0284849 -0.0434028 0)
(0.0276678 -0.0404691 0)
(0.0268356 -0.0376215 0)
(0.0259918 -0.0348617 0)
(0.0251393 -0.0321905 0)
(0.0242807 -0.0296088 0)
(0.0234189 -0.027117 0)
(0.0225564 -0.0247153 0)
(0.0216956 -0.0224037 0)
(0.0208385 -0.0201819 0)
(0.0199871 -0.0180495 0)
(0.0191431 -0.0160056 0)
(0.0183081 -0.0140495 0)
(0.0174836 -0.0121801 0)
(0.016671 -0.0103962 0)
(0.0158716 -0.00869663 0)
(0.0150864 -0.00707983 0)
(0.0143164 -0.00554429 0)
(0.0135625 -0.00408837 0)
(0.0128254 -0.00271036 0)
(0.0121058 -0.00140846 0)
(0.0114042 -0.000180812 0)
(0.0107211 0.000974487 0)
(0.0100568 0.00205939 0)
(0.00941164 0.00307588 0)
(0.00878586 0.00402598 0)
(0.0081796 0.00491171 0)
(0.00759297 0.00573513 0)
(0.007026 0.00649828 0)
(0.00647866 0.00720323 0)
(0.00595089 0.00785202 0)
(0.00544256 0.00844668 0)
(0.00495352 0.00898925 0)
(0.00448355 0.00948173 0)
(0.00403242 0.0099261 0)
(0.00359986 0.0103243 0)
(0.00318556 0.0106783 0)
(0.0027892 0.01099 0)
(0.00241043 0.0112611 0)
(0.00204886 0.0114936 0)
(0.00170411 0.0116892 0)
(0.00137576 0.0118497 0)
(0.00106339 0.0119767 0)
(0.000766576 0.0120719 0)
(0.00048486 0.0121369 0)
(0.000217792 0.0121732 0)
(-3.50884e-05 0.0121824 0)
(-0.000274244 0.0121659 0)
(-0.000500143 0.0121251 0)
(-0.000713254 0.0120614 0)
(-0.000914045 0.011976 0)
(-0.00110299 0.0118704 0)
(-0.00128054 0.0117456 0)
(-0.00144717 0.0116028 0)
(-0.00160333 0.0114432 0)
(-0.00174948 0.0112678 0)
(-0.00188606 0.0110776 0)
(-0.00201352 0.0108737 0)
(-0.00213228 0.0106569 0)
(-0.00224276 0.0104281 0)
(-0.00234538 0.0101883 0)
(-0.00244055 0.00993806 0)
(-0.00252867 0.0096783 0)
(-0.0026101 0.00940969 0)
(-0.00268523 0.00913291 0)
(-0.00275443 0.0088486 0)
(-0.00281804 0.00855737 0)
(-0.00287639 0.00825977 0)
(-0.00292983 0.00795633 0)
(-0.00297866 0.00764757 0)
(-0.00302318 0.00733394 0)
(-0.00306369 0.00701587 0)
(-0.00310046 0.00669377 0)
(-0.00313375 0.00636802 0)
(-0.00316383 0.00603896 0)
(-0.00319092 0.00570693 0)
(-0.00321524 0.00537221 0)
(-0.00323703 0.0050351 0)
(-0.00325646 0.00469583 0)
(-0.00327373 0.00435465 0)
(-0.00328901 0.00401177 0)
(-0.00330246 0.0036674 0)
(-0.00331422 0.00332172 0)
(-0.00332443 0.00297489 0)
(-0.0033332 0.00262707 0)
(-0.00334064 0.00227841 0)
(-0.00334685 0.00192903 0)
(-0.00335191 0.00157907 0)
(-0.00335587 0.00122864 0)
(-0.0033588 0.000877853 0)
(-0.00336073 0.000526812 0)
(-0.00336168 0.000175621 0)
(0.0375517 -0.0695071 0)
(0.0369456 -0.0659906 0)
(0.036284 -0.0625341 0)
(0.0355728 -0.0591424 0)
(0.0348176 -0.0558201 0)
(0.0340237 -0.052571 0)
(0.0331958 -0.0493986 0)
(0.0323389 -0.0463057 0)
(0.0314574 -0.043295 0)
(0.030555 -0.0403685 0)
(0.029636 -0.0375281 0)
(0.0287042 -0.034775 0)
(0.0277626 -0.0321105 0)
(0.0268145 -0.0295352 0)
(0.0258627 -0.0270496 0)
(0.0249102 -0.0246539 0)
(0.0239596 -0.0223481 0)
(0.0230131 -0.0201318 0)
(0.0220728 -0.0180046 0)
(0.0211407 -0.0159658 0)
(0.0202186 -0.0140146 0)
(0.019308 -0.0121498 0)
(0.0184107 -0.0103704 0)
(0.0175278 -0.00867502 0)
(0.0166607 -0.00706224 0)
(0.0158104 -0.00553051 0)
(0.0149778 -0.00407821 0)
(0.0141638 -0.00270363 0)
(0.0133691 -0.00140496 0)
(0.0125943 -0.000180361 0)
(0.0118399 0.000972067 0)
(0.0111062 0.00205427 0)
(0.0103938 0.00306824 0)
(0.00970269 0.00401597 0)
(0.00903317 0.00489951 0)
(0.00838532 0.00572088 0)
(0.00775918 0.00648214 0)
(0.00715473 0.00718533 0)
(0.00657188 0.00783251 0)
(0.00601051 0.0084257 0)
(0.00547043 0.00896692 0)
(0.00495142 0.00945817 0)
(0.00445322 0.00990144 0)
(0.00397552 0.0102987 0)
(0.00351799 0.0106518 0)
(0.00308027 0.0109626 0)
(0.00266196 0.0112331 0)
(0.00226266 0.0114651 0)
(0.00188193 0.0116602 0)
(0.00151932 0.0118202 0)
(0.00117436 0.0119469 0)
(0.000846571 0.0120419 0)
(0.000535456 0.0121067 0)
(0.000240519 0.012143 0)
(-3.87502e-05 0.0121521 0)
(-0.000302863 0.0121356 0)
(-0.000552335 0.0120949 0)
(-0.000787684 0.0120314 0)
(-0.00100943 0.0119463 0)
(-0.00121809 0.0118409 0)
(-0.00141417 0.0117164 0)
(-0.00159819 0.011574 0)
(-0.00177064 0.0114147 0)
(-0.00193205 0.0112398 0)
(-0.00208288 0.0110501 0)
(-0.00222363 0.0108467 0)
(-0.00235478 0.0106304 0)
(-0.0024768 0.0104022 0)
(-0.00259013 0.0101629 0)
(-0.00269523 0.00991337 0)
(-0.00279254 0.00965425 0)
(-0.00288247 0.00938631 0)
(-0.00296545 0.00911022 0)
(-0.00304186 0.00882661 0)
(-0.00311211 0.0085361 0)
(-0.00317655 0.00823924 0)
(-0.00323557 0.00793656 0)
(-0.00328949 0.00762857 0)
(-0.00333866 0.00731571 0)
(-0.00338339 0.00699843 0)
(-0.003424 0.00667714 0)
(-0.00346077 0.0063522 0)
(-0.00349398 0.00602396 0)
(-0.0035239 0.00569275 0)
(-0.00355077 0.00535886 0)
(-0.00357482 0.00502258 0)
(-0.00359628 0.00468416 0)
(-0.00361535 0.00434383 0)
(-0.00363223 0.0040018 0)
(-0.00364708 0.00365829 0)
(-0.00366007 0.00331346 0)
(-0.00367134 0.00296749 0)
(-0.00368103 0.00262054 0)
(-0.00368925 0.00227274 0)
(-0.00369611 0.00192424 0)
(-0.00370169 0.00157515 0)
(-0.00370607 0.00122559 0)
(-0.0037093 0.000875672 0)
(-0.00371143 0.000525503 0)
(-0.00371249 0.000175184 0)
(0.0410907 -0.0693168 0)
(0.0404275 -0.0658099 0)
(0.0397036 -0.0623629 0)
(0.0389254 -0.0589805 0)
(0.038099 -0.0556673 0)
(0.0372303 -0.0524271 0)
(0.0363244 -0.0492633 0)
(0.0353867 -0.0461789 0)
(0.0344221 -0.0431764 0)
(0.0334347 -0.040258 0)
(0.0324291 -0.0374253 0)