/*--------------------------------*- C++ -*----------------------------------*\
| =========                 |                                                 |
| \\      /  F ield         | OpenFOAM: The Open Source CFD Toolbox           |
|  \\    /   O peration     | Version:  2406                                  |
|   \\  /    A nd           | Website:  www.openfoam.com                      |
|    \\/     M anipulation  |                                                 |
\*---------------------------------------------------------------------------*/
FoamFile
{
    version     2.0;
    format      ascii;
    arch        "LSB;label=32;scalar=64";
    class       volScalarField;
    location    "170";
    object      gradTx;
}
// * * * * * * * * * * * * * * * * * * * * * * * * * * * * * * * * * * * * * //

dimensions      [0 -1 0 1 0 0 0];

internalField   nonuniform List<scalar> 
20000
(
6.30552
6.2037
6.09262
5.97324
5.84651
5.71315
5.5739
5.43019
5.28238
5.13068
4.97621
4.81981
4.66184
4.50265
4.34277
4.18278
4.02313
3.86422
3.70637
3.54987
3.39504
3.24214
3.09145
2.94319
2.79758
2.6548
2.515
2.37832
2.24488
2.11477
1.98809
1.86491
1.74527
1.62923
1.51681
1.40803
1.30289
1.20139
1.10352
1.00926
0.918571
0.831421
0.747764
0.667551
0.590725
0.517225
0.446985
0.379937
0.316006
0.255118
0.197194
0.142153
0.0899117
0.0403871
-0.00650651
-0.0508551
-0.0927453
-0.132264
-0.169499
-0.204535
-0.23746
-0.26836
-0.297319
-0.32442
-0.349748
-0.373383
-0.395405
-0.415893
-0.434923
-0.452571
-0.46891
-0.484012
-0.497944
-0.510776
-0.522571
-0.533393
-0.543302
-0.552356
-0.560612
-0.568124
-0.574943
-0.581117
-0.586694
-0.591717
-0.596228
-0.600268
-0.603871
-0.607074
-0.609907
-0.612401
-0.614582
-0.616475
-0.618102
-0.619482
-0.620634
-0.621571
-0.622306
-0.622849
-0.623206
-0.623384
18.915
18.6096
18.2764
17.9183
17.5378
17.138
16.7208
16.2893
15.8455
15.3907
14.9276
14.4584
13.9843
13.5067
13.0272
12.5473
12.0684
11.5917
11.1182
10.6487
10.1843
9.72561
9.27357
8.82885
8.39206
7.96375
7.54438
7.13437
6.73408
6.3438
5.96379
5.59427
5.23539
4.88729
4.55005
4.22373
3.90834
3.60387
3.31029
3.02753
2.75548
2.49406
2.24311
2.00249
1.77203
1.55155
1.34084
1.13972
0.947941
0.765291
0.591533
0.426423
0.269713
0.121151
-0.019518
-0.152553
-0.278213
-0.39676
-0.508454
-0.613555
-0.712323
-0.805013
-0.891882
-0.973181
-1.04916
-1.12006
-1.18612
-1.24758
-1.30466
-1.3576
-1.40662
-1.45192
-1.49371
-1.5322
-1.56758
-1.60005
-1.62977
-1.65693
-1.6817
-1.70423
-1.72469
-1.74321
-1.75994
-1.775
-1.78854
-1.80065
-1.81146
-1.82107
-1.82957
-1.83705
-1.84359
-1.84927
-1.85415
-1.85829
-1.86175
-1.86456
-1.86676
-1.86839
-1.86947
-1.87
31.52
31.011
30.4555
29.8588
29.2248
28.5586
27.8636
27.1443
26.4045
25.6469
24.8754
24.0934
23.3033
22.5074
21.7084
20.9088
20.1108
19.3164
18.5273
17.745
16.9709
16.2067
15.4534
14.7123
13.9845
13.2707
12.5719
11.8887
11.2216
10.5713
9.93802
9.32225
8.72422
8.14415
7.58217
7.03839
6.51283
6.00547
5.51625
5.04505
4.59172
4.15608
3.7379
3.33693
2.9529
2.58549
2.23437
1.89921
1.57964
1.27528
0.985726
0.710587
0.449447
0.201885
-0.0325248
-0.254213
-0.463613
-0.661158
-0.847284
-1.02242
-1.18701
-1.34147
-1.48623
-1.6217
-1.74831
-1.86645
-1.97654
-2.07895
-2.17408
-2.2623
-2.34397
-2.41946
-2.48911
-2.55325
-2.61221
-2.6663
-2.71584
-2.7611
-2.80237
-2.83992
-2.874
-2.90487
-2.93274
-2.95785
-2.98041
-3.0006
-3.01861
-3.03462
-3.04878
-3.06125
-3.07215
-3.08161
-3.08975
-3.09665
-3.1024
-3.10709
-3.11076
-3.11347
-3.11526
-3.11615
44.1171
43.4049
42.6273
41.792
40.9047
39.9721
38.9994
37.9926
36.9571
35.8969
34.8171
33.7225
32.6165
31.5025
30.3842
29.2651
28.1483
27.0364
25.9318
24.8368
23.7534
22.6837
21.6294
20.5922
19.5734
18.5744
17.5963
16.64
15.7064
14.7961
13.9098
13.0479
12.2109
11.399
10.6124
9.85132
9.11571
8.40558
7.72084
7.06132
6.42682
5.81707
5.23177
4.67055
4.13303
3.61879
3.12735
2.65824
2.21095
1.78495
1.37968
0.994577
0.629071
0.282569
-0.0455235
-0.35581
-0.648897
-0.925393
-1.1859
-1.43104
-1.6614
-1.87759
-2.0802
-2.26982
-2.44703
-2.61239
-2.76647
-2.90981
-3.04296
-3.16644
-3.28075
-3.38641
-3.48389
-3.57367
-3.65619
-3.73191
-3.80123
-3.86458
-3.92235
-3.97491
-4.02261
-4.06581
-4.10483
-4.13997
-4.17154
-4.1998
-4.22501
-4.24742
-4.26724
-4.28469
-4.29995
-4.31319
-4.32458
-4.33424
-4.34229
-4.34885
-4.35399
-4.35779
-4.36029
-4.36153
56.7031
55.7879
54.7887
53.7149
52.5745
51.3757
50.1255
48.8316
47.5007
46.138
44.7502
43.3432
41.9216
40.4899
39.0526
37.6142
36.1788
34.7496
33.3299
31.9225
30.5301
29.1551
27.8001
26.4669
25.1576
23.8736
22.6164
21.3873
20.1873
19.0173
17.8781
16.7704
15.6946
14.651
13.6401
12.6618
11.7163
10.8036
9.92353
9.07585
8.26034
7.47663
6.72434
6.00302
5.31215
4.65119
4.01956
3.41662
2.84172
2.29417
1.77328
1.27832
0.808539
0.363184
-0.0585111
-0.45732
-0.834022
-1.1894
-1.52423
-1.8393
-2.13539
-2.41325
-2.67367
-2.91738
-3.14514
-3.35768
-3.55572
-3.73996
-3.91109
-4.06979
-4.21672
-4.35252
-4.47782
-4.5932
-4.69927
-4.79659
-4.88569
-4.96712
-5.04136
-5.10891
-5.17023
-5.22575
-5.2759
-5.32107
-5.36164
-5.39797
-5.43037
-5.45917
-5.48465
-5.50708
-5.52669
-5.54371
-5.55834
-5.57076
-5.58111
-5.58954
-5.59615
-5.60103
-5.60424
-5.60584
69.2751
68.157
66.9365
65.6245
64.2313
62.7667
61.2394
59.6585
58.0325
56.3677
54.6722
52.9533
51.2164
49.4672
47.7113
45.9541
44.2003
42.4543
40.7198
39.0003
37.2991
35.6194
33.9639
32.3352
30.7355
29.1668
27.6309
26.1293
24.6632
23.2338
21.8421
20.4887
19.1743
17.8994
16.6643
15.4692
14.3141
13.199
12.1238
11.0881
10.0918
9.13435
8.21526
7.33401
6.48996
5.68245
4.91077
4.17415
3.47178
2.80284
2.16646
1.56175
0.987807
0.443708
-0.0714845
-0.558717
-1.01894
-1.45311
-1.86219
-2.24711
-2.60884
-2.94832
-3.26647
-3.56422
-3.84248
-4.10214
-4.34409
-4.56918
-4.77825
-4.97215
-5.15165
-5.31756
-5.47063
-5.61161
-5.74119
-5.86008
-5.96895
-6.06842
-6.15913
-6.24166
-6.31657
-6.3844
-6.44567
-6.50086
-6.55042
-6.5948
-6.63439
-6.66958
-6.70071
-6.7281
-6.75206
-6.77286
-6.79073
-6.8059
-6.81855
-6.82885
-6.83692
-6.84289
-6.84681
-6.84877
81.8301
80.5093
79.0676
77.5179
75.8722
74.1422
72.3381
70.4708
68.5499
66.5835
64.5808
62.5502
60.4986
58.4324
56.3582
54.2826
52.211
50.1486
48.0997
46.0685
44.059
42.0748
40.1193
38.1954
36.3058
34.4529
32.6386
30.8648
29.1331
27.4446
25.8006
24.202
22.6494
21.1434
19.6845
18.2727
16.9083
15.5911
14.321
13.0977
11.9208
10.7898
9.70415
8.66318
7.66617
6.71231
5.80077
4.93065
4.10099
3.31081
2.55909
1.84479
1.16683
0.524124
-0.0844403
-0.659977
-1.20361
-1.71647
-2.19968
-2.65437
-3.08166
-3.48266
-3.85847
-4.21018
-4.53887
-4.8456
-5.13139
-5.39727
-5.64424
-5.87327
-6.08531
-6.28129
-6.4621
-6.62862
-6.78169
-6.92213
-7.05073
-7.16823
-7.27538
-7.37286
-7.46135
-7.54148
-7.61385
-7.67904
-7.73759
-7.79001
-7.83677
-7.87834
-7.91511
-7.94747
-7.97577
-8.00034
-8.02145
-8.03937
-8.05431
-8.06647
-8.07601
-8.08305
-8.0877
-8.09
94.3649
92.8418
91.1793
89.3923
87.4944
85.4994
83.419
81.2656
79.0505
76.7828
74.4734
72.1317
69.7658
67.3831
64.9913
62.5977
60.2088
57.8304
55.4676
53.1253
50.808
48.5199
46.2648
44.0462
41.8672
39.7304
37.6382
35.5928
33.5957
31.6486
29.7528
27.9093
26.1189
24.3822
22.6998
21.0718
19.4983
17.9794
16.5147
15.104
13.7468
12.4426
11.1907
9.99022
8.84048
7.74051
6.68934
5.68593
4.72918
3.81796
2.9511
2.12738
1.34557
0.604409
-0.0973753
-0.761073
-1.38798
-1.9794
-2.53663
-3.06097
-3.55371
-4.01614
-4.44952
-4.85511
-5.23414
-5.58785
-5.91742
-6.22403
-6.50883
-6.77295
-7.01747
-7.24347
-7.45198
-7.64401
-7.82052
-7.98248
-8.13077
-8.26627
-8.38983
-8.50225
-8.60429
-8.69669
-8.78015
-8.85533
-8.92284
-8.98329
-9.03722
-9.08515
-9.12755
-9.16487
-9.19751
-9.22584
-9.25019
-9.27085
-9.28808
-9.30211
-9.31311
-9.32123
-9.32658
-9.32924
106.876
105.151
103.269
101.245
99.0951
96.8355
94.4793
92.0404
89.5315
86.9632
84.3476
81.6955
79.0158
76.3172
73.6083
70.8974
68.1918
65.498
62.8219
60.169
57.5445
54.953
52.3989
49.8862
47.4183
44.9982
42.6286
40.3119
38.0501
35.8448
33.6977
31.6097
29.5819
27.615
25.7095
23.8656
22.0836
20.3632
18.7044
17.1066
15.5695
14.0923
12.6744
11.3148
10.0126
8.7668
7.57626
6.43981
5.35621
4.32418
3.34238
2.40944
1.52397
0.684546
-0.110287
-0.861982
-1.57201
-2.24184
-2.87295
-3.46681
-4.02489
-4.54862
-5.03946
-5.49883
-5.92813
-6.32873
-6.702
-7.04926
-7.37182
-7.67095
-7.9479
-8.20386
-8.44001
-8.6575
-8.85743
-9.04085
-9.2088
-9.36228
-9.50222
-9.62954
-9.74511
-9.84976
-9.94429
-10.0294
-10.1059
-10.1744
-10.2354
-10.2897
-10.3377
-10.38
-10.417
-10.4491
-10.4766
-10.5
-10.5196
-10.5354
-10.5479
-10.5571
-10.5632
-10.5662
119.362
117.435
115.332
113.072
110.671
108.148
105.516
102.792
99.9905
97.1222
94.201
91.239
88.2463
85.2325
82.2072
79.1796
76.1579
73.1494
70.1607
67.1979
64.2668
61.3725
58.5201
55.7139
52.9576
50.2548
47.6084
45.0211
42.495
40.0322
37.6342
35.3023
33.0376
30.8409
28.7128
26.6536
24.6633
22.742
20.8894
19.105
17.3883
15.7386
14.155
12.6366
11.1823
9.79093
8.46131
7.1921
5.98192
4.82932
3.73283
2.69091
1.702
0.764513
-0.123171
-0.962679
-1.75565
-2.50373
-3.20857
-3.8718
-4.49507
-5.07999
-5.62817
-6.1412
-6.62064
-7.06804
-7.48492
-7.87275
-8.23299
-8.56707
-8.87636
-9.16223
-9.42597
-9.66886
-9.89214
-10.097
-10.2846
-10.456
-10.6123
-10.7545
-10.8835
-11.0004
-11.106
-11.2011
-11.2865
-11.3629
-11.4311
-11.4918
-11.5454
-11.5926
-11.6339
-11.6697
-11.7005
-11.7267
-11.7484
-11.7662
-11.7801
-11.7904
-11.7971
-11.8005
131.817
129.69
127.368
124.871
122.22
119.433
116.527
113.519
110.425
107.257
104.031
100.76
97.4551
94.1268
90.7858
87.4422
84.1052
80.7827
77.4822
74.2102
70.9732
67.7769
64.6269
61.5278
58.4839
55.4991
52.5765
49.7192
46.9295
44.2097
41.5614
38.9862
36.4852
34.0593
31.7091
29.435
27.237
25.1152
23.0693
21.0987
19.2028
17.381
15.6321
13.9552
12.3492
10.8126
9.34428
7.94262
6.60615
5.33327
4.12236
2.97171
1.87961
0.844291
-0.136025
-1.06314
-1.93886
-2.765
-3.54339
-4.27584
-4.96414
-5.6101
-6.21549
-6.78205
-7.31153
-7.80562
-8.26599
-8.69429
-9.09213
-9.46107
-9.80264
-10.1183
-10.4096
-10.6778
-10.9244
-11.1506
-11.3578
-11.5471
-11.7197
-11.8767
-12.0193
-12.1483
-12.2649
-12.3699
-12.4642
-12.5487
-12.624
-12.691
-12.7502
-12.8023
-12.8479
-12.8875
-12.9215
-12.9504
-12.9744
-12.994
-13.0094
-13.0207
-13.0282
-13.0319
144.241
141.913
139.371
136.64
133.739
130.689
127.509
124.218
120.832
117.366
113.836
110.256
106.64
102.998
99.342
95.6833
92.0318
88.3962
84.7845
81.2042
77.6621
74.1646
70.7177
67.3265
63.9958
60.7296
57.5317
54.405
51.3524
48.3763
45.4784
42.6605
39.9238
37.2692
34.6975
32.2091
29.804
27.4822
25.2434
23.0871
21.0126
19.019
17.1054
15.2705
13.513
11.8317
10.2249
8.69117
7.22875
5.83591
4.51087
3.25178
2.05675
0.923861
-0.148845
-1.16333
-2.12159
-3.0256
-3.87734
-4.67882
-5.43199
-6.13883
-6.80127
-7.42123
-8.00061
-8.54126
-9.04503
-9.51369
-9.94902
-10.3527
-10.7265
-11.0719
-11.3907
-11.6842
-11.954
-12.2015
-12.4282
-12.6353
-12.8242
-12.996
-13.152
-13.2933
-13.4208
-13.5357
-13.6389
-13.7313
-13.8138
-13.887
-13.9518
-14.0089
-14.0588
-14.1021
-14.1393
-14.1709
-14.1972
-14.2187
-14.2355
-14.2479
-14.2561
-14.2601
156.628
154.1
151.341
148.375
145.225
141.913
138.46
134.886
131.209
127.445
123.612
119.725
115.798
111.843
107.874
103.901
99.9356
95.9878
92.0659
88.1781
84.3318
80.534
76.791
73.1086
69.4919
65.9452
62.4726
59.0774
55.7627
52.5309
49.3842
46.3242
43.3525
40.47
37.6774
34.9752
32.3636
29.8424
27.4114
25.0699
22.8172
20.6524
18.5744
16.5819
14.6736
12.8478
11.1031
9.43759
7.84956
6.33711
4.89827
3.53105
2.23339
1.0032
-0.161629
-1.26324
-2.30379
-3.28544
-4.21034
-5.08064
-5.8985
-6.66604
-7.38538
-8.05858
-8.68771
-9.2748
-9.82183
-10.3307
-10.8035
-11.2418
-11.6477
-12.0228
-12.3689
-12.6876
-12.9806
-13.2494
-13.4956
-13.7205
-13.9256
-14.1122
-14.2815
-14.4349
-14.5734
-14.6982
-14.8103
-14.9106
-15.0001
-15.0797
-15.15
-15.212
-15.2662
-15.3132
-15.3536
-15.3879
-15.4165
-15.4398
-15.458
-15.4715
-15.4804
-15.4848
168.977
166.25
163.273
160.073
156.674
153.102
149.377
145.521
141.554
137.493
133.358
129.165
124.928
120.661
116.379
112.093
107.815
103.556
99.3246
95.1303
90.9807
86.8835
82.8454
78.8727
74.9708
71.1445
67.3981
63.7353
60.1592
56.6726
53.2778
49.9766
46.7705
43.6607
40.648
37.7328
34.9153
32.1953
29.5726
27.0465
24.6162
22.2807
20.0389
17.8893
15.8305
13.8608
11.9785
10.1817
8.46844
6.83674
5.28446
3.80945
2.40948
1.0823
-0.174374
-1.36284
-2.48543
-3.54447
-4.54229
-5.48122
-6.36356
-7.19161
-7.96766
-8.69394
-9.37268
-10.0061
-10.5962
-11.1452
-11.6552
-12.1282
-12.566
-12.9707
-13.3441
-13.688
-14.0041
-14.2941
-14.5596
-14.8022
-15.0235
-15.2248
-15.4075
-15.573
-15.7224
-15.857
-15.978
-16.0862
-16.1828
-16.2686
-16.3445
-16.4113
-16.4698
-16.5205
-16.5641
-16.6011
-16.632
-16.6571
-16.6768
-16.6913
-16.7009
-16.7057
181.285
178.359
175.165
171.732
168.086
164.253
160.256
156.12
151.864
147.508
143.071
138.572
134.027
129.45
124.855
120.257
115.667
111.098
106.559
102.059
97.6072
93.2116
88.8794
84.6173
80.4312
76.3263
72.307
68.3774
64.5408
60.8003
57.1582
53.6166
50.177
46.8407
43.6086
40.481
37.4583
34.5402
31.7265
29.0164
26.4091
23.9035
21.4984
19.1922
16.9834
14.8703
12.8509
10.9232
9.08523
7.33469
5.66935
4.0869
2.58497
1.16112
-0.187075
-1.46211
-2.66646
-3.80263
-4.87313
-5.88044
-6.82704
-7.71541
-8.54798
-9.32716
-10.0553
-10.7348
-11.368
-11.957
-12.5041
-13.0115
-13.4813
-13.9154
-14.316
-14.6849
-15.024
-15.3351
-15.62
-15.8804
-16.1177
-16.3337
-16.5297
-16.7072
-16.8676
-17.012
-17.1417
-17.2578
-17.3614
-17.4535
-17.535
-17.6066
-17.6694
-17.7238
-17.7706
-17.8102
-17.8434
-17.8703
-17.8914
-17.907
-17.9173
-17.9224
193.547
190.423
187.013
183.348
179.455
175.363
171.097
166.68
162.136
157.485
152.749
147.946
143.093
138.206
133.301
128.391
123.491
118.613
113.767
108.963
104.21
99.5167
94.8915
90.3411
85.8718
81.4892
77.198
73.0026
68.9065
64.913
61.0245
57.2433
53.5711
50.0092
46.5584
43.2193
39.992
36.8766
33.8725
30.9791
28.1955
25.5204
22.9526
20.4904
18.1323
15.8762
13.7202
11.6621
9.69978
7.83082
6.05284
4.36335
2.75982
1.23966
-0.199731
-1.56101
-2.84683
-4.05985
-5.20276
-6.27821
-7.28884
-8.2373
-9.12618
-9.95807
-10.7355
-11.461
-12.1369
-12.7658
-13.3499
-13.8917
-14.3932
-14.8567
-15.2844
-15.6782
-16.0403
-16.3725
-16.6766
-16.9545
-17.208
-17.4385
-17.6478
-17.8374
-18.0085
-18.1627
-18.3012
-18.4252
-18.5358
-18.6341
-18.7211
-18.7976
-18.8646
-18.9227
-18.9726
-19.015
-19.0503
-19.0791
-19.1016
-19.1183
-19.1293
-19.1347
205.762
202.441
198.816
194.919
190.781
186.431
181.894
177.199
172.369
167.424
162.389
157.283
152.124
146.928
141.713
136.494
131.285
126.099
120.947
115.839
110.786
105.797
100.88
96.0425
91.2912
86.632
82.07
77.6098
73.2552
69.0096
64.8758
60.856
56.952
53.1653
49.4967
45.9468
42.516
39.2039
36.0102
32.9342
29.9749
27.131
24.4011
21.7836
19.2766
16.8781
14.586
12.3981
10.3119
8.32503
6.43484
4.63872
2.93399
1.3179
-0.212337
-1.65952
-3.02649
-4.31607
-5.53111
-6.67443
-7.74884
-8.75716
-9.70214
-10.5865
-11.413
-12.1843
-12.9029
-13.5715
-14.1925
-14.7684
-15.3015
-15.7943
-16.249
-16.6677
-17.0526
-17.4057
-17.7291
-18.0245
-18.294
-18.5391
-18.7616
-18.9631
-19.145
-19.309
-19.4562
-19.588
-19.7056
-19.8101
-19.9026
-19.9839
-20.0551
-20.1169
-20.17
-20.215
-20.2526
-20.2832
-20.3072
-20.3249
-20.3365
-20.3423
217.926
214.409
210.569
206.442
202.059
197.452
192.648
187.675
182.559
177.322
171.989
166.581
161.117
155.614
150.091
144.563
139.046
133.553
128.097
122.687
117.336
112.052
106.844
101.72
96.6881
91.7534
86.9218
82.1979
77.5859
73.0893
68.7111
64.4536
60.3188
56.3082
52.4228
48.6631
45.0294
41.5215
38.139
34.8812
31.7469
28.7349
25.8436
23.0714
20.4162
17.8759
15.4483
13.131
10.9215
8.81718
6.81524
4.91295
3.10744
1.39581
-0.224891
-1.75763
-3.20541
-4.57123
-5.85809
-7.069
-8.20693
-9.27486
-10.2757
-11.2124
-12.0877
-12.9046
-13.6657
-14.3738
-15.0315
-15.6414
-16.2061
-16.728
-17.2096
-17.653
-18.0607
-18.4347
-18.7772
-19.0901
-19.3755
-19.6351
-19.8707
-20.0841
-20.2768
-20.4505
-20.6064
-20.746
-20.8705
-20.9812
-21.0791
-21.1653
-21.2407
-21.3061
-21.3624
-21.4101
-21.4499
-21.4823
-21.5077
-21.5264
-21.5388
-21.5449
230.036
226.323
222.271
217.914
213.288
208.424
203.353
198.104
192.704
187.176
181.546
175.838
170.07
164.262
158.431
152.597
146.773
140.975
135.215
129.505
123.856
118.278
112.781
107.373
102.061
96.8522
91.7521
86.7657
81.8974
77.1509
72.5294
68.0353
63.6708
59.4373
55.3359
51.3673
47.5317
43.8289
40.2584
36.8195
33.5111
30.3317
27.2798
24.3535
21.5507
18.8693
16.3068
13.8607
11.5285
9.30715
7.19397
5.18596
3.28012
1.47337
-0.23739
-1.85531
-3.38354
-4.82525
-6.18363
-7.46183
-8.663
-9.79027
-10.8467
-11.8355
-12.7594
-13.6217
-14.4251
-15.1725
-15.8668
-16.5106
-17.1067
-17.6576
-18.1659
-18.634
-19.0643
-19.4591
-19.8206
-20.151
-20.4522
-20.7262
-20.9749
-21.2002
-21.4036
-21.5869
-21.7515
-21.8988
-22.0303
-22.1472
-22.2505
-22.3415
-22.4211
-22.4901
-22.5495
-22.5998
-22.6418
-22.676
-22.7028
-22.7226
-22.7357
-22.7422
242.09
238.182
233.917
229.333
224.464
219.346
214.008
208.484
202.801
196.984
191.059
185.051
178.981
172.869
166.733
160.592
154.464
148.362
142.3
136.291
130.346
124.476
118.691
112.999
107.409
101.927
96.5597
91.3121
86.1887
81.1935
76.3298
71.6003
67.007
62.5517
58.2354
54.0589
50.0223
46.1254
42.3679
38.7488
35.267
31.921
28.7092
25.6295
22.6799
19.858
17.1612
14.587
12.1325
9.79483
7.57092
5.4577
3.45199
1.55057
-0.249831
-1.95252
-3.56083
-5.07809
-6.50764
-7.85282
-9.11693
-10.3033
-11.4151
-12.4556
-13.428
-14.3354
-15.1809
-15.9675
-16.6982
-17.3758
-18.0031
-18.5829
-19.1178
-19.6104
-20.0633
-20.4788
-20.8592
-21.2068
-21.5238
-21.8122
-22.074
-22.3111
-22.5252
-22.718
-22.8912
-23.0463
-23.1847
-23.3076
-23.4164
-23.5121
-23.5959
-23.6686
-23.731
-23.784
-23.8282
-23.8642
-23.8924
-23.9133
-23.927
-23.9338
254.084
249.983
245.506
240.694
235.584
230.212
224.611
218.813
212.848
206.743
200.525
194.219
187.849
181.433
174.993
168.549
162.116
155.712
149.35
143.043
136.804
130.643
124.571
118.597
112.73
106.977
101.344
95.8359
90.4587
85.216
80.1114
75.1475
70.3268
65.6507
61.1206
56.7371
52.5005
48.4106
44.4669
40.6685
37.0142
33.5025
30.1315
26.8993
23.8035
20.8418
18.0115
15.3097
12.7336
10.2801
7.946
5.72808
3.62301
1.62739
-0.26221
-2.04926
-3.73725
-5.32968
-6.83005
-8.24187
-9.56861
-10.8137
-11.9806
-13.0727
-14.0933
-15.0457
-15.933
-16.7586
-17.5255
-18.2366
-18.895
-19.5035
-20.0649
-20.582
-21.0573
-21.4933
-21.8926
-22.2575
-22.5902
-22.8929
-23.1676
-23.4164
-23.6411
-23.8435
-24.0253
-24.1881
-24.3333
-24.4623
-24.5765
-24.677
-24.7649
-24.8412
-24.9067
-24.9624
-25.0088
-25.0465
-25.0761
-25.098
-25.1124
-25.1196
266.015
261.721
257.035
251.997
246.647
241.023
235.158
229.088
222.843
216.451
209.941
203.339
196.669
189.953
183.211
176.463
169.729
163.024
156.363
149.76
143.228
136.777
130.421
124.166
118.024
112
106.102
100.336
94.7064
89.2176
83.8732
78.6763
73.6291
68.7335
63.9906
59.4013
54.9658
50.6839
46.555
42.5782
38.7523
35.0757
31.5464
28.1624
24.9213
21.8205
18.8572
16.0286
13.3315
10.7628
8.31912
5.99706
3.79313
1.70381
-0.274524
-2.14549
-3.91274
-5.57994
-7.15077
-8.62889
-10.0179
-11.3215
-12.5432
-13.6866
-14.7551
-15.7522
-16.6812
-17.5456
-18.3484
-19.0929
-19.7823
-20.4193
-21.0071
-21.5485
-22.0461
-22.5026
-22.9206
-23.3026
-23.6509
-23.9678
-24.2555
-24.516
-24.7512
-24.9632
-25.1535
-25.3239
-25.4759
-25.611
-25.7306
-25.8358
-25.9278
-26.0076
-26.0763
-26.1345
-26.1831
-26.2226
-26.2536
-26.2765
-26.2916
-26.2991
277.88
273.395
268.499
263.237
257.648
251.773
245.647
239.306
232.783
226.106
219.305
212.409
205.442
198.426
191.383
184.334
177.3
170.296
163.338
156.44
149.616
142.878
136.238
129.705
123.288
116.996
110.835
104.812
98.9307
93.1971
87.6143
82.1856
76.9133
71.7993
66.8449
62.0509
57.4175
52.9446
48.6315
44.4774
40.4809
36.6402
32.9535
29.4186
26.0329
22.7938
19.6983
16.7436
13.9262
11.2429
8.69019
6.26455
3.96232
1.7798
-0.286771
-2.24119
-4.08727
-5.82884
-7.46973
-9.01378
-10.4648
-11.8265
-13.1027
-14.297
-15.4132
-16.4548
-17.4253
-18.3282
-19.1668
-19.9446
-20.6646
-21.3301
-21.9441
-22.5096
-23.0294
-23.5063
-23.943
-24.342
-24.7059
-25.0369
-25.3374
-25.6095
-25.8553
-26.0766
-26.2755
-26.4535
-26.6123
-26.7534
-26.8783
-26.9882
-27.0843
-27.1677
-27.2394
-27.3002
-27.351
-27.3923
-27.4247
-27.4486
-27.4643
-27.4722
289.677
285.001
279.898
274.412
268.586
262.462
256.076
249.466
242.665
235.704
228.615
221.427
214.163
206.849
199.508
192.16
184.827
177.525
170.272
163.081
155.968
148.944
142.022
135.211
128.522
121.963
115.54
109.261
103.131
97.1536
91.3338
85.6746
80.1785
74.8474
69.6827
64.6851
59.855
55.1922
50.6961
46.3656
42.1994
38.1957
34.3525
30.6675
27.1381
23.7614
20.5346
17.4544
14.5174
11.7202
9.05911
6.5305
4.13053
1.85536
-0.298947
-2.33633
-4.26078
-6.07629
-7.78685
-9.39644
-10.909
-12.3286
-13.6589
-14.904
-16.0676
-17.1533
-18.165
-19.1063
-19.9805
-20.7913
-21.5419
-22.2357
-22.8757
-23.4652
-24.0071
-24.5042
-24.9595
-25.3754
-25.7547
-26.0998
-26.4131
-26.6967
-26.9529
-27.1837
-27.3909
-27.5765
-27.742
-27.8892
-28.0193
-28.1339
-28.2341
-28.3211
-28.3958
-28.4592
-28.5121
-28.5552
-28.5889
-28.6139
-28.6303
-28.6384
301.402
296.538
291.228
285.52
279.458
273.086
266.441
259.563
252.488
245.245
237.869
230.389
222.832
215.222
207.583
199.938
192.308
184.711
177.164
169.682
162.281
154.973
147.77
140.684
133.724
126.9
120.217
113.684
107.305
101.086
95.0308
89.1425
83.4239
77.8771
72.5033
67.3034
62.2778
57.4263
52.7482
48.2424
43.9075
39.7418
35.743
31.9088
28.2365
24.7232
21.3658
18.1609
15.105
12.1946
9.4258
6.79483
4.29773
1.93046
-0.311049
-2.43091
-4.43325
-6.32225
-8.10204
-9.77679
-11.3506
-12.8276
-14.2118
-15.5073
-16.7179
-17.8477
-18.9003
-19.8796
-20.7893
-21.6329
-22.4139
-23.1357
-23.8017
-24.415
-24.9788
-25.4961
-25.9698
-26.4026
-26.7972
-27.1563
-27.4822
-27.7773
-28.0439
-28.284
-28.4996
-28.6927
-28.865
-29.0181
-29.1535
-29.2727
-29.3769
-29.4674
-29.5452
-29.6112
-29.6662
-29.711
-29.7461
-29.7721
-29.7892
-29.7977
313.054
308.001
302.485
296.557
290.261
283.642
276.741
269.597
262.248
254.725
247.064
239.295
231.446
223.542
215.607
207.667
199.742
191.851
184.012
176.242
168.554
160.964
153.483
146.123
138.894
131.805
124.864
118.078
111.453
104.994
98.7043
92.5884
86.6488
80.8875
75.306
69.9051
64.6853
59.6462
54.7872
50.1072
45.6048
41.278
37.1247
33.1423
29.328
25.6789
22.1917
18.8629
15.6889
12.666
9.79016
7.05749
4.46386
2.00508
-0.323075
-2.52488
-4.60463
-6.56664
-8.41524
-10.1547
-11.7894
-13.3235
-14.7612
-16.1067
-17.3642
-18.5376
-19.6309
-20.6481
-21.5929
-22.4691
-23.2803
-24.0301
-24.7218
-25.3588
-25.9444
-26.4817
-26.9736
-27.4232
-27.8331
-28.206
-28.5445
-28.8511
-29.128
-29.3773
-29.6013
-29.8019
-29.9808
-30.1398
-30.2804
-30.4043
-30.5125
-30.6065
-30.6873
-30.7558
-30.813
-30.8595
-30.896
-30.923
-30.9407
-30.9495
324.627
319.388
313.669
307.521
300.992
294.129
286.972
279.564
271.943
264.143
256.198
248.142
240.003
231.806
223.579
215.345
207.126
198.944
190.815
182.757
174.786
166.915
159.157
151.525
144.029
136.678
129.481
122.444
115.574
108.875
102.354
96.0115
89.8523
83.878
78.0901
72.4896
67.0767
61.8513
56.8127
51.9597
47.2909
42.8041
38.4972
34.3676
30.4123
26.6283
23.0121
19.5603
16.2689
13.1342
10.1521
7.31841
4.62889
2.07921
-0.335021
-2.61822
-4.77486
-6.80942
-8.72636
-10.5301
-12.2252
-13.816
-15.3069
-16.7022
-18.0061
-19.2229
-20.3567
-21.4115
-22.3912
-23.2998
-24.141
-24.9185
-25.6358
-26.2964
-26.9036
-27.4607
-27.9709
-28.437
-28.8621
-29.2488
-29.5999
-29.9177
-30.2048
-30.4634
-30.6957
-30.9037
-31.0892
-31.2541
-31.3999
-31.5283
-31.6406
-31.7381
-31.8218
-31.8929
-31.9522
-32.0004
-32.0383
-32.0662
-32.0846
-32.0938
336.121
330.696
324.774
318.409
311.649
304.543
297.133
289.462
281.572
273.495
265.269
256.928
248.5
240.014
231.495
222.969
214.46
205.988
197.571
189.228
180.974
172.824
164.792
156.89
149.128
141.517
134.065
126.779
119.666
112.73
105.977
99.4109
93.0336
86.8477
80.8549
75.0561
69.4516
64.0412
58.8242
53.7994
48.9652
44.3196
39.8602
35.5844
31.4891
27.5711
23.8269
20.2528
16.845
13.5993
10.5116
7.57753
4.79277
2.15282
-0.346885
-2.71093
-4.94392
-7.05051
-9.03532
-10.903
-12.6581
-14.3052
-15.8489
-17.2936
-18.6437
-19.9035
-21.0775
-22.1696
-23.184
-24.1248
-24.9957
-25.8007
-26.5434
-27.2274
-27.8562
-28.433
-28.9612
-29.4439
-29.884
-30.2844
-30.6479
-30.977
-31.2743
-31.542
-31.7825
-31.9978
-32.1899
-32.3606
-32.5117
-32.6446
-32.7609
-32.8618
-32.9485
-33.0221
-33.0835
-33.1334
-33.1726
-33.2015
-33.2206
-33.2301
347.532
341.922
335.8
329.218
322.229
314.881
307.22
299.289
291.131
282.78
274.275
265.65
256.937
248.162
239.354
230.539
221.741
212.981
204.279
195.652
187.118
178.691
170.386
162.216
154.191
146.321
138.616
131.083
123.728
116.557
109.575
102.786
96.1919
89.7961
83.5998
77.6042
71.8094
66.2153
60.8212
55.6258
50.6275
45.8242
41.2134
36.7924
32.5581
28.5071
24.6358
20.9404
17.4168
14.0609
10.8684
7.83477
4.95548
2.2259
-0.358663
-2.80296
-5.11176
-7.28987
-9.34206
-11.2731
-13.0878
-14.7909
-16.3869
-17.8807
-19.2766
-20.5792
-21.793
-22.9222
-23.9711
-24.9438
-25.8443
-26.6766
-27.4445
-28.1517
-28.8018
-29.3983
-29.9444
-30.4434
-30.8985
-31.3125
-31.6883
-32.0286
-32.336
-32.6128
-32.8615
-33.0841
-33.2827
-33.4592
-33.6154
-33.7528
-33.873
-33.9774
-34.067
-34.1431
-34.2066
-34.2582
-34.2988
-34.3287
-34.3484
-34.3582
358.857
353.065
346.743
339.947
332.729
325.142
317.231
309.042
300.618
291.995
283.213
274.307
265.309
256.249
247.153
238.051
228.966
219.921
210.935
202.028
193.216
184.514
175.939
167.502
159.216
151.09
143.133
135.355
127.76
120.356
113.146
106.135
99.3265
92.7223
86.3241
80.133
74.1494
68.3731
62.8032
57.4385
52.2773
47.3175
42.5564
37.9914
33.6191
29.4361
25.4386
21.6228
17.9844
14.5191
11.2226
8.09008
5.11696
2.29844
-0.370353
-2.8943
-5.27834
-7.52742
-9.64649
-11.6405
-13.5143
-15.2728
-16.9209
-18.4633
-19.9048
-21.2499
-22.5032
-23.6692
-24.7522
-25.7566
-26.6865
-27.5459
-28.3389
-29.0691
-29.7404
-30.3563
-30.9202
-31.4355
-31.9054
-32.3329
-32.7209
-33.0723
-33.3897
-33.6756
-33.9323
-34.1622
-34.3673
-34.5496
-34.7108
-34.8527
-34.9769
-35.0846
-35.1772
-35.2558
-35.3213
-35.3746
-35.4164
-35.4473
-35.4677
-35.4778
370.093
364.12
357.6
350.591
343.148
335.323
327.164
318.719
310.031
301.138
292.081
282.896
273.617
264.272
254.892
245.505
236.136
226.807
217.54
208.354
199.266
190.292
181.448
172.747
164.201
155.821
147.615
139.593
131.76
124.124
116.689
109.458
102.437
95.6256
89.0271
82.6422
76.4712
70.514
64.7697
59.237
53.9142
48.7991
43.889
39.181
34.6717
30.3577
26.2351
22.2998
18.5475
14.9738
11.574
8.34339
5.27718
2.3704
-0.381951
-2.98493
-5.44362
-7.76312
-9.94854
-12.005
-13.9375
-15.7511
-17.4508
-19.0415
-20.528
-21.9152
-23.2078
-24.4103
-25.5273
-26.5631
-27.5221
-28.4084
-29.2262
-29.9793
-30.6716
-31.3068
-31.8884
-32.4198
-32.9044
-33.3453
-33.7455
-34.1079
-34.4352
-34.73
-34.9948
-35.2319
-35.4434
-35.6314
-35.7977
-35.944
-36.0721
-36.1832
-36.2787
-36.3597
-36.4273
-36.4823
-36.5254
-36.5573
-36.5782
-36.5887
381.239
375.085
368.369
361.149
353.482
345.421
337.017
328.317
319.367
310.206
300.876
291.416
281.857
272.231
262.568
252.898
243.247
233.638
224.091
214.628
205.266
196.022
186.912
177.949
169.146
160.513
152.061
143.797
135.728
127.862
120.203
112.755
105.521
98.5053
91.7081
85.1309
78.7741
72.6375
66.7202
61.0209
55.5378
50.2686
45.2107
40.3609
35.7159
31.272
27.0252
22.9713
19.106
15.4247
11.9225
8.59465
5.4361
2.44178
-0.393455
-3.07482
-5.60755
-7.99691
-10.2481
-12.3665
-14.3572
-16.2254
-17.9763
-19.6149
-21.1462
-22.5752
-23.9067
-25.1454
-26.296
-27.363
-28.3509
-29.2639
-30.1063
-30.8821
-31.5953
-32.2496
-32.8487
-33.3961
-33.8953
-34.3495
-34.7617
-35.135
-35.4722
-35.7759
-36.0487
-36.2929
-36.5108
-36.7044
-36.8757
-37.0265
-37.1583
-37.2728
-37.3712
-37.4546
-37.5243
-37.5809
-37.6253
-37.6582
-37.6798
-37.6905
392.29
385.958
379.047
371.618
363.728
355.434
346.786
337.834
328.625
319.198
309.598
299.863
290.027
280.122
270.179
260.229
250.298
240.41
230.587
220.85
211.216
201.705
192.33
183.107
174.049
165.166
156.468
147.965
139.663
131.568
123.687
116.023
108.58
101.361
94.3665
87.5986
81.0575
74.743
68.6542
62.7897
57.1477
51.7258
46.5212
41.5308
36.7512
32.1784
27.8086
23.6372
19.6599
15.8718
12.2681
8.84378
5.59368
2.51256
-0.404862
-3.16395
-5.7701
-8.22872
-10.5452
-12.725
-14.7734
-16.6957
-18.4974
-20.1835
-21.7592
-23.2296
-24.5997
-25.8743
-27.0583
-28.1562
-29.1727
-30.1122
-30.979
-31.7773
-32.5111
-33.1844
-33.8009
-34.3642
-34.8778
-35.3452
-35.7694
-36.1535
-36.5004
-36.813
-37.0936
-37.3449
-37.5691
-37.7684
-37.9446
-38.0998
-38.2355
-38.3532
-38.4545
-38.5403
-38.612
-38.6703
-38.716
-38.7498
-38.772
-38.7831
403.244
396.735
389.631
381.995
373.885
365.359
356.47
347.268
337.801
328.112
318.243
308.236
298.126
287.944
277.724
267.496
257.287
247.123
237.026
227.017
217.114
207.337
197.701
188.22
178.909
169.778
160.838
152.097
143.563
135.242
127.141
119.263
111.612
104.191
97.0015
90.0447
83.321
76.8302
70.5713
64.5431
58.7435
53.1702
47.8203
42.6905
37.7774
33.077
28.5851
24.2973
20.2089
16.315
12.6107
9.09073
5.74987
2.58272
-0.416169
-3.25231
-5.93123
-8.4585
-10.8397
-13.0803
-15.1859
-17.162
-19.0139
-20.7471
-22.3668
-23.8783
-25.2866
-26.5968
-27.8138
-28.9425
-29.9874
-30.9531
-31.8441
-32.6647
-33.419
-34.111
-34.7447
-35.3238
-35.8518
-36.3321
-36.7682
-37.163
-37.5197
-37.8409
-38.1294
-38.3878
-38.6182
-38.823
-39.0042
-39.1637
-39.3032
-39.4242
-39.5283
-39.6165
-39.6902
-39.7501
-39.7971
-39.8318
-39.8547
-39.866
414.099
407.415
400.12
392.277
383.949
375.194
366.065
356.616
346.894
336.944
326.81
316.534
306.151
295.695
285.2
274.696
264.213
253.776
243.407
233.128
222.959
212.918
203.023
193.287
183.725
174.348
165.167
156.191
147.427
138.883
130.563
122.474
114.617
106.996
99.6127
92.4686
85.5639
78.8983
72.471
66.2805
60.3248
54.6014
49.1075
43.8397
38.7943
33.9674
29.3546
24.9513
20.7528
16.7542
12.9501
9.33544
5.90465
2.65224
-0.427373
-3.33985
-6.09089
-8.68619
-11.1315
-13.4324
-15.5947
-17.6239
-19.5257
-21.3056
-22.9689
-24.521