/*--------------------------------*- C++ -*----------------------------------*\
| =========                 |                                                 |
| \\      /  F ield         | OpenFOAM: The Open Source CFD Toolbox           |
|  \\    /   O peration     | Version:  2406                                  |
|   \\  /    A nd           | Website:  www.openfoam.com                      |
|    \\/     M anipulation  |                                                 |
\*---------------------------------------------------------------------------*/
FoamFile
{
    version     2.0;
    format      ascii;
    arch        "LSB;label=32;scalar=64";
    class       volScalarField;
    location    "170";
    object      T;
}
// * * * * * * * * * * * * * * * * * * * * * * * * * * * * * * * * * * * * * //

dimensions      [0 0 0 1 0 0 0];

internalField   nonuniform List<scalar> 
20000
(
299.382
299.413
299.444
299.474
299.503
299.532
299.561
299.588
299.615
299.641
299.666
299.691
299.714
299.737
299.759
299.781
299.801
299.821
299.84
299.858
299.875
299.892
299.908
299.923
299.937
299.951
299.964
299.976
299.988
299.998
300.009
300.018
300.027
300.036
300.044
300.051
300.058
300.064
300.07
300.075
300.08
300.084
300.088
300.092
300.095
300.098
300.1
300.102
300.104
300.105
300.106
300.107
300.108
300.108
300.108
300.108
300.108
300.107
300.106
300.105
300.104
300.103
300.102
300.1
300.098
300.096
300.095
300.093
300.09
300.088
300.086
300.084
300.081
300.079
300.076
300.073
300.071
300.068
300.065
300.062
300.059
300.057
300.054
300.051
300.048
300.045
300.042
300.039
300.036
300.033
300.029
300.026
300.023
300.02
300.017
300.014
300.011
300.008
300.005
300.002
298.145
298.239
298.331
298.422
298.51
298.597
298.682
298.764
298.845
298.923
298.998
299.072
299.143
299.212
299.278
299.342
299.404
299.463
299.519
299.574
299.626
299.676
299.723
299.768
299.812
299.852
299.891
299.928
299.963
299.995
300.026
300.055
300.082
300.107
300.131
300.153
300.173
300.192
300.209
300.225
300.239
300.252
300.264
300.275
300.284
300.293
300.3
300.306
300.311
300.315
300.319
300.321
300.323
300.324
300.324
300.324
300.323
300.321
300.319
300.316
300.313
300.309
300.305
300.3
300.295
300.289
300.284
300.278
300.271
300.265
300.258
300.251
300.243
300.236
300.228
300.22
300.212
300.204
300.195
300.187
300.178
300.17
300.161
300.152
300.143
300.134
300.125
300.116
300.107
300.098
300.088
300.079
300.07
300.061
300.051
300.042
300.033
300.023
300.014
300.005
296.909
297.065
297.219
297.37
297.518
297.662
297.803
297.941
298.075
298.205
298.331
298.453
298.572
298.686
298.797
298.904
299.006
299.105
299.199
299.29
299.377
299.46
299.539
299.614
299.686
299.754
299.819
299.88
299.938
299.992
300.043
300.091
300.136
300.179
300.218
300.254
300.288
300.32
300.348
300.375
300.399
300.421
300.44
300.458
300.474
300.488
300.5
300.51
300.519
300.526
300.531
300.536
300.538
300.54
300.54
300.54
300.538
300.535
300.531
300.527
300.521
300.515
300.508
300.5
300.491
300.482
300.473
300.463
300.452
300.441
300.429
300.417
300.405
300.393
300.38
300.366
300.353
300.339
300.325
300.311
300.297
300.282
300.268
300.253
300.238
300.223
300.208
300.193
300.178
300.163
300.147
300.132
300.117
300.101
300.086
300.07
300.055
300.039
300.023
300.008
295.673
295.892
296.107
296.319
296.525
296.728
296.925
297.118
297.305
297.487
297.664
297.835
298.001
298.162
298.316
298.465
298.609
298.747
298.879
299.006
299.128
299.244
299.354
299.46
299.56
299.656
299.746
299.832
299.913
299.989
300.061
300.128
300.191
300.25
300.305
300.356
300.403
300.447
300.488
300.524
300.558
300.589
300.616
300.641
300.663
300.682
300.699
300.714
300.726
300.736
300.744
300.75
300.754
300.756
300.756
300.755
300.753
300.749
300.744
300.737
300.729
300.72
300.711
300.7
300.688
300.675
300.662
300.648
300.633
300.617
300.601
300.584
300.567
300.549
300.531
300.513
300.494
300.475
300.455
300.436
300.416
300.395
300.375
300.354
300.334
300.313
300.292
300.27
300.249
300.228
300.206
300.185
300.163
300.141
300.12
300.098
300.076
300.055
300.033
300.011
294.439
294.72
294.997
295.268
295.534
295.794
296.048
296.295
296.536
296.77
296.998
297.218
297.431
297.637
297.836
298.028
298.212
298.389
298.56
298.723
298.879
299.028
299.17
299.306
299.435
299.558
299.674
299.784
299.888
299.986
300.078
300.164
300.245
300.321
300.392
300.458
300.519
300.575
300.627
300.674
300.717
300.757
300.792
300.824
300.852
300.877
300.899
300.917
300.933
300.946
300.956
300.963
300.969
300.971
300.972
300.971
300.968
300.963
300.956
300.947
300.937
300.926
300.913
300.899
300.884
300.868
300.85
300.832
300.813
300.793
300.772
300.751
300.729
300.706
300.683
300.659
300.635
300.61
300.585
300.56
300.534
300.508
300.482
300.455
300.429
300.402
300.375
300.348
300.32
300.293
300.265
300.237
300.21
300.182
300.154
300.126
300.098
300.07
300.042
300.014
293.206
293.55
293.888
294.219
294.544
294.862
295.172
295.474
295.768
296.054
296.332
296.601
296.861
297.113
297.356
297.59
297.816
298.032
298.24
298.439
298.63
298.812
298.986
299.152
299.31
299.459
299.601
299.736
299.863
299.982
300.095
300.201
300.3
300.393
300.479
300.559
300.634
300.702
300.766
300.824
300.876
300.924
300.968
301.007
301.041
301.072
301.098
301.121
301.14
301.155
301.168
301.177
301.183
301.187
301.188
301.186
301.182
301.176
301.168
301.157
301.145
301.131
301.116
301.099
301.08
301.06
301.039
301.017
300.993
300.969
300.944
300.917
300.89
300.863
300.834
300.805
300.776
300.746
300.715
300.684
300.653
300.621
300.589
300.556
300.524
300.491
300.458
300.425
300.391
300.358
300.324
300.29
300.256
300.222
300.188
300.154
300.12
300.086
300.051
300.017
291.975
292.381
292.78
293.172
293.555
293.93
294.297
294.654
295.001
295.339
295.667
295.985
296.293
296.59
296.877
297.154
297.42
297.676
297.921
298.157
298.382
298.597
298.803
298.998
299.185
299.361
299.529
299.688
299.838
299.979
300.112
300.237
300.354
300.464
300.566
300.661
300.748
300.83
300.904
300.973
301.035
301.092
301.143
301.189
301.23
301.266
301.297
301.324
301.346
301.365
301.379
301.39
301.398
301.402
301.403
301.401
301.396
301.389
301.379
301.367
301.353
301.336
301.318
301.298
301.276
301.252
301.227
301.201
301.173
301.145
301.115
301.084
301.052
301.019
300.986
300.951
300.916
300.881
300.845
300.808
300.771
300.733
300.696
300.657
300.619
300.58
300.541
300.502
300.462
300.422
300.383
300.343
300.303
300.262
300.222
300.182
300.142
300.101
300.061
300.02
290.746
291.214
291.674
292.126
292.568
293
293.423
293.835
294.236
294.625
295.003
295.37
295.725
296.068
296.399
296.717
297.024
297.32
297.603
297.874
298.134
298.382
298.619
298.845
299.06
299.264
299.457
299.64
299.813
299.976
300.129
300.274
300.409
300.535
300.652
300.762
300.863
300.957
301.043
301.122
301.194
301.259
301.318
301.371
301.418
301.46
301.496
301.527
301.552
301.574
301.591
301.603
301.612
301.617
301.618
301.616
301.61
301.602
301.591
301.577
301.56
301.541
301.52
301.497
301.471
301.444
301.415
301.385
301.353
301.32
301.285
301.25
301.213
301.175
301.137
301.097
301.057
301.016
300.974
300.932
300.889
300.846
300.802
300.758
300.714
300.669
300.624
300.578
300.533
300.487
300.441
300.395
300.349
300.303
300.256
300.21
300.163
300.117
300.07
300.023
289.519
290.049
290.57
291.081
291.582
292.072
292.551
293.017
293.471
293.913
294.341
294.756
295.158
295.546
295.921
296.282
296.63
296.964
297.285
297.592
297.887
298.168
298.436
298.692
298.935
299.166
299.385
299.592
299.788
299.973
300.147
300.31
300.463
300.606
300.739
300.863
300.977
301.084
301.181
301.271
301.352
301.426
301.493
301.553
301.606
301.653
301.694
301.729
301.758
301.782
301.802
301.816
301.826
301.831
301.833
301.83
301.824
301.814
301.801
301.786
301.767
301.745
301.721
301.695
301.666
301.636
301.603
301.569
301.533
301.495
301.456
301.415
301.374
301.331
301.287
301.242
301.197
301.15
301.103
301.055
301.007
300.958
300.908
300.858
300.808
300.757
300.706
300.655
300.603
300.552
300.5
300.447
300.395
300.343
300.29
300.238
300.185
300.132
300.079
300.026
288.294
288.886
289.468
290.04
290.599
291.146
291.681
292.202
292.709
293.201
293.68
294.143
294.592
295.026
295.444
295.848
296.236
296.61
296.968
297.311
297.64
297.954
298.253
298.539
298.811
299.069
299.313
299.545
299.763
299.97
300.164
300.346
300.517
300.676
300.825
300.963
301.092
301.21
301.319
301.419
301.51
301.593
301.668
301.734
301.794
301.846
301.892
301.931
301.964
301.991
302.012
302.028
302.039
302.045
302.047
302.044
302.037
302.026
302.012
301.994
301.973
301.949
301.922
301.893
301.861
301.827
301.79
301.752
301.712
301.67
301.626
301.581
301.534
301.487
301.438
301.388
301.337
301.285
301.232
301.179
301.125
301.07
301.015
300.959
300.903
300.846
300.789
300.732
300.674
300.616
300.558
300.5
300.441
300.383
300.324
300.265
300.206
300.147
300.089
300.03
287.073
287.727
288.369
289
289.618
290.222
290.812
291.388
291.948
292.492
293.02
293.532
294.028
294.507
294.969
295.415
295.844
296.256
296.651
297.031
297.393
297.74
298.071
298.387
298.687
298.971
299.242
299.497
299.739
299.966
300.181
300.382
300.571
300.747
300.911
301.064
301.206
301.336
301.457
301.567
301.668
301.759
301.842
301.915
301.981
302.039
302.089
302.132
302.169
302.198
302.222
302.24
302.252
302.258
302.26
302.257
302.25
302.238
302.222
302.202
302.179
302.153
302.123
302.09
302.055
302.017
301.977
301.935
301.89
301.844
301.796
301.746
301.694
301.642
301.588
301.532
301.476
301.419
301.361
301.302
301.242
301.181
301.12
301.059
300.997
300.934
300.871
300.808
300.744
300.68
300.616
300.552
300.487
300.423
300.358
300.293
300.228
300.163
300.098
300.033
285.854
286.57
287.273
287.964
288.64
289.301
289.947
290.576
291.189
291.784
292.362
292.923
293.465
293.989
294.495
294.983
295.452
295.903
296.336
296.751
297.148
297.527
297.889
298.234
298.563
298.874
299.17
299.45
299.714
299.963
300.198
300.418
300.624
300.817
300.997
301.164
301.319
301.462
301.594
301.715
301.825
301.925
302.015
302.096
302.168
302.231
302.286
302.333
302.373
302.406
302.431
302.451
302.464
302.471
302.473
302.47
302.462
302.449
302.431
302.41
302.384
302.355
302.323
302.287
302.249
302.207
302.163
302.117
302.068
302.018
301.965
301.91
301.854
301.796
301.737
301.677
301.615
301.553
301.489
301.424
301.359
301.293
301.226
301.159
301.091
301.022
300.953
300.884
300.814
300.745
300.674
300.604
300.533
300.463
300.392
300.321
300.249
300.178
300.107
300.036
284.639
285.416
286.18
286.93
287.664
288.382
289.083
289.767
290.432
291.079
291.707
292.315
292.904
293.473
294.022
294.552
295.061
295.551
296.021
296.472
296.903
297.315
297.708
298.083
298.439
298.778
299.099
299.403
299.69
299.96
300.215
300.454
300.678
300.888
301.083
301.264
301.433
301.588
301.731
301.862
301.982
302.09
302.188
302.276
302.354
302.423
302.482
302.534
302.577
302.612
302.64
302.661
302.676
302.684
302.686
302.682
302.673
302.659
302.64
302.617
302.589
302.558
302.523
302.484
302.442
302.397
302.349
302.299
302.246
302.191
302.134
302.074
302.013
301.951
301.886
301.821
301.754
301.686
301.617
301.547
301.476
301.404
301.331
301.258
301.184
301.11
301.035
300.96
300.884
300.808
300.732
300.656
300.579
300.502
300.425
300.348
300.271
300.194
300.116
300.039
283.428
284.267
285.091
285.899
286.691
287.466
288.222
288.96
289.678
290.375
291.053
291.709
292.344
292.958
293.551
294.122
294.672
295.2
295.707
296.193
296.659
297.103
297.528
297.932
298.316
298.681
299.028
299.355
299.665
299.957
300.232
300.49
300.732
300.957
301.168
301.364
301.545
301.713
301.867
302.009
302.138
302.255
302.361
302.455
302.54
302.614
302.678
302.733
302.78
302.818
302.848
302.871
302.886
302.895
302.897
302.893
302.884
302.869
302.848
302.823
302.793
302.759
302.721
302.68
302.635
302.586
302.534
302.48
302.423
302.364
302.302
302.238
302.172
302.104
302.035
301.964
301.892
301.819
301.744
301.669
301.592
301.514
301.436
301.357
301.278
301.197
301.117
301.036
300.954
300.872
300.79
300.708
300.625
300.542
300.459
300.376
300.292
300.209
300.125
300.042
282.221
283.121
284.005
284.872
285.722
286.553
287.365
288.156
288.926
289.674
290.401
291.105
291.787
292.445
293.081
293.694
294.284
294.851
295.395
295.916
296.415
296.892
297.347
297.781
298.194
298.585
298.957
299.308
299.641
299.954
300.249
300.525
300.785
301.027
301.253
301.463
301.658
301.838
302.003
302.155
302.294
302.419
302.533
302.634
302.725
302.804
302.873
302.933
302.982
303.023
303.056
303.08
303.097
303.106
303.108
303.104
303.094
303.077
303.056
303.029
302.997
302.96
302.92
302.875
302.826
302.774
302.719
302.661
302.6
302.536
302.469
302.401
302.33
302.258
302.183
302.107
302.03
301.951
301.871
301.79
301.708
301.625
301.541
301.456
301.371
301.285
301.198
301.111
301.024
300.936
300.848
300.759
300.67
300.581
300.492
300.403
300.313
300.224
300.134
300.045
281.019
281.979
282.923
283.849
284.756
285.644
286.51
287.355
288.177
288.976
289.752
290.503
291.231
291.934
292.613
293.267
293.897
294.502
295.083
295.64
296.173
296.682
297.168
297.631
298.071
298.49
298.886
299.262
299.616
299.951
300.265
300.561
300.838
301.097
301.338
301.562
301.77
301.962
302.139
302.301
302.449
302.583
302.704
302.812
302.909
302.994
303.068
303.131
303.184
303.228
303.263
303.288
303.306
303.316
303.319
303.314
303.303
303.286
303.262
303.234
303.2
303.161
303.117
303.069
303.018
302.962
302.903
302.841
302.775
302.707
302.636
302.563
302.488
302.41
302.331
302.25
302.167
302.083
301.998
301.911
301.823
301.735
301.645
301.555
301.463
301.372
301.279
301.186
301.093
300.999
300.905
300.81
300.716
300.621
300.525
300.43
300.335
300.239
300.144
300.048
279.821
280.842
281.845
282.83
283.794
284.738
285.659
286.557
287.431
288.28
289.105
289.904
290.678
291.425
292.147
292.842
293.512
294.155
294.773
295.365
295.931
296.473
296.989
297.481
297.95
298.394
298.816
299.215
299.592
299.948
300.282
300.596
300.891
301.166
301.422
301.661
301.882
302.086
302.274
302.446
302.603
302.746
302.875
302.99
303.092
303.183
303.261
303.329
303.385
303.432
303.468
303.496
303.515
303.525
303.528
303.523
303.511
303.493
303.468
303.438
303.401
303.36
303.314
303.263
303.208
303.149
303.086
303.02
302.951
302.878
302.803
302.725
302.645
302.563
302.478
302.392
302.304
302.215
302.124
302.032
301.939
301.844
301.749
301.653
301.556
301.458
301.36
301.261
301.162
301.062
300.962
300.862
300.761
300.66
300.559
300.457
300.356
300.254
300.153
300.051
278.628
279.709
280.772
281.815
282.836
283.835
284.811
285.762
286.688
287.587
288.461
289.307
290.127
290.918
291.683
292.419
293.128
293.81
294.464
295.091
295.691
296.264
296.811
297.333
297.828
298.299
298.746
299.169
299.568
299.945
300.299
300.632
300.943
301.235
301.507
301.759
301.993
302.209
302.408
302.591
302.757
302.908
303.045
303.167
303.275
303.371
303.454
303.525
303.585
303.635
303.673
303.703
303.723
303.734
303.737
303.731
303.719
303.699
303.673
303.641
303.603
303.559
303.51
303.456
303.398
303.335
303.269
303.199
303.125
303.048
302.969
302.886
302.801
302.714
302.625
302.533
302.44
302.346
302.249
302.152
302.053
301.953
301.852
301.75
301.648
301.544
301.44
301.336
301.23
301.125
301.019
300.912
300.806
300.699
300.592
300.484
300.377
300.269
300.162
300.054
277.44
278.581
279.703
280.804
281.882
282.937
283.967
284.971
285.948
286.898
287.82
288.713
289.578
290.414
291.221
291.998
292.747
293.466
294.156
294.818
295.451
296.057
296.634
297.184
297.708
298.205
298.676
299.122
299.544
299.941
300.316
300.667
300.996
301.303
301.59
301.857
302.104
302.332
302.542
302.735
302.91
303.07
303.214
303.343
303.457
303.558
303.646
303.721
303.785
303.836
303.878
303.908
303.929
303.941
303.944
303.939
303.926
303.905
303.877
303.843
303.803
303.757
303.705
303.648
303.587
303.52
303.45
303.376
303.299
303.218
303.133
303.047
302.957
302.865
302.771
302.674
302.576
302.476
302.374
302.271
302.167
302.062
301.955
301.848
301.739
301.63
301.52
301.41
301.299
301.187
301.075
300.963
300.851
300.738
300.625
300.511
300.398
300.284
300.171
300.057
276.258
277.459
278.64
279.798
280.933
282.043
283.127
284.183
285.211
286.211
287.181
288.122
289.032
289.911
290.761
291.579
292.366
293.123
293.85
294.546
295.213
295.85
296.458
297.037
297.588
298.111
298.607
299.077
299.52
299.938
300.332
300.702
301.048
301.372
301.674
301.954
302.214
302.454
302.675
302.878
303.063
303.231
303.382
303.518
303.638
303.745
303.837
303.916
303.983
304.038
304.081
304.113
304.135
304.148
304.151
304.145
304.131
304.11
304.081
304.045
304.002
303.953
303.899
303.839
303.774
303.705
303.631
303.553
303.471
303.386
303.298
303.206
303.112
303.015
302.916
302.814
302.711
302.606
302.499
302.39
302.281
302.17
302.058
301.945
301.83
301.716
301.6
301.484
301.367
301.25
301.132
301.014
300.895
300.776
300.657
300.538
300.419
300.299
300.179
300.06
275.082
276.342
277.582
278.798
279.989
281.153
282.291
283.399
284.479
285.528
286.546
287.533
288.488
289.412
290.303
291.162
291.988
292.783
293.545
294.276
294.976
295.644
296.282
296.89
297.468
298.017
298.538
299.031
299.496
299.935
300.348
300.736
301.1
301.44
301.756
302.051
302.324
302.576
302.808
303.021
303.215
303.391
303.55
303.692
303.819
303.93
304.027
304.11
304.18
304.238
304.283
304.317
304.34
304.353
304.357
304.351
304.336
304.313
304.283
304.245
304.2
304.149
304.092
304.029
303.961
303.889
303.811
303.729
303.643
303.554
303.461
303.365
303.266
303.164
303.06
302.954
302.845
302.735
302.623
302.509
302.394
302.277
302.16
302.041
301.921
301.801
301.679
301.557
301.435
301.311
301.188
301.064
300.939
300.815
300.69
300.565
300.439
300.314
300.188
300.063
273.912
275.232
276.529
277.802
279.049
280.268
281.459
282.62
283.75
284.848
285.914
286.948
287.948
288.914
289.847
290.747
291.612
292.444
293.242
294.007
294.74
295.44
296.108
296.744
297.349
297.924
298.469
298.985
299.473
299.932
300.365
300.771
301.152
301.507
301.839
302.147
302.433
302.697
302.94
303.162
303.366
303.55
303.716
303.865
303.998
304.115
304.216
304.303
304.376
304.437
304.484
304.52
304.544
304.558
304.561
304.555
304.54
304.516
304.484
304.444
304.398
304.344
304.284
304.219
304.147
304.071
303.99
303.904
303.814
303.721
303.624
303.523
303.419
303.313
303.204
303.092
302.979
302.863
302.746
302.627
302.506
302.384
302.261
302.137
302.011
301.885
301.758
301.63
301.502
301.373
301.244
301.114
300.984
300.853
300.722
300.591
300.46
300.329
300.197
300.066
272.748
274.127
275.482
276.812
278.114
279.388
280.632
281.845
283.025
284.173
285.286
286.366
287.41
288.42
289.395
290.334
291.238
292.107
292.941
293.74
294.505
295.236
295.934
296.599
297.231
297.832
298.401
298.94
299.449
299.929
300.381
300.805
301.203
301.575
301.921
302.243
302.541
302.817
303.071
303.304
303.516
303.708
303.882
304.038
304.176
304.298
304.404
304.495
304.572
304.634
304.684
304.721
304.747
304.761
304.765
304.758
304.742
304.717
304.684
304.643
304.594
304.538
304.475
304.407
304.332
304.253
304.168
304.078
303.985
303.887
303.785
303.68
303.572
303.461
303.347
303.23
303.112
302.991
302.868
302.744
302.618
302.491
302.362
302.232
302.101
301.969
301.837
301.703
301.569
301.434
301.299
301.163
301.027
300.891
300.754
300.618
300.481
300.343
300.206
300.069
271.591
273.028
274.441
275.827
277.185
278.513
279.81
281.074
282.305
283.501
284.662
285.787
286.876
287.928
288.944
289.923
290.866
291.772
292.641
293.474
294.272
295.034
295.761
296.454
297.114
297.74
298.333
298.895
299.426
299.926
300.397
300.84
301.254
301.641
302.003
302.338
302.649
302.937
303.201
303.444
303.665
303.866
304.047
304.209
304.354
304.481
304.591
304.686
304.766
304.831
304.883
304.922
304.948
304.963
304.967
304.96
304.943
304.917
304.883
304.84
304.789
304.731
304.665
304.594
304.516
304.433
304.345
304.252
304.154
304.052
303.946
303.836
303.724
303.608
303.489
303.368
303.244
303.118
302.99
302.86
302.729
302.596
302.462
302.327
302.19
302.053
301.915
301.775
301.636
301.495
301.354
301.213
301.071
300.929
300.786
300.644
300.501
300.358
300.215
300.072
270.441
271.937
273.407
274.849
276.262
277.643
278.993
280.308
281.588
282.833
284.041
285.211
286.345
287.44
288.497
289.516
290.496
291.439
292.343
293.21
294.04
294.833
295.59
296.311
296.997
297.648
298.266
298.85
299.403
299.923
300.413
300.874
301.305
301.708
302.084
302.433
302.757
303.056
303.331
303.583
303.813
304.022
304.211
304.38
304.53
304.662
304.777
304.876
304.959
305.027
305.081
305.121
305.149
305.164
305.168
305.161
305.144
305.117
305.08
305.035
304.983
304.922
304.854
304.78
304.699
304.613
304.521
304.424
304.322
304.216
304.106
303.992
303.874
303.754
303.63
303.504
303.375
303.244
303.111
302.976
302.84
302.701
302.562
302.421
302.279
302.136
301.992
301.847
301.702
301.556
301.409
301.262
301.114
300.967
300.818
300.67
300.521
300.372
300.223
300.074
269.299
270.852
272.379
273.877
275.344
276.779
278.181
279.547
280.877
282.169
283.424
284.64
285.817
286.954
288.052
289.11
290.129
291.108
292.047
292.948
293.81
294.633
295.419
296.168
296.881
297.557
298.199
298.806
299.379
299.92
300.429
300.907
301.355
301.774
302.164
302.527
302.863
303.174
303.46
303.722
303.961
304.178
304.373
304.549
304.705
304.842
304.962
305.064
305.15
305.221
305.277
305.319
305.348
305.364
305.368
305.36
305.342
305.314
305.277
305.23
305.175
305.112
305.042
304.965
304.881
304.791
304.695
304.595
304.489
304.379
304.264
304.146
304.024
303.899
303.77
303.639
303.506
303.37
303.231
303.091
302.949
302.806
302.661
302.515
302.367
302.218
302.069
301.919
301.768
301.616
301.464
301.311
301.157
301.004
300.85
300.696
300.541
300.387
300.232
300.077
268.163
269.774
271.357
272.911
274.433
275.921
277.374
278.79
280.169
281.51
282.811
284.072
285.292
286.472
287.61
288.708
289.764
290.779
291.753
292.687
293.581
294.435
295.25
296.027
296.765
297.467
298.132
298.762
299.356
299.917
300.445
300.941
301.405
301.839
302.244
302.62
302.969
303.291
303.588
303.859
304.107
304.332
304.535
304.717
304.879
305.021
305.145
305.251
305.341
305.414
305.472
305.516
305.545
305.562
305.566
305.559
305.54
305.511
305.472
305.424
305.366
305.301
305.228
305.148
305.061
304.968
304.869
304.765
304.655
304.541
304.422
304.299
304.173
304.043
303.91
303.774
303.635
303.494
303.351
303.206
303.058
302.91
302.759
302.607
302.455
302.301
302.145
301.99
301.833
301.676
301.518
301.359
301.2
301.041
300.881
300.721
300.561
300.401
300.241
300.08
267.036
268.704
270.343
271.952
273.527
275.068
276.573
278.04
279.467
280.855
282.202
283.508
284.772
285.993
287.172
288.308
289.401
290.453
291.461
292.428
293.354
294.238
295.082
295.886
296.651
297.377
298.066
298.718
299.334
299.914
300.461
300.974
301.455
301.905
302.324
302.713
303.074
303.408
303.715
303.996
304.253
304.486
304.696
304.884
305.052
305.199
305.327
305.437
305.53
305.606
305.666
305.711
305.742
305.759
305.763
305.755
305.736
305.706
305.666
305.616
305.556
305.489
305.413
305.33
305.241
305.144
305.041
304.933
304.82
304.701
304.579
304.451
304.321
304.186
304.048
303.907
303.764
303.618
303.469
303.319
303.167
303.013
302.857
302.7
302.541
302.382
302.221
302.06
301.898
301.735
301.571
301.407
301.243
301.078
300.913
300.747
300.581
300.415
300.249
300.083
265.917
267.642
269.336
271
272.629
274.222
275.777
277.294
278.77
280.205
281.598
282.948
284.255
285.517
286.736
287.911
289.042
290.128
291.171
292.171
293.128
294.042
294.915
295.746
296.537
297.288
298
298.674
299.311
299.912
300.477
301.007
301.505
301.969
302.402
302.805
303.179
303.523
303.841
304.132
304.397
304.638
304.855
305.05
305.223
305.376
305.508
305.622
305.718
305.796
305.858
305.905
305.937
305.954
305.959
305.951
305.931
305.9
305.858
305.806
305.745
305.675
305.597
305.511
305.418
305.319
305.213
305.101
304.983
304.861
304.734
304.603
304.467
304.328
304.186
304.04
303.892
303.741
303.587
303.432
303.274
303.115
302.954
302.791
302.628
302.463
302.297
302.13
301.962
301.794
301.625
301.455
301.285
301.114
300.944
300.772
300.601
300.429
300.258
300.086
264.807
266.587
268.337
270.054
271.737
273.382
274.988
276.554
278.079
279.56
280.998
282.392
283.742
285.045
286.304
287.517
288.685
289.807
290.884
291.916
292.904
293.848
294.749
295.608
296.424
297.2
297.935
298.631
299.289
299.909
300.492
301.04
301.554
302.033
302.481
302.897
303.282
303.638
303.966
304.266
304.54
304.789
305.013
305.215
305.393
305.551
305.688
305.805
305.904
305.985
306.049
306.097
306.13
306.148
306.153
306.145
306.124
306.092
306.049
305.995
305.932
305.86
305.78
305.691
305.595
305.492
305.382
305.267
305.146
305.019
304.888
304.753
304.613
304.469
304.322
304.172
304.019
303.863
303.704
303.544
303.381
303.216
303.05
302.882
302.713
302.543
302.372
302.199
302.026
301.852
301.678
301.503
301.327
301.151
300.974
300.798
300.621
300.443
300.266
300.089
263.705
265.541
267.346
269.117
270.852
272.548
274.205
275.82
277.392
278.92
280.403
281.841
283.232
284.577
285.875
287.126
288.33
289.488
290.598
291.663
292.682
293.656
294.585
295.47
296.312
297.112
297.87
298.588
299.266
299.906
300.508
301.073
301.602
302.097
302.558
302.987
303.385
303.752
304.09
304.4
304.682
304.939
305.17
305.378
305.562
305.725
305.866
305.987
306.089
306.172
306.238
306.288
306.322
306.341
306.346
306.337
306.316
306.283
306.238
306.183
306.118
306.044
305.961
305.869
305.77
305.664
305.551
305.432
305.307
305.177
305.041
304.901
304.757
304.609
304.457
304.302
304.144
303.984
303.82
303.654
303.487
303.317
303.146
302.973
302.798
302.623
302.446
302.268
302.09
301.91
301.73
301.55
301.368
301.187
301.005
300.823
300.64
300.457
300.274
300.091
262.612
264.503
266.362
268.187
269.974
271.722
273.428
275.092
276.711
278.285
279.813
281.294
282.728
284.113
285.45
286.738
287.979
289.171
290.315
291.412
292.461
293.465
294.422
295.334
296.201
297.025
297.806
298.546
299.244
299.903
300.523
301.105
301.65
302.16
302.635
303.077
303.487
303.865
304.213
304.532
304.823
305.088
305.326
305.54
305.73
305.897
306.042
306.167
306.272
306.358
306.426
306.477
306.512
306.532
306.537
306.528
306.506
306.472
306.426
306.369
306.302
306.226
306.14
306.046
305.944
305.835
305.718
305.595
305.467
305.332
305.193
305.049
304.9
304.748
304.592
304.432
304.269
304.103
303.935
303.765
303.592
303.417
303.24
303.062
302.883
302.702
302.52
302.337
302.153
301.968
301.782
301.596
301.41
301.223
301.035
300.847
300.659
300.471
300.283
300.094
261.528
263.474
265.387
267.265
269.104
270.902
272.658
274.37
276.036
277.656
279.228
280.752
282.227
283.652
285.028
286.354
287.63
288.857
290.034
291.163
292.243
293.275
294.26
295.198
296.091
296.939
297.743
298.504
299.222
299.9
300.538
301.137
301.698
302.223
302.712
303.167
303.588
303.977
304.335
304.664
304.963
305.235
305.48
305.7
305.896
306.068
306.218
306.346
306.454
306.543
306.613
306.665
306.701
306.721
306.726
306.717
306.695
306.659
306.612
306.554
306.485
306.406
306.318
306.221
306.116
306.004
305.884
305.758
305.625
305.487
305.344
305.195
305.043
304.886
304.725
304.56
304.393
304.222
304.049
303.874
303.696
303.516
303.334
303.151
302.966
302.78
302.593
302.404
302.215
302.025
301.834
301.643
301.45
301.258
301.065
300.872
300.678
300.485
300.291
300.097
260.453
262.454
264.421
266.351
268.241
270.089
271.894
273.654
275.367
277.032
278.648
280.215
281.731
283.196
284.61
285.973
287.285
288.546
289.756
290.916
292.026
293.087
294.1
295.064
295.982
296.853
297.68
298.462
299.201
299.897
300.553
301.169
301.746
302.285
302.788
303.255
303.688
304.088
304.456
304.794
305.102
305.381
305.633
305.859
306.06
306.237
306.391
306.523
306.634
306.725
306.797
306.851
306.888
306.909
306.914
306.905
306.882
306.845
306.797
306.737
306.666
306.585
306.494
306.395
306.287
306.171
306.048
305.918
305.782
305.64
305.493
305.34
305.183
305.022
304.857
304.688
304.516
304.34
304.162
303.982
303.799
303.614
303.427
303.239
303.049
302.858
302.665
302.471
302.277
302.081
301.885
301.688
301.491
301.293
301.095
300.896
300.697
300.498
300.299
300.1
259.389
261.444
263.463
265.445
267.386
269.284
271.138
272.945
274.704
276.414
278.073
279.682
281.239
282.743
284.196
285.595
286.943
288.238
289.48
290.672
291.812
292.901
293.941
294.931
295.874
296.769
297.617
298.42
299.179
299.895
300.568
301.2
301.793
302.346
302.863
303.343
303.787
304.198
304.576
304.923
305.239
305.526
305.785
306.017
306.224
306.405
306.563
306.699
306.813
306.906
306.98
307.036
307.074
307.095
307.1
307.091
307.067
307.03
306.98
306.918
306.846
306.762
306.669
306.567
306.456
306.337
306.211
306.078
305.938
305.792
305.641
305.484
305.323
305.157
304.987
304.814
304.637
304.457
304.274
304.089
303.901
303.711
303.52
303.326
303.131
302.935
302.737
302.538
302.338
302.137
301.936
301.734
301.531
301.328
301.124
300.92
300.716
300.512
300.307
300.102
258.334
260.442
262.514
264.547
266.539
268.487
270.388
272.242
274.047
275.801
277.504
279.154
280.752
282.295
283.785
285.221
286.604
287.932
289.207
290.429
291.599
292.717
293.784
294.8
295.767
296.685
297.555
298.379
299.158
299.892
300.583
301.231
301.839
302.407
302.937
303.429
303.886
304.307
304.695
305.051
305.375
305.67
305.935
306.173
306.385
306.571
306.734
306.873
306.99
307.086
307.162
307.218
307.257
307.279
307.285
307.275
307.25
307.212
307.161
307.098
307.023
306.938
306.842
306.738
306.624
306.502
306.372
306.236
306.092
305.943
305.787
305.627
305.461
305.291
305.117
304.939
304.758
304.573
304.385
304.195
304.003
303.808
303.611
303.412
303.212
303.011
302.808
302.604
302.399
302.193
301.986
301.779
301.571
301.362
301.153
300.944
300.735
300.525
300.315
300.105
257.29
259.451
261.575
263.659
265.7
267.697
269.646
271.547
273.397
275.195
276.94
278.632
280.269
281.852
283.379
284.851
286.268
287.63
288.937
290.19
291.389
292.534
293.628
294.669
295.66
296.602
297.494
298.339
299.137
299.889
300.597
301.262
301.885
302.468
303.011
303.515
303.983
304.415
304.813
305.177
305.51
305.812
306.084
306.328
306.545
306.736
306.902
307.045
307.165
307.263
307.341
307.399
307.439
307.461
307.467
307.457
307.432
307.393
307.341
307.276
307.199
307.112
307.014
306.906
306.79
306.665
306.532
306.392
306.245
306.091
305.932
305.768
305.598
305.424
305.245
305.063
304.877
304.688
304.495
304.3
304.103
303.903
303.702
303.498
303.293