/*--------------------------------*- C++ -*----------------------------------*\
| =========                 |                                                 |
| \\      /  F ield         | OpenFOAM: The Open Source CFD Toolbox           |
|  \\    /   O peration     | Version:  2406                                  |
|   \\  /    A nd           | Website:  www.openfoam.com                      |
|    \\/     M anipulation  |                                                 |
\*---------------------------------------------------------------------------*/
FoamFile
{
    version     2.0;
    format      ascii;
    arch        "LSB;label=32;scalar=64";
    class       volScalarField;
    location    "5";
    object      gradTy;
}
// * * * * * * * * * * * * * * * * * * * * * * * * * * * * * * * * * * * * * //

dimensions      [0 -1 0 1 0 0 0];

internalField   nonuniform List<scalar> 
20000
(
11.9481
9.87223
8.12669
6.6656
5.44801
4.43769
3.60284
2.91577
2.35249
1.8924
1.51798
1.21429
0.968774
0.770936
0.612003
0.484689
0.382981
0.30195
0.237564
0.18653
0.146174
0.114333
0.089263
0.0695661
0.0541231
0.0420399
0.0326039
0.0252484
0.0195242
0.0150766
0.0116258
0.00895241
0.0068842
0.00528649
0.00405404
0.00310473
0.00237458
0.0018138
0.00138371
0.00105431
0.000802353
0.000609894
0.000463065
0.000351185
0.00026604
0.000201317
0.000152174
0.000114904
8.66704e-05
6.53057e-05
4.91566e-05
3.69631e-05
2.77661e-05
2.08367e-05
1.56212e-05
1.16998e-05
8.75432e-06
6.54411e-06
4.8874e-06
3.64666e-06
2.71843e-06
2.02464e-06
1.50657e-06
1.12009e-06
8.31957e-07
6.17484e-07
4.57878e-07
3.3924e-07
2.51121e-07
1.8574e-07
1.3729e-07
1.01363e-07
7.47846e-08
5.51337e-08
4.06009e-08
2.98761e-08
2.19824e-08
1.61426e-08
1.18572e-08
8.65974e-09
6.32827e-09
4.66294e-09
3.37508e-09
2.4647e-09
1.78746e-09
1.27676e-09
9.10383e-10
6.32827e-10
4.55191e-10
2.9976e-10
1.88738e-10
1.22125e-10
6.66134e-11
3.33067e-11
-1.11022e-11
-1.11022e-11
-2.22045e-11
-1.11022e-11
-1.11022e-11
1.11022e-11
11.9451
9.8698
8.12469
6.66395
5.44666
4.4366
3.60196
2.91505
2.35191
1.89194
1.5176
1.21398
0.968536
0.770751
0.611854
0.484566
0.382884
0.301876
0.237507
0.186486
0.146139
0.114304
0.0892398
0.0695481
0.0541096
0.0420299
0.0325965
0.0252427
0.0195197
0.0150729
0.0116228
0.00894997
0.00688225
0.00528497
0.00405288
0.00310386
0.00237395
0.00181334
0.00138338
0.00105407
0.000802189
0.000609778
0.000462984
0.000351129
0.000266001
0.00020129
0.000152156
0.000114892
8.66627e-05
6.53009e-05
4.91537e-05
3.69616e-05
2.77655e-05
2.08366e-05
1.56215e-05
1.17002e-05
8.75481e-06
6.54466e-06
4.88787e-06
3.64715e-06
2.71884e-06
2.02498e-06
1.50686e-06
1.12029e-06
8.32212e-07
6.17639e-07
4.58e-07
3.39362e-07
2.51255e-07
1.8584e-07
1.37346e-07
1.01419e-07
7.4829e-08
5.51559e-08
4.06453e-08
2.99205e-08
2.19824e-08
1.61426e-08
1.18461e-08
8.69305e-09
6.39488e-09
4.66294e-09
3.39728e-09
2.4647e-09
1.79856e-09
1.29896e-09
9.54792e-10
6.99441e-10
4.66294e-10
3.10862e-10
2.22045e-10
1.77636e-10
1.22125e-10
7.77156e-11
6.66134e-11
2.22045e-11
-1.11022e-11
0
-1.11022e-11
-1.11022e-11
11.9392
9.86493
8.12069
6.66067
5.44397
4.4344
3.60018
2.91361
2.35075
1.89101
1.51685
1.21338
0.96806
0.770373
0.611551
0.484325
0.382694
0.301728
0.237391
0.186395
0.146067
0.114247
0.0891946
0.0695132
0.0540829
0.0420097
0.032581
0.0252308
0.0195104
0.0150655
0.0116169
0.00894529
0.00687857
0.0052821
0.00405068
0.0031022
0.0023727
0.00181242
0.0013827
0.00105358
0.000801828
0.000609516
0.000462793
0.000350991
0.000265902
0.000201218
0.000152105
0.000114856
8.66369e-05
6.52828e-05
4.91412e-05
3.6953e-05
2.77597e-05
2.08328e-05
1.5619e-05
1.16986e-05
8.75386e-06
6.54415e-06
4.88765e-06
3.64706e-06
2.71889e-06
2.02508e-06
1.50694e-06
1.12043e-06
8.32345e-07
6.1775e-07
4.58145e-07
3.39451e-07
2.51299e-07
1.85885e-07
1.37379e-07
1.01452e-07
7.48512e-08
5.51892e-08
4.06675e-08
2.99205e-08
2.19713e-08
1.61426e-08
1.18239e-08
8.69305e-09
6.36158e-09
4.65183e-09
3.39728e-09
2.4647e-09
1.79856e-09
1.31006e-09
9.65894e-10
6.99441e-10
4.88498e-10
3.55271e-10
2.44249e-10
1.66533e-10
1.11022e-10
9.99201e-11
7.77156e-11
6.66134e-11
3.33067e-11
-1.11022e-11
-1.11022e-11
-1.11022e-11
11.9304
9.85761
8.11468
6.65574
5.43994
4.43112
3.59752
2.91145
2.349
1.88961
1.51573
1.21248
0.967344
0.769801
0.611096
0.483965
0.382411
0.301505
0.237216
0.186257
0.145958
0.114161
0.0891279
0.0694615
0.0540431
0.0419791
0.0325574
0.0252124
0.0194961
0.0150543
0.0116081
0.00893839
0.00687321
0.00527797
0.00404752
0.00309981
0.0023709
0.00181108
0.00138171
0.00105284
0.000801286
0.000609117
0.000462501
0.000350778
0.000265746
0.000201105
0.000152023
0.000114797
8.65945e-05
6.52526e-05
4.91198e-05
3.6938e-05
2.77493e-05
2.08256e-05
1.5614e-05
1.16953e-05
8.75168e-06
6.54272e-06
4.88675e-06
3.64651e-06
2.71858e-06
2.02492e-06
1.50694e-06
1.12046e-06
8.32368e-07
6.17817e-07
4.58189e-07
3.39517e-07
2.51343e-07
1.8594e-07
1.37401e-07
1.01497e-07
7.48956e-08
5.52003e-08
4.06564e-08
2.99205e-08
2.19935e-08
1.61648e-08
1.18572e-08
8.70415e-09
6.35048e-09
4.62963e-09
3.40838e-09
2.4758e-09
1.80966e-09
1.31006e-09
9.4369e-10
6.66134e-10
4.88498e-10
3.55271e-10
2.66454e-10
1.55431e-10
1.22125e-10
8.88178e-11
4.44089e-11
3.33067e-11
5.55112e-11
1.11022e-11
0
0
11.9186
9.84787
8.10665
6.64916
5.43457
4.42674
3.59396
2.90858
2.34668
1.88774
1.51423
1.21129
0.966388
0.76904
0.610492
0.483487
0.382034
0.301208
0.236982
0.186073
0.145813
0.114048
0.0890396
0.069393
0.0539901
0.0419381
0.0325256
0.0251878
0.0194768
0.0150393
0.0115964
0.00892931
0.00686618
0.00527257
0.00404339
0.00309667
0.00236854
0.0018093
0.00138038
0.00105185
0.000800548
0.000608571
0.000462097
0.00035048
0.000265527
0.000200944
0.000151905
0.000114711
8.65321e-05
6.52074e-05
4.90873e-05
3.69146e-05
2.77326e-05
2.08138e-05
1.56057e-05
1.16895e-05
8.74761e-06
6.53995e-06
4.88481e-06
3.64523e-06
2.71774e-06
2.02439e-06
1.50663e-06
1.12026e-06
8.32256e-07
6.17761e-07
4.58145e-07
3.39517e-07
2.51388e-07
1.85973e-07
1.37446e-07
1.01497e-07
7.48956e-08
5.52225e-08
4.06564e-08
2.99316e-08
2.20046e-08
1.61871e-08
1.18905e-08
8.71525e-09
6.38378e-09
4.66294e-09
3.40838e-09
2.498e-09
1.83187e-09
1.32117e-09
9.54792e-10
6.88338e-10
5.10703e-10
3.77476e-10
2.55351e-10
1.9984e-10
1.44329e-10
7.77156e-11
4.44089e-11
1.11022e-11
3.33067e-11
2.22045e-11
0
0
11.9039
9.83571
8.09664
6.64095
5.42785
4.42127
3.58952
2.90498
2.34378
1.88541
1.51236
1.20979
0.965193
0.768089
0.609738
0.482891
0.381562
0.300836
0.236689
0.185842
0.145632
0.113906
0.0889296
0.0693075
0.0539237
0.0418866
0.0324857
0.0251567
0.0194527
0.0150205
0.0115819
0.00891805
0.00685749
0.00526589
0.00403829
0.00309279
0.00236559
0.00180708
0.00137871
0.0010506
0.000799613
0.000607873
0.000461578
0.000350094
0.000265241
0.000200733
0.00015175
0.000114596
8.64483e-05
6.51461e-05
4.90427e-05
3.68822e-05
2.77092e-05
2.07969e-05
1.55936e-05
1.16808e-05
8.74147e-06
6.53562e-06
4.88178e-06
3.64311e-06
2.71622e-06
2.02338e-06
1.5059e-06
1.11977e-06
8.31946e-07
6.17573e-07
4.58023e-07
3.39395e-07
2.5131e-07
1.85874e-07
1.37435e-07
1.01485e-07
7.49067e-08
5.52336e-08
4.06897e-08
2.99316e-08
2.20379e-08
1.61648e-08
1.18794e-08
8.69305e-09
6.38378e-09
4.67404e-09
3.43059e-09
2.5091e-09
1.79856e-09
1.34337e-09
9.65894e-10
6.99441e-10
5.10703e-10
3.77476e-10
2.77556e-10
1.9984e-10
1.22125e-10
9.99201e-11
6.66134e-11
5.55112e-11
2.22045e-11
3.33067e-11
1.11022e-11
-1.11022e-11
11.8862
9.82112
8.08463
6.63109
5.4198
4.41471
3.58419
2.90067
2.34031
1.88261
1.51011
1.20799
0.963761
0.76695
0.608834
0.482175
0.380997
0.30039
0.236338
0.185566
0.145416
0.113737
0.0887977
0.0692049
0.0538441
0.0418247
0.0324377
0.0251195
0.0194238
0.0149981
0.0115645
0.00890461
0.00684714
0.00525794
0.00403221
0.00308816
0.00236208
0.00180442
0.0013767
0.00104909
0.000798478
0.000607023
0.000460943
0.000349621
0.000264889
0.000200472
0.000151556
0.000114453
8.63427e-05
6.50685e-05
4.89857e-05
3.68406e-05
2.76788e-05
2.07748e-05
1.55776e-05
1.16692e-05
8.73315e-06
6.52959e-06
4.87751e-06
3.64004e-06
2.71407e-06
2.02185e-06
1.50482e-06
1.11904e-06
8.31413e-07
6.17195e-07
4.57778e-07
3.3924e-07
2.51199e-07
1.85862e-07
1.3739e-07
1.01474e-07
7.48956e-08
5.52336e-08
4.06675e-08
2.99427e-08
2.20268e-08
1.61982e-08
1.18905e-08
8.73746e-09
6.38378e-09
4.70735e-09
3.43059e-09
2.54241e-09
1.86517e-09
1.33227e-09
9.76996e-10
7.10543e-10
5.32907e-10
3.66374e-10
2.66454e-10
2.10942e-10
1.55431e-10
8.88178e-11
6.66134e-11
3.33067e-11
2.22045e-11
4.44089e-11
0
1.11022e-11
11.8656
9.8041
8.07062
6.6196
5.41041
4.40706
3.57798
2.89565
2.33625
1.87935
1.5075
1.2059
0.962091
0.765621
0.607779
0.481339
0.380336
0.299869
0.235928
0.185244
0.145164
0.11354
0.088644
0.0690852
0.053751
0.0417525
0.0323815
0.0250759
0.01939
0.0149719
0.0115443
0.008889
0.00683512
0.00524872
0.00402516
0.00308278
0.00235798
0.00180131
0.00137435
0.00104731
0.000797144
0.000606022
0.000460192
0.000349059
0.000264469
0.000200159
0.000151323
0.000114281
8.6215e-05
6.49742e-05
4.89161e-05
3.67894e-05
2.76412e-05
2.07473e-05
1.55575e-05
1.16546e-05
8.7225e-06
6.52191e-06
4.87194e-06
3.63605e-06
2.7112e-06
2.01975e-06
1.50332e-06
1.11798e-06
8.30691e-07
6.16673e-07
4.57412e-07
3.39007e-07
2.50999e-07
1.8574e-07
1.37301e-07
1.01419e-07
7.48623e-08
5.52114e-08
4.06897e-08
2.99316e-08
2.2049e-08
1.62093e-08
1.19016e-08
8.74856e-09
6.43929e-09
4.69624e-09
3.4639e-09
2.52021e-09
1.85407e-09
1.35447e-09
9.88098e-10
7.32747e-10
5.10703e-10
3.77476e-10
2.77556e-10
1.88738e-10
1.44329e-10
1.11022e-10
6.66134e-11
4.44089e-11
2.22045e-11
3.33067e-11
2.22045e-11
1.11022e-11
11.8421
9.78467
8.05462
6.60648
5.39968
4.39833
3.57089
2.88991
2.33162
1.87562
1.50451
1.20351
0.960184
0.764103
0.606575
0.480385
0.379582
0.299275
0.23546
0.184877
0.144876
0.113315
0.0884685
0.0689485
0.0536447
0.0416698
0.0323174
0.0250261
0.0193514
0.0149421
0.0115212
0.00887122
0.00682145
0.00523823
0.00401713
0.00307665
0.00235332
0.00179777
0.00137167
0.00104528
0.000795612
0.000604868
0.000459325
0.000348409
0.000263982
0.000199795
0.000151052
0.000114079
8.60649e-05
6.48629e-05
4.88338e-05
3.67286e-05
2.75964e-05
2.07143e-05
1.55333e-05
1.16369e-05
8.70954e-06
6.51244e-06
4.86506e-06
3.63104e-06
2.70757e-06
2.01714e-06
1.50145e-06
1.11663e-06
8.29692e-07
6.15996e-07
4.56912e-07
3.38651e-07
2.50788e-07
1.85563e-07
1.3719e-07
1.01363e-07
7.48179e-08
5.51892e-08
4.06675e-08
2.99538e-08
2.2049e-08
1.62093e-08
1.1946e-08
8.77076e-09
6.42819e-09
4.71845e-09
3.45279e-09
2.53131e-09
1.83187e-09
1.36557e-09
9.88098e-10
7.32747e-10
5.44009e-10
3.88578e-10
3.10862e-10
1.9984e-10
1.33227e-10
1.22125e-10
8.88178e-11
5.55112e-11
4.44089e-11
1.11022e-11
4.44089e-11
0
11.8156
9.76281
8.03663
6.59173
5.38763
4.38851
3.56292
2.88345
2.32641
1.87144
1.50115
1.20082
0.95804
0.762397
0.60522
0.479312
0.378734
0.298606
0.234934
0.184464
0.144552
0.113062
0.0882711
0.0687947
0.053525
0.0415768
0.0322452
0.0249701
0.0193081
0.0149085
0.0114953
0.00885128
0.00680612
0.00522647
0.00400812
0.00306977
0.00234808
0.00179378
0.00136864
0.00104299
0.000793882
0.000603563
0.000458342
0.00034767
0.000263428
0.00019938
0.000150742
0.000113847
8.58924e-05
6.47346e-05
4.87386e-05
3.66581e-05
2.75443e-05
2.06758e-05
1.55049e-05
1.1616e-05
8.6942e-06
6.50119e-06
4.85683e-06
3.62502e-06
2.70319e-06
2.01397e-06
1.49913e-06
1.11493e-06
8.28471e-07
6.15075e-07
4.56279e-07
3.38185e-07
2.50455e-07
1.8533e-07
1.37035e-07
1.01241e-07
7.47291e-08
5.51004e-08
4.06231e-08
2.99427e-08
2.2049e-08
1.61871e-08
1.18905e-08
8.74856e-09
6.43929e-09
4.69624e-09
3.45279e-09
2.54241e-09
1.85407e-09
1.35447e-09
9.65894e-10
7.21645e-10
5.32907e-10
3.77476e-10
2.55351e-10
1.9984e-10
1.55431e-10
9.99201e-11
7.77156e-11
4.44089e-11
4.44089e-11
1.11022e-11
1.11022e-11
-1.11022e-11
11.7863
9.73856
8.01666
6.57535
5.37424
4.3776
3.55406
2.87629
2.32063
1.86679
1.49742
1.19784
0.955659
0.760503
0.603716
0.478121
0.377793
0.297864
0.23435
0.184005
0.144193
0.112782
0.0880519
0.0686239
0.0533921
0.0414735
0.032165
0.024908
0.01926
0.0148713
0.0114666
0.00882918
0.00678912
0.00521343
0.00399814
0.00306214
0.00234226
0.00178936
0.00136528
0.00104045
0.000791954
0.000602106
0.000457244
0.000346843
0.000262807
0.000198914
0.000150392
0.000113586
8.56974e-05
6.45893e-05
4.86305e-05
3.65778e-05
2.74847e-05
2.06318e-05
1.54724e-05
1.1592e-05
8.67653e-06
6.48819e-06
4.84727e-06
3.61803e-06
2.69805e-06
2.01023e-06
1.49639e-06
1.11293e-06
8.2705e-07
6.14053e-07
4.55525e-07
3.37641e-07
2.50078e-07
1.85074e-07
1.36824e-07
1.01097e-07
7.46292e-08
5.50338e-08
4.05898e-08
2.99094e-08
2.19824e-08
1.61871e-08
1.18905e-08
8.70415e-09
6.39488e-09
4.68514e-09
3.45279e-09
2.498e-09
1.84297e-09
1.33227e-09
9.99201e-10
7.10543e-10
5.21805e-10
3.88578e-10
2.77556e-10
2.10942e-10
1.55431e-10
9.99201e-11
6.66134e-11
6.66134e-11
2.22045e-11
0
1.11022e-11
-1.11022e-11
11.754
9.71189
7.99471
6.55735
5.35952
4.36562
3.54433
2.86841
2.31428
1.86167
1.49332
1.19456
0.953043
0.758421
0.602063
0.476812
0.376759
0.297048
0.233709
0.183502
0.143799
0.112473
0.087811
0.0684361
0.0532459
0.0413599
0.0320769
0.0248397
0.0192071
0.0148305
0.0114351
0.00880491
0.00677047
0.00519912
0.00398718
0.00305377
0.00233587
0.00178449
0.00136158
0.00103764
0.000789828
0.000600498
0.00045603
0.000345928
0.000262118
0.000198396
0.000150004
0.000113295
8.54799e-05
6.44269e-05
4.85095e-05
3.64877e-05
2.74178e-05
2.0582e-05
1.54356e-05
1.15648e-05
8.65643e-06
6.47338e-06
4.83634e-06
3.61001e-06
2.69216e-06
2.0059e-06
1.49325e-06
1.11064e-06
8.2534e-07
6.12821e-07
4.54647e-07
3.36986e-07
2.49589e-07
1.84697e-07
1.3658e-07
1.00919e-07
7.44849e-08
5.49782e-08
4.05231e-08
2.98428e-08
2.19491e-08
1.61648e-08
1.18683e-08
8.72635e-09
6.37268e-09
4.71845e-09
3.41949e-09
2.5091e-09
1.84297e-09
1.37668e-09
1.0103e-09
7.32747e-10
5.21805e-10
3.88578e-10
2.9976e-10
2.22045e-10
1.55431e-10
1.22125e-10
9.99201e-11
6.66134e-11
4.44089e-11
2.22045e-11
3.33067e-11
1.11022e-11
11.7188
9.68284
7.97079
6.53773
5.34349
4.35255
3.53373
2.85983
2.30736
1.8561
1.48885
1.19099
0.950191
0.756151
0.600262
0.475385
0.375631
0.29616
0.233009
0.182953
0.143369
0.112137
0.0875484
0.0682314
0.0530866
0.0412361
0.0319808
0.0247652
0.0191495
0.014786
0.0114008
0.0087785
0.00675017
0.00518354
0.00397525
0.00304464
0.00232891
0.00177919
0.00135755
0.00103457
0.000787504
0.00059874
0.000454701
0.000344925
0.000261362
0.000197828
0.000149577
0.000112975
8.52401e-05
6.42476e-05
4.83755e-05
3.63878e-05
2.73434e-05
2.05268e-05
1.53946e-05
1.15344e-05
8.63389e-06
6.45672e-06
4.82409e-06
3.60098e-06
2.68553e-06
2.00101e-06
1.48965e-06
1.10799e-06
8.2343e-07
6.11411e-07
4.53615e-07
3.36253e-07
2.49034e-07
1.84286e-07
1.36313e-07
1.00708e-07
7.43405e-08
5.48561e-08
4.04232e-08
2.98095e-08
2.19269e-08
1.61315e-08
1.18572e-08
8.70415e-09
6.38378e-09
4.69624e-09
3.43059e-09
2.53131e-09
1.84297e-09
1.36557e-09
9.88098e-10
7.21645e-10
5.44009e-10
4.10783e-10
2.88658e-10
1.9984e-10
1.44329e-10
9.99201e-11
8.88178e-11
5.55112e-11
3.33067e-11
3.33067e-11
3.33067e-11
2.22045e-11
11.6808
9.65139
7.94491
6.51649
5.32613
4.33842
3.52225
2.85054
2.29986
1.85008
1.48402
1.18712
0.947105
0.753696
0.598312
0.473841
0.374411
0.295198
0.232253
0.182359
0.142903
0.111772
0.0872641
0.0680098
0.0529142
0.0411021
0.0318768
0.0246847
0.0190872
0.0147379
0.0113637
0.00874993
0.00672821
0.00516669
0.00396234
0.00303477
0.00232137
0.00177344
0.00135318
0.00103125
0.000784985
0.000596831
0.000453257
0.000343835
0.00026054
0.000197209
0.000149111
0.000112625
8.49779e-05
6.40512e-05
4.82287e-05
3.62782e-05
2.72617e-05
2.0466e-05
1.53493e-05
1.15008e-05
8.60899e-06
6.43828e-06
4.81043e-06
3.59088e-06
2.6781e-06
1.99555e-06
1.48563e-06
1.10502e-06
8.21221e-07
6.09801e-07
4.52427e-07
3.35398e-07
2.48424e-07
1.83875e-07
1.35969e-07
1.00475e-07
7.4174e-08
5.4734e-08
4.03566e-08
2.97096e-08
2.18825e-08
1.60982e-08
1.18239e-08
8.67084e-09
6.40599e-09
4.70735e-09
3.44169e-09
2.52021e-09
1.84297e-09
1.33227e-09
9.99201e-10
7.66054e-10
5.32907e-10
4.10783e-10
3.10862e-10
1.9984e-10
1.44329e-10
9.99201e-11
7.77156e-11
6.66134e-11
3.33067e-11
5.55112e-11
1.11022e-11
1.11022e-11
11.6398
9.61756
7.91706
6.49365
5.30747
4.32321
3.50991
2.84055
2.2918
1.84359
1.47881
1.18296
0.943786
0.751054
0.596215
0.47218
0.373099
0.294163
0.231439
0.18172
0.142402
0.111381
0.0869582
0.0677714
0.0527286
0.040958
0.031765
0.0245981
0.0190202
0.0146862
0.0113238
0.00871922
0.00670461
0.00514858
0.00394847
0.00302416
0.00231327
0.00176726
0.00134847
0.00102768
0.000782269
0.000594772
0.000451699
0.000342657
0.000259651
0.000196539
0.000148607
0.000112246
8.46934e-05
6.3838e-05
4.80691e-05
3.61589e-05
2.71727e-05
2.03996e-05
1.52999e-05
1.1464e-05
8.58171e-06
6.41805e-06
4.79545e-06
3.57976e-06
2.66989e-06
1.98948e-06
1.48116e-06
1.10177e-06
8.18845e-07
6.08047e-07
4.51128e-07
3.34444e-07
2.47757e-07
1.83353e-07
1.35592e-07
1.00198e-07
7.40186e-08
5.45897e-08
4.02567e-08
2.96096e-08
2.18159e-08
1.60649e-08
1.17906e-08
8.67084e-09
6.36158e-09
4.64073e-09
3.41949e-09
2.498e-09
1.83187e-09
1.35447e-09
9.76996e-10
7.21645e-10
5.32907e-10
3.77476e-10
2.66454e-10
1.9984e-10
1.44329e-10
1.22125e-10
8.88178e-11
5.55112e-11
4.44089e-11
2.22045e-11
1.11022e-11
-1.11022e-11
11.596
9.58136
7.88726
6.46921
5.28749
4.30694
3.49669
2.82986
2.28317
1.83665
1.47325
1.1785
0.940233
0.748227
0.593971
0.470403
0.371695
0.293056
0.230568
0.181036
0.141866
0.110962
0.0866309
0.0675163
0.0525301
0.0408037
0.0316453
0.0245054
0.0189486
0.0146308
0.0112811
0.00868637
0.00667936
0.00512921
0.00393362
0.0030128
0.00230459
0.00176064
0.00134343
0.00102384
0.000779358
0.000592565
0.000450027
0.000341393
0.000258696
0.000195818
0.000148065
0.000111838
8.43869e-05
6.3608e-05
4.78968e-05
3.60299e-05
2.70763e-05
2.03277e-05
1.52462e-05
1.14241e-05
8.552e-06
6.39599e-06
4.7791e-06
3.56768e-06
2.6609e-06
1.98283e-06
1.47624e-06
1.09815e-06
8.16169e-07
6.06082e-07
4.49696e-07
3.33389e-07
2.46969e-07
1.82798e-07
1.35192e-07
9.9909e-08
7.37521e-08
5.44231e-08
4.01346e-08
2.95874e-08
2.17715e-08
1.60205e-08
1.17795e-08
8.64864e-09
6.32827e-09
4.64073e-09
3.40838e-09
2.4869e-09
1.80966e-09
1.34337e-09
9.65894e-10
6.88338e-10
5.21805e-10
3.77476e-10
2.77556e-10
2.10942e-10
1.66533e-10
9.99201e-11
6.66134e-11
3.33067e-11
4.44089e-11
0
1.11022e-11
0
11.5493
9.54279
7.85551
6.44317
5.26621
4.2896
3.48262
2.81847
2.27398
1.82926
1.46732
1.17376
0.936448
0.745215
0.59158
0.46851
0.370199
0.291876
0.22964
0.180307
0.141295
0.110515
0.0862822
0.0672445
0.0523186
0.0406394
0.0315179
0.0244067
0.0188722
0.0145719
0.0112357
0.00865139
0.00665247
0.00510857
0.00391781
0.0030007
0.00229535
0.00175359
0.00133806
0.00101975
0.000776252
0.000590208
0.000448242
0.000340042
0.000257675
0.000195048
0.000147484
0.000111401
8.40583e-05
6.33613e-05
4.77118e-05
3.58915e-05
2.69727e-05
2.02502e-05
1.51885e-05
1.1381e-05
8.52e-06
6.37216e-06
4.76141e-06
3.55456e-06
2.6512e-06
1.97565e-06
1.47095e-06
1.09421e-06
8.13249e-07
6.0395e-07
4.48119e-07
3.32234e-07
2.46081e-07
1.82154e-07
1.34714e-07
9.95315e-08
7.3519e-08
5.42344e-08
3.99569e-08
2.94542e-08
2.16827e-08
1.59317e-08
1.1724e-08
8.61533e-09
6.32827e-09
4.61853e-09
3.38618e-09
2.4869e-09
1.80966e-09
1.32117e-09
9.88098e-10
6.99441e-10
5.10703e-10
3.77476e-10
2.77556e-10
2.10942e-10
1.44329e-10
9.99201e-11
5.55112e-11
6.66134e-11
5.55112e-11
2.22045e-11
1.11022e-11
1.11022e-11
11.4998
9.50187
7.82183
6.41554
5.24362
4.27121
3.46769
2.80638
2.26423
1.82142
1.46103
1.16873
0.932433
0.742019
0.589043
0.466501
0.368611
0.290625
0.228655
0.179534
0.140689
0.110041
0.0859121
0.0669561
0.0520942
0.0404651
0.0313827
0.024302
0.0187912
0.0145094
0.0111875
0.00861429
0.00662395
0.00508668
0.00390103
0.00298786
0.00228553
0.0017461
0.00133235
0.00101541
0.000772953
0.000587704
0.000446344
0.000338605
0.000256589
0.000194228
0.000146866
0.000110935
8.3708e-05
6.30981e-05
4.75143e-05
3.57434e-05
2.68619e-05
2.01674e-05
1.51266e-05
1.13349e-05
8.4856e-06
6.34659e-06
4.74233e-06
3.54042e-06
2.64073e-06
1.96788e-06
1.46519e-06
1.08997e-06
8.10141e-07
6.01619e-07
4.46421e-07
3.30969e-07
2.45193e-07
1.81477e-07
1.34204e-07
9.91762e-08
7.32525e-08
5.40346e-08
3.98459e-08
2.93543e-08
2.16049e-08
1.58984e-08
1.17018e-08
8.57092e-09
6.28386e-09
4.61853e-09
3.36398e-09
2.4647e-09
1.83187e-09
1.32117e-09
9.88098e-10
7.21645e-10
5.32907e-10
3.88578e-10
2.77556e-10
2.10942e-10
1.33227e-10
9.99201e-11
7.77156e-11
6.66134e-11
3.33067e-11
4.44089e-11
0
0
11.4475
9.45861
7.78621
6.38633
5.21975
4.25176
3.4519
2.79361
2.25392
1.81312
1.45437
1.1634
0.928187
0.738641
0.586361
0.464377
0.366933
0.289302
0.227614
0.178716
0.140049
0.10954
0.0855209
0.0666511
0.0518569
0.0402807
0.0312397
0.0241913
0.0187056
0.0144433
0.0111365
0.00857506
0.0065938
0.00506354
0.00388329
0.00297429
0.00227516
0.00173819
0.00132631
0.00101082
0.00076946
0.000585053
0.000444334
0.000337083
0.000255438
0.000193358
0.00014621
0.000110441
8.3336e-05
6.28185e-05
4.73044e-05
3.5586e-05
2.67439e-05
2.00792e-05
1.50607e-05
1.12857e-05
8.4489e-06
6.31926e-06
4.72202e-06
3.52528e-06
2.62949e-06
1.95957e-06
1.45906e-06
1.08541e-06
8.06777e-07
5.99154e-07
4.446e-07
3.29625e-07
2.44182e-07
1.80755e-07
1.33704e-07
9.88098e-08
7.29528e-08
5.38347e-08
3.97016e-08
2.92322e-08
2.15383e-08
1.58318e-08
1.16351e-08
8.55982e-09
6.25056e-09
4.57412e-09
3.36398e-09
2.4647e-09
1.80966e-09
1.29896e-09
9.4369e-10
6.77236e-10
5.10703e-10
3.66374e-10
2.77556e-10
2.22045e-10
1.55431e-10
1.11022e-10
7.77156e-11
5.55112e-11
3.33067e-11
3.33067e-11
1.11022e-11
-1.11022e-11
11.3923
9.41301
7.74868
6.35554
5.19458
4.23126
3.43526
2.78014
2.24306
1.80438
1.44736
1.1578
0.923713
0.73508
0.583534
0.462138
0.365164
0.287907
0.226517
0.177855
0.139374
0.109012
0.0851085
0.0663297
0.0516068
0.0400865
0.031089
0.0240746
0.0186154
0.0143736
0.0110828
0.00853373
0.00656203
0.00503915
0.0038646
0.00295998
0.00226422
0.00172984
0.00131995
0.00100597
0.000765776
0.000582255
0.000442212
0.000335476
0.000254222
0.00019244
0.000145516
0.000109918
8.29424e-05
6.25226e-05
4.70821e-05
3.54192e-05
2.6619e-05
1.99856e-05
1.49907e-05
1.12334e-05
8.40991e-06
6.29021e-06
4.70043e-06
3.50922e-06
2.61752e-06
1.95072e-06
1.45247e-06
1.08055e-06
8.03191e-07
5.96512e-07
4.42602e-07
3.28171e-07
2.43106e-07
1.79956e-07
1.33082e-07
9.83658e-08
7.26419e-08
5.35905e-08
3.94906e-08
2.911e-08
2.14273e-08
1.57652e-08
1.15685e-08
8.50431e-09
6.23945e-09
4.58522e-09
3.36398e-09
2.4647e-09
1.79856e-09
1.31006e-09
9.32587e-10
7.10543e-10
5.10703e-10
3.66374e-10
2.55351e-10
1.9984e-10
1.44329e-10
8.88178e-11
7.77156e-11
6.66134e-11
3.33067e-11
2.22045e-11
2.22045e-11
1.11022e-11
11.3343
9.36509
7.70923
6.32319
5.16814
4.20972
3.41777
2.76598
2.23164
1.7952
1.43999
1.1519
0.91901
0.731338
0.580564
0.459785
0.363305
0.286441
0.225364
0.176949
0.138664
0.108457
0.0846752
0.065992
0.051344
0.0398824
0.0309307
0.023952
0.0185206
0.0143004
0.0110264
0.0084903
0.00652864
0.00501352
0.00384495
0.00294494
0.00225272
0.00172106
0.00131326
0.00100088
0.0007619
0.000579311
0.000439979
0.000333784
0.000252942
0.000191472
0.000144786
0.000109368
8.25275e-05
6.22104e-05
4.68475e-05
3.52432e-05
2.64869e-05
1.98868e-05
1.49168e-05
1.11782e-05
8.36863e-06
6.25943e-06
4.67748e-06
3.49221e-06
2.60486e-06
1.9413e-06
1.44545e-06
1.07536e-06
7.99327e-07
5.93647e-07
4.40525e-07
3.26628e-07
2.41973e-07
1.79112e-07
1.32472e-07
9.79217e-08
7.22644e-08
5.33573e-08
3.93463e-08
2.89768e-08
2.13385e-08
1.57097e-08
1.15463e-08
8.4488e-09
6.22835e-09
4.57412e-09
3.34177e-09
2.44249e-09
1.78746e-09
1.31006e-09
9.54792e-10
7.10543e-10
4.996e-10
3.66374e-10
2.77556e-10
1.66533e-10
1.33227e-10
9.99201e-11
6.66134e-11
4.44089e-11
3.33067e-11
1.11022e-11
1.11022e-11
0
11.2735
9.31485
7.66788
6.28927
5.14042
4.18714
3.39943
2.75115
2.21967
1.78557
1.43227
1.14572
0.914081
0.727415
0.57745
0.457319
0.361356
0.284905
0.224155
0.176
0.13792
0.107875
0.084221
0.065638
0.0510686
0.0396684
0.0307648
0.0238235
0.0184213
0.0142237
0.0109673
0.00844477
0.00649364
0.00498665
0.00382435
0.00292917
0.00224067
0.00171185
0.00130624
0.000995531
0.000757835
0.000576223
0.000437635
0.000332008
0.000251598
0.000190456
0.000144018
0.000108789
8.20915e-05
6.18823e-05
4.66009e-05
3.50579e-05
2.6348e-05
1.97827e-05
1.48389e-05
1.11199e-05
8.32517e-06
6.22696e-06
4.65331e-06
3.47415e-06
2.59148e-06
1.93132e-06
1.43809e-06
1.06989e-06
7.95286e-07
5.90639e-07
4.38294e-07
3.24973e-07
2.40763e-07
1.78224e-07
1.31817e-07
9.73999e-08
7.19425e-08
5.30798e-08
3.91576e-08
2.88547e-08
2.12275e-08
1.56208e-08
1.15019e-08
8.43769e-09
6.19504e-09
4.51861e-09
3.31957e-09
2.43139e-09
1.78746e-09
1.32117e-09
9.54792e-10
6.88338e-10
4.88498e-10
3.77476e-10
2.77556e-10
1.77636e-10
1.33227e-10
9.99201e-11
6.66134e-11
3.33067e-11
2.22045e-11
1.11022e-11
-1.11022e-11
-1.11022e-11
11.2099
9.26232
7.62463
6.2538
5.11143
4.16353
3.38026
2.73563
2.20715
1.7755
1.42419
1.13926
0.908926
0.723313
0.574193
0.45474
0.359319
0.283298
0.222891
0.175008
0.137142
0.107267
0.083746
0.0652678
0.0507806
0.0394447
0.0305913
0.0236892
0.0183174
0.0141435
0.0109055
0.00839717
0.00645704
0.00495855
0.00380281
0.00291267
0.00222805
0.00170222
0.00129889
0.000989938
0.00075358
0.00057299
0.000435182
0.000330149
0.00025019
0.000189392
0.000143215
0.000108182
8.16345e-05
6.15383e-05
4.63422e-05
3.48637e-05
2.62023e-05
1.96734e-05
1.47571e-05
1.10587e-05
8.27948e-06
6.19287e-06
4.62789e-06
3.4552e-06
2.57737e-06
1.92085e-06
1.43032e-06
1.06409e-06
7.90978e-07
5.87452e-07
4.35951e-07
3.23219e-07
2.39464e-07
1.77247e-07
1.31106e-07
9.68781e-08
7.15539e-08
5.28022e-08
3.89133e-08
2.87104e-08
2.11497e-08
1.55209e-08
1.14131e-08
8.41549e-09
6.15064e-09
4.51861e-09
3.29736e-09
2.42029e-09
1.76525e-09
1.27676e-09
9.21485e-10
6.55032e-10
4.88498e-10
3.66374e-10
2.55351e-10
1.88738e-10
1.44329e-10
9.99201e-11
6.66134e-11
4.44089e-11
4.44089e-11
2.22045e-11
1.11022e-11
0
11.1436
9.20751
7.57951
6.21679
5.08118
4.13889
3.36026
2.71944
2.19409
1.76499
1.41576
1.13252
0.903547
0.719032
0.570795
0.452049
0.357192
0.281622
0.221571
0.173972
0.136331
0.106632
0.0832503
0.0648815
0.05048
0.0392112
0.0304102
0.023549
0.018209
0.0140598
0.0108409
0.00834749
0.00641885
0.00492923
0.00378033
0.00289546
0.00221489
0.00169217
0.00129123
0.000984099
0.000749137
0.000569615
0.000432621
0.000328207
0.00024872
0.000188279
0.000142374
0.000107548
8.11567e-05
6.11786e-05
4.60717e-05
3.46604e-05
2.60498e-05
1.95591e-05
1.46715e-05
1.09947e-05
8.23157e-06
6.15713e-06
4.60121e-06
3.43535e-06
2.56259e-06
1.90985e-06
1.42213e-06
1.05804e-06
7.8646e-07
5.84111e-07
4.33487e-07
3.2141e-07
2.3811e-07
1.76259e-07
1.30373e-07
9.63785e-08
7.11653e-08
5.25247e-08
3.87246e-08
2.85327e-08
2.10054e-08
1.54321e-08
1.13576e-08
8.31557e-09
6.11733e-09
4.4853e-09
3.29736e-09
2.38698e-09
1.74305e-09
1.27676e-09
9.4369e-10
6.77236e-10
4.77396e-10
3.44169e-10
2.33147e-10
1.77636e-10
1.22125e-10
7.77156e-11
5.55112e-11
4.44089e-11
2.22045e-11
2.22045e-11
0
1.11022e-11
11.0745
9.15042
7.53252
6.17825
5.04968
4.11323
3.33943
2.70258
2.18049
1.75405
1.40699
1.1255
0.897945
0.714574
0.567256
0.449246
0.354977
0.279875
0.220198
0.172893
0.135485
0.10597
0.0827341
0.0644792
0.050167
0.0389681
0.0302217
0.023403
0.0180961
0.0139727
0.0107737
0.00829576
0.00637908
0.00489869
0.00375691
0.00287753
0.00220118
0.0016817
0.00128324
0.000978014
0.000744508
0.000566097
0.000429951
0.000326183
0.000247187
0.00018712
0.000141498
0.000106887
8.06583e-05
6.08033e-05
4.57894e-05
3.44482e-05
2.58905e-05
1.94397e-05
1.4582e-05
1.09278e-05
8.18153e-06
6.11975e-06
4.57335e-06
3.41458e-06
2.54712e-06
1.89835e-06
1.41358e-06
1.05167e-06
7.81752e-07
5.80658e-07
4.30878e-07
3.19489e-07
2.367e-07
1.75226e-07
1.2963e-07
9.579e-08
7.07545e-08
5.21916e-08
3.84914e-08
2.8344e-08
2.08611e-08
1.53433e-08
1.12577e-08
8.28226e-09
6.07292e-09
4.45199e-09
3.25295e-09
2.38698e-09
1.73195e-09
1.27676e-09
9.32587e-10
6.66134e-10
4.996e-10
3.33067e-10
2.44249e-10
1.66533e-10
1.22125e-10
9.99201e-11
7.77156e-11
2.22045e-11
2.22045e-11
1.11022e-11
4.44089e-11
2.22045e-11
11.0026
9.09108
7.48367
6.13818
5.01693
4.08655
3.31777
2.68506
2.16634
1.74267
1.39786
1.1182
0.892121
0.70994
0.563577
0.446333
0.352675
0.27806
0.218769
0.171772
0.134607
0.105283
0.0821975
0.064061
0.0498417
0.0387154
0.0300257
0.0232512
0.0179788
0.0138821
0.0107039
0.00824197
0.00633773
0.00486694
0.00373257
0.00285889
0.00218693
0.00167081
0.00127494
0.000971687
0.000739694
0.000562438
0.000427173
0.000324077
0.000245592
0.000185914
0.000140587
0.000106199
8.01395e-05
6.04125e-05
4.54953e-05
3.42273e-05
2.57246e-05
1.93152e-05
1.44888e-05
1.0858e-05
8.12937e-06
6.08079e-06
4.54424e-06
3.3929e-06
2.53099e-06
1.88634e-06
1.40463e-06
1.04505e-06
7.76834e-07
5.76983e-07
4.2818e-07
3.1749e-07
2.35201e-07
1.74127e-07
1.28797e-07
9.51905e-08
7.02993e-08
5.18585e-08
3.82583e-08
2.81442e-08
2.0739e-08
1.52767e-08
1.11799e-08
8.22675e-09
6.01741e-09
4.41869e-09
3.21965e-09
2.36478e-09
1.72085e-09
1.23235e-09
8.99281e-10
6.55032e-10
4.996e-10
3.44169e-10
2.66454e-10
1.77636e-10
9.99201e-11
1.11022e-10
6.66134e-11
3.33067e-11
3.33067e-11
2.22045e-11
2.22045e-11
0
10.9281
9.02949
7.43297
6.0966
4.98294
4.05887
3.29529
2.66687
2.15167
1.73086
1.38839
1.11062
0.886077
0.70513
0.559759
0.443309
0.350286
0.276176
0.217287
0.170608
0.133695
0.10457
0.0816406
0.063627
0.049504
0.0384531
0.0298223
0.0230937
0.017857
0.0137881
0.0106314
0.00818616
0.00629481
0.00483399
0.0037073
0.00283954
0.00217213
0.00165951
0.00126631
0.000965119
0.000734696
0.000558639
0.000424289
0.00032189
0.000243936
0.00018466
0.00013964
0.000105484
7.96003e-05
6.00063e-05
4.51897e-05
3.39976e-05
2.55521e-05
1.91858e-05
1.43918e-05
1.07854e-05
8.07509e-06
6.04026e-06
4.51401e-06
3.37033e-06
2.51417e-06
1.8738e-06
1.39534e-06
1.03814e-06
7.71727e-07
5.73175e-07
4.25371e-07
3.15403e-07
2.33669e-07
1.72995e-07
1.27953e-07
9.45688e-08
6.9833e-08
5.15366e-08
3.80029e-08
2.79998e-08
2.05946e-08
1.51545e-08
1.11577e-08
8.17124e-09
5.9952e-09
4.38538e-09
3.20854e-09
2.34257e-09
1.69864e-09
1.24345e-09
9.32587e-10
6.66134e-10
4.66294e-10
3.44169e-10
2.44249e-10
1.77636e-10
1.55431e-10
8.88178e-11