/*--------------------------------*- C++ -*----------------------------------*\
| =========                 |                                                 |
| \\      /  F ield         | OpenFOAM: The Open Source CFD Toolbox           |
|  \\    /   O peration     | Version:  2406                                  |
|   \\  /    A nd           | Website:  www.openfoam.com                      |
|    \\/     M anipulation  |                                                 |
\*---------------------------------------------------------------------------*/
FoamFile
{
    version     2.0;
    format      ascii;
    arch        "LSB;label=32;scalar=64";
    class       volVectorField;
    location    "100";
    object      flux;
}
// * * * * * * * * * * * * * * * * * * * * * * * * * * * * * * * * * * * * * //

dimensions      [0 1 -1 1 0 0 0];

internalField   nonuniform List<vector> 
20000
(
(-4.27026e-05 0.0951207 0)
(-0.00012526 0.0949499 0)
(-0.000201899 0.0946197 0)
(-0.000272889 0.0941424 0)
(-0.000338672 0.0935281 0)
(-0.000399508 0.0927876 0)
(-0.000455366 0.0919305 0)
(-0.00050617 0.0909666 0)
(-0.000552854 0.0899056 0)
(-0.000595599 0.088755 0)
(-0.000633942 0.0875236 0)
(-0.000668291 0.0862196 0)
(-0.000699183 0.0848505 0)
(-0.000726766 0.0834229 0)
(-0.000751033 0.0819436 0)
(-0.000772095 0.080419 0)
(-0.000790181 0.0788555 0)
(-0.000805531 0.0772585 0)
(-0.000818329 0.0756335 0)
(-0.000828711 0.0739854 0)
(-0.000836796 0.0723189 0)
(-0.000842708 0.0706384 0)
(-0.000846581 0.0689482 0)
(-0.000848556 0.0672523 0)
(-0.00084877 0.0655542 0)
(-0.000847352 0.0638574 0)
(-0.000844426 0.062165 0)
(-0.000840103 0.0604799 0)
(-0.000834491 0.0588048 0)
(-0.00082769 0.0571422 0)
(-0.000819797 0.0554943 0)
(-0.000810905 0.0538632 0)
(-0.000801101 0.0522508 0)
(-0.00079047 0.050659 0)
(-0.000779094 0.0490892 0)
(-0.00076705 0.0475428 0)
(-0.000754409 0.0460211 0)
(-0.000741241 0.0445253 0)
(-0.000727613 0.0430564 0)
(-0.000713585 0.0416151 0)
(-0.000699216 0.0402022 0)
(-0.000684561 0.0388184 0)
(-0.000669672 0.0374641 0)
(-0.000654598 0.0361399 0)
(-0.000639383 0.0348459 0)
(-0.000624072 0.0335825 0)
(-0.000608704 0.0323498 0)
(-0.000593317 0.0311478 0)
(-0.000577944 0.0299766 0)
(-0.00056262 0.0288362 0)
(-0.000547373 0.0277263 0)
(-0.000532233 0.0266468 0)
(-0.000517224 0.0255975 0)
(-0.000502371 0.0245781 0)
(-0.000487695 0.0235881 0)
(-0.000473216 0.0226274 0)
(-0.000458954 0.0216954 0)
(-0.000444924 0.0207917 0)
(-0.000431143 0.0199158 0)
(-0.000417623 0.0190672 0)
(-0.000404377 0.0182454 0)
(-0.000391417 0.0174498 0)
(-0.000378752 0.0166798 0)
(-0.000366391 0.0159349 0)
(-0.000354342 0.0152144 0)
(-0.000342613 0.0145176 0)
(-0.000331207 0.013844 0)
(-0.000320132 0.0131929 0)
(-0.00030939 0.0125636 0)
(-0.000298986 0.0119554 0)
(-0.000288923 0.0113677 0)
(-0.000279202 0.0107998 0)
(-0.000269826 0.0102509 0)
(-0.000260796 0.00972053 0)
(-0.000252112 0.00920783 0)
(-0.000243774 0.00871215 0)
(-0.000235784 0.00823279 0)
(-0.000228141 0.00776907 0)
(-0.000220843 0.00732029 0)
(-0.000213891 0.00688575 0)
(-0.000207283 0.00646478 0)
(-0.000201018 0.00605667 0)
(-0.000195094 0.00566075 0)
(-0.000189511 0.00527634 0)
(-0.000184267 0.00490276 0)
(-0.000179361 0.00453932 0)
(-0.00017479 0.00418536 0)
(-0.000170553 0.0038402 0)
(-0.000166649 0.00350319 0)
(-0.000163076 0.00317365 0)
(-0.000159833 0.00285092 0)
(-0.000156919 0.00253435 0)
(-0.000154332 0.00222329 0)
(-0.00015207 0.00191707 0)
(-0.000150134 0.00161504 0)
(-0.000148522 0.00131657 0)
(-0.000147233 0.00102099 0)
(-0.000146267 0.00072767 0)
(-0.000145624 0.000435959 0)
(-0.000145302 0.000145212 0)
(-0.000128065 0.0950972 0)
(-0.00037569 0.0949267 0)
(-0.000605657 0.0945966 0)
(-0.000818777 0.0941192 0)
(-0.0010161 0.0935049 0)
(-0.00119809 0.0927645 0)
(-0.00136564 0.091908 0)
(-0.00151872 0.0909443 0)
(-0.0016587 0.0898832 0)
(-0.00178641 0.088733 0)
(-0.00190146 0.0875021 0)
(-0.00200478 0.0861985 0)
(-0.00209753 0.0848296 0)
(-0.00218017 0.0834022 0)
(-0.00225286 0.0819233 0)
(-0.00231603 0.0803992 0)
(-0.00237032 0.0788361 0)
(-0.00241641 0.0772395 0)
(-0.00245482 0.0756149 0)
(-0.00248595 0.0739671 0)
(-0.00251019 0.072301 0)
(-0.00252791 0.0706209 0)
(-0.00253952 0.0689312 0)
(-0.00254545 0.0672357 0)
(-0.00254609 0.0655381 0)
(-0.00254185 0.0638417 0)
(-0.00253307 0.0621497 0)
(-0.00252011 0.060465 0)
(-0.00250327 0.0587903 0)
(-0.00248287 0.0571281 0)
(-0.00245919 0.0554806 0)
(-0.00243251 0.0538499 0)
(-0.0024031 0.0522379 0)
(-0.00237122 0.0506465 0)
(-0.00233709 0.049077 0)
(-0.00230096 0.0475311 0)
(-0.00226304 0.0460098 0)
(-0.00222354 0.0445144 0)
(-0.00218266 0.0430457 0)
(-0.00214058 0.0416048 0)
(-0.00209748 0.0401923 0)
(-0.00205351 0.0388088 0)
(-0.00200885 0.0374549 0)
(-0.00196363 0.0361309 0)
(-0.00191799 0.0348373 0)
(-0.00187206 0.0335742 0)
(-0.00182596 0.0323418 0)
(-0.0017798 0.0311401 0)
(-0.00173369 0.0299692 0)
(-0.00168772 0.0288291 0)
(-0.00164199 0.0277195 0)
(-0.00159657 0.0266402 0)
(-0.00155154 0.0255912 0)
(-0.00150699 0.024572 0)
(-0.00146296 0.0235823 0)
(-0.00141953 0.0226218 0)
(-0.00137675 0.02169 0)
(-0.00133466 0.0207866 0)
(-0.00129332 0.0199109 0)
(-0.00125277 0.0190625 0)
(-0.00121303 0.0182409 0)
(-0.00117415 0.0174455 0)
(-0.00113616 0.0166757 0)
(-0.00109908 0.015931 0)
(-0.00106294 0.0152106 0)
(-0.00102775 0.014514 0)
(-0.00099354 0.0138406 0)
(-0.000960316 0.0131896 0)
(-0.000928095 0.0125605 0)
(-0.000896886 0.0119524 0)
(-0.000866698 0.0113649 0)
(-0.000837538 0.0107971 0)
(-0.000809412 0.0102484 0)
(-0.000782322 0.00971813 0)
(-0.000756272 0.00920556 0)
(-0.000731263 0.00871 0)
(-0.000707294 0.00823076 0)
(-0.000684365 0.00776715 0)
(-0.000662475 0.00731848 0)
(-0.000641619 0.00688405 0)
(-0.000621797 0.00646318 0)
(-0.000603003 0.00605518 0)
(-0.000585235 0.00565936 0)
(-0.000568487 0.00527504 0)
(-0.000552756 0.00490155 0)
(-0.000538038 0.0045382 0)
(-0.000524326 0.00418433 0)
(-0.000511617 0.00383926 0)
(-0.000499906 0.00350232 0)
(-0.000489189 0.00317287 0)
(-0.000479461 0.00285022 0)
(-0.000470718 0.00253373 0)
(-0.000462957 0.00222274 0)
(-0.000456173 0.00191659 0)
(-0.000450365 0.00161464 0)
(-0.000445529 0.00131624 0)
(-0.000441663 0.00102074 0)
(-0.000438766 0.000727491 0)
(-0.000436835 0.000435851 0)
(-0.000435869 0.000145176 0)
(-0.000213191 0.09505 0)
(-0.000625829 0.0948797 0)
(-0.00100942 0.0945501 0)
(-0.00136459 0.0940728 0)
(-0.00169335 0.0934589 0)
(-0.00199643 0.0927187 0)
(-0.00227551 0.0918625 0)
(-0.00253098 0.0908994 0)
(-0.0027642 0.0898388 0)
(-0.00297665 0.0886892 0)
(-0.00316841 0.087459 0)
(-0.00334084 0.086156 0)
(-0.00349547 0.0847877 0)
(-0.00363305 0.083361 0)
(-0.00375407 0.0818828 0)
(-0.00385932 0.0803595 0)
(-0.00394986 0.0787972 0)
(-0.00402671 0.0772014 0)
(-0.00409073 0.0755776 0)
(-0.0041426 0.0739306 0)
(-0.00418297 0.0722653 0)
(-0.00421248 0.0705861 0)
(-0.00423183 0.0688972 0)
(-0.0042417 0.0672025 0)
(-0.00424278 0.0655057 0)
(-0.00423571 0.0638102 0)
(-0.00422109 0.062119 0)
(-0.00419949 0.0604352 0)
(-0.00417143 0.0587613 0)
(-0.00413744 0.0570999 0)
(-0.00409798 0.0554532 0)
(-0.00405353 0.0538233 0)
(-0.00400452 0.0522122 0)
(-0.00395138 0.0506215 0)
(-0.00389451 0.0490528 0)
(-0.0038343 0.0475076 0)
(-0.00377111 0.0459871 0)
(-0.00370529 0.0444924 0)
(-0.00363717 0.0430245 0)
(-0.00356704 0.0415843 0)
(-0.00349522 0.0401724 0)
(-0.00342196 0.0387896 0)
(-0.00334753 0.0374364 0)
(-0.00327218 0.0361131 0)
(-0.00319613 0.0348201 0)
(-0.00311959 0.0335576 0)
(-0.00304277 0.0323258 0)
(-0.00296585 0.0311248 0)
(-0.00288901 0.0299545 0)
(-0.00281241 0.0288148 0)
(-0.00273619 0.0277058 0)
(-0.00266051 0.0266271 0)
(-0.00258548 0.0255786 0)
(-0.00251123 0.0245599 0)
(-0.00243787 0.0235707 0)
(-0.0023655 0.0226106 0)
(-0.0022942 0.0216793 0)
(-0.00222407 0.0207763 0)
(-0.00215518 0.0199011 0)
(-0.0020876 0.0190531 0)
(-0.00202139 0.0182319 0)
(-0.0019566 0.0174369 0)
(-0.00189329 0.0166675 0)
(-0.0018315 0.0159231 0)
(-0.00177128 0.0152031 0)
(-0.00171264 0.0145069 0)
(-0.00165563 0.0138338 0)
(-0.00160026 0.0131831 0)
(-0.00154657 0.0125543 0)
(-0.00149456 0.0119465 0)
(-0.00144426 0.0113593 0)
(-0.00139567 0.0107918 0)
(-0.0013488 0.0102434 0)
(-0.00130366 0.00971334 0)
(-0.00126025 0.00920101 0)
(-0.00121857 0.0087057 0)
(-0.00117863 0.0082267 0)
(-0.00114042 0.00776332 0)
(-0.00110394 0.00731487 0)
(-0.00106919 0.00688065 0)
(-0.00103616 0.00645999 0)
(-0.00100484 0.00605219 0)
(-0.000975231 0.00565657 0)
(-0.000947323 0.00527244 0)
(-0.000921109 0.00489913 0)
(-0.000896582 0.00453596 0)
(-0.000873733 0.00418226 0)
(-0.000852555 0.00383736 0)
(-0.000833039 0.0035006 0)
(-0.00081518 0.0031713 0)
(-0.000798969 0.00284881 0)
(-0.000784401 0.00253248 0)
(-0.000771467 0.00222164 0)
(-0.000760164 0.00191565 0)
(-0.000750485 0.00161385 0)
(-0.000742427 0.00131559 0)
(-0.000735985 0.00102024 0)
(-0.000731156 0.000727132 0)
(-0.000727938 0.000435636 0)
(-0.000726329 0.000145105 0)
(-0.000298378 0.0949796 0)
(-0.000875646 0.094809 0)
(-0.00141261 0.09448 0)
(-0.00190994 0.0940031 0)
(-0.00237011 0.0933898 0)
(-0.00279445 0.0926501 0)
(-0.00318494 0.0917944 0)
(-0.0035425 0.0908321 0)
(-0.00386893 0.0897723 0)
(-0.00416615 0.0886236 0)
(-0.00443463 0.0873943 0)
(-0.00467613 0.0860922 0)
(-0.00489256 0.0847248 0)
(-0.00508501 0.0832992 0)
(-0.00525432 0.0818222 0)
(-0.00540164 0.0803001 0)
(-0.00552843 0.0787389 0)
(-0.00563604 0.0771443 0)
(-0.00572566 0.0755216 0)
(-0.00579824 0.0738758 0)
(-0.00585472 0.0722117 0)
(-0.00589601 0.0705338 0)
(-0.00592308 0.0688461 0)
(-0.0059369 0.0671527 0)
(-0.00593842 0.0654572 0)
(-0.00592853 0.0637629 0)
(-0.00590807 0.062073 0)
(-0.00587783 0.0603904 0)
(-0.00583857 0.0587178 0)
(-0.00579099 0.0570576 0)
(-0.00573576 0.0554121 0)
(-0.00567354 0.0537835 0)
(-0.00560494 0.0521735 0)
(-0.00553056 0.050584 0)
(-0.00545097 0.0490165 0)
(-0.0053667 0.0474724 0)
(-0.00527826 0.045953 0)
(-0.00518613 0.0444594 0)
(-0.00509078 0.0429926 0)
(-0.00499263 0.0415535 0)
(-0.0048921 0.0401427 0)
(-0.00478956 0.0387609 0)
(-0.00468539 0.0374087 0)
(-0.00457992 0.0360864 0)
(-0.00447348 0.0347943 0)
(-0.00436635 0.0335328 0)
(-0.00425883 0.0323019 0)
(-0.00415117 0.0311017 0)
(-0.00404361 0.0299323 0)
(-0.0039364 0.0287935 0)
(-0.00382972 0.0276853 0)
(-0.00372379 0.0266074 0)
(-0.00361878 0.0255596 0)
(-0.00351486 0.0245417 0)
(-0.00341218 0.0235532 0)
(-0.00331088 0.0225939 0)
(-0.00321109 0.0216633 0)
(-0.00311293 0.0207609 0)
(-0.00301651 0.0198863 0)
(-0.00292192 0.019039 0)
(-0.00282924 0.0182184 0)
(-0.00273857 0.017424 0)
(-0.00264996 0.0166552 0)
(-0.00256347 0.0159113 0)
(-0.00247917 0.0151919 0)
(-0.0023971 0.0144961 0)
(-0.00231731 0.0138235 0)
(-0.00223982 0.0131733 0)
(-0.00216466 0.012545 0)
(-0.00209187 0.0119377 0)
(-0.00202146 0.0113509 0)
(-0.00195345 0.0107838 0)
(-0.00188785 0.0102358 0)
(-0.00182467 0.00970614 0)
(-0.00176391 0.0091942 0)
(-0.00170558 0.00869925 0)
(-0.00164967 0.00822061 0)
(-0.0015962 0.00775757 0)
(-0.00154514 0.00730945 0)
(-0.0014965 0.00687556 0)
(-0.00145026 0.00645521 0)
(-0.00140643 0.00604771 0)
(-0.00136499 0.00565238 0)
(-0.00132592 0.00526853 0)
(-0.00128923 0.0048955 0)
(-0.0012549 0.0045326 0)
(-0.00122292 0.00417916 0)
(-0.00119328 0.00383452 0)
(-0.00116597 0.003498 0)
(-0.00114097 0.00316895 0)
(-0.00111828 0.0028467 0)
(-0.00109789 0.0025306 0)
(-0.00107979 0.00222 0)
(-0.00106397 0.00191423 0)
(-0.00105042 0.00161265 0)
(-0.00103914 0.00131462 0)
(-0.00103012 0.00101948 0)
(-0.00102337 0.000726594 0)
(-0.00101886 0.000435314 0)
(-0.00101661 0.000144997 0)
(-0.000383814 0.0948862 0)
(-0.00112552 0.0947154 0)
(-0.00181537 0.0943865 0)
(-0.00245479 0.0939102 0)
(-0.00304629 0.0932974 0)
(-0.00359175 0.0925586 0)
(-0.00409356 0.0917038 0)
(-0.00455313 0.0907424 0)
(-0.0049727 0.0896836 0)
(-0.00535466 0.0885361 0)
(-0.0056998 0.0873079 0)
(-0.00601028 0.0860071 0)
(-0.00628843 0.0846411 0)
(-0.00653569 0.083217 0)
(-0.00675325 0.0817414 0)
(-0.00694263 0.0802208 0)
(-0.00710564 0.0786611 0)
(-0.007244 0.0770681 0)
(-0.00735918 0.075447 0)
(-0.00745246 0.0738028 0)
(-0.00752501 0.0721404 0)
(-0.00757807 0.0704641 0)
(-0.00761286 0.0687781 0)
(-0.00763063 0.0670864 0)
(-0.00763259 0.0653926 0)
(-0.00761988 0.0637 0)
(-0.00759359 0.0620117 0)
(-0.00755473 0.0603308 0)
(-0.00750427 0.0586598 0)
(-0.00744311 0.0570012 0)
(-0.00737212 0.0553574 0)
(-0.00729215 0.0537303 0)
(-0.00720398 0.052122 0)
(-0.00710839 0.050534 0)
(-0.00700609 0.0489681 0)
(-0.00689777 0.0474255 0)
(-0.0067841 0.0459076 0)
(-0.00666569 0.0444155 0)
(-0.00654313 0.0429502 0)
(-0.00641698 0.0415124 0)
(-0.00628777 0.040103 0)
(-0.00615598 0.0387226 0)
(-0.00602209 0.0373717 0)
(-0.00588653 0.0360507 0)
(-0.00574972 0.0347599 0)
(-0.00561203 0.0334996 0)
(-0.00547383 0.03227 0)
(-0.00533546 0.031071 0)
(-0.00519722 0.0299027 0)
(-0.00505942 0.0287651 0)
(-0.00492231 0.0276579 0)
(-0.00478616 0.0265811 0)
(-0.00465119 0.0255344 0)
(-0.00451762 0.0245174 0)
(-0.00438564 0.02353 0)
(-0.00425544 0.0225716 0)
(-0.00412719 0.0216419 0)
(-0.00400103 0.0207404 0)
(-0.00387709 0.0198667 0)
(-0.00375551 0.0190202 0)
(-0.0036364 0.0182004 0)
(-0.00351985 0.0174068 0)
(-0.00340596 0.0166387 0)
(-0.00329481 0.0158956 0)
(-0.00318646 0.0151768 0)
(-0.00308098 0.0144818 0)
(-0.00297841 0.0138099 0)
(-0.00287882 0.0131603 0)
(-0.00278222 0.0125326 0)
(-0.00268867 0.0119259 0)
(-0.00259817 0.0113396 0)
(-0.00251075 0.0107731 0)
(-0.00242644 0.0102257 0)
(-0.00234523 0.00969656 0)
(-0.00226714 0.00918512 0)
(-0.00219217 0.00869066 0)
(-0.00212031 0.00821249 0)
(-0.00205158 0.00774991 0)
(-0.00198595 0.00730223 0)
(-0.00192343 0.00686877 0)
(-0.00186401 0.00644883 0)
(-0.00180767 0.00604173 0)
(-0.0017544 0.00564679 0)
(-0.0017042 0.00526333 0)
(-0.00165704 0.00489066 0)
(-0.00161292 0.00452812 0)
(-0.00157181 0.00417504 0)
(-0.00153371 0.00383073 0)
(-0.00149861 0.00349455 0)
(-0.00146648 0.00316582 0)
(-0.00143732 0.00284389 0)
(-0.00141111 0.0025281 0)
(-0.00138784 0.0022178 0)
(-0.00136751 0.00191234 0)
(-0.0013501 0.00161106 0)
(-0.0013356 0.00131332 0)
(-0.00132401 0.00101847 0)
(-0.00131532 0.000725876 0)
(-0.00130953 0.000434884 0)
(-0.00130664 0.000144854 0)
(-0.000469217 0.0947691 0)
(-0.00137533 0.0945986 0)
(-0.00221782 0.0942699 0)
(-0.00299906 0.0937941 0)
(-0.0037217 0.0931821 0)
(-0.00438812 0.0924442 0)
(-0.00500116 0.0915905 0)
(-0.00556263 0.0906303 0)
(-0.00607526 0.0895728 0)
(-0.00654187 0.0884267 0)
(-0.00696358 0.0872 0)
(-0.00734294 0.0859008 0)
(-0.00768272 0.0845365 0)
(-0.00798473 0.0831142 0)
(-0.00825051 0.0816404 0)
(-0.00848192 0.0801217 0)
(-0.00868112 0.0785639 0)
(-0.00885019 0.0769729 0)
(-0.0089909 0.0753537 0)
(-0.00910483 0.0737116 0)
(-0.00919345 0.0720512 0)
(-0.00925825 0.070377 0)
(-0.00930075 0.0686932 0)
(-0.00932247 0.0670035 0)
(-0.00932487 0.0653118 0)
(-0.00930936 0.0636213 0)
(-0.00927724 0.0619351 0)
(-0.00922977 0.0602563 0)
(-0.00916812 0.0585873 0)
(-0.0090934 0.0569308 0)
(-0.00900667 0.055289 0)
(-0.00890896 0.053664 0)
(-0.00880125 0.0520576 0)
(-0.00868446 0.0504716 0)
(-0.00855947 0.0489076 0)
(-0.00842714 0.0473669 0)
(-0.00828826 0.0458509 0)
(-0.0081436 0.0443606 0)
(-0.00799387 0.0428971 0)
(-0.00783975 0.0414611 0)
(-0.00768189 0.0400535 0)
(-0.00752088 0.0386748 0)
(-0.00735731 0.0373255 0)
(-0.00719169 0.0360062 0)
(-0.00702454 0.034717 0)
(-0.00685633 0.0334583 0)
(-0.00668749 0.0322301 0)
(-0.00651843 0.0310326 0)
(-0.00634955 0.0298658 0)
(-0.00618119 0.0287295 0)
(-0.00601368 0.0276237 0)
(-0.00584734 0.0265483 0)
(-0.00568245 0.0255028 0)
(-0.00551926 0.0244871 0)
(-0.00535803 0.0235009 0)
(-0.00519896 0.0225437 0)
(-0.00504227 0.0216151 0)
(-0.00488813 0.0207148 0)
(-0.00473672 0.0198421 0)
(-0.00458818 0.0189967 0)
(-0.00444266 0.0181779 0)
(-0.00430027 0.0173853 0)
(-0.00416113 0.0166181 0)
(-0.00402533 0.015876 0)
(-0.00389296 0.0151581 0)
(-0.00376409 0.0144639 0)
(-0.00363879 0.0137928 0)
(-0.00351711 0.0131441 0)
(-0.0033991 0.0125171 0)
(-0.00328479 0.0119112 0)
(-0.00317423 0.0113256 0)
(-0.00306744 0.0107598 0)
(-0.00296443 0.010213 0)
(-0.00286521 0.00968458 0)
(-0.00276981 0.00917377 0)
(-0.00267821 0.00867992 0)
(-0.00259043 0.00820234 0)
(-0.00250645 0.00774033 0)
(-0.00242628 0.00729321 0)
(-0.0023499 0.00686028 0)
(-0.0022773 0.00644086 0)
(-0.00220847 0.00603427 0)
(-0.00214339 0.00563982 0)
(-0.00208205 0.00525683 0)
(-0.00202444 0.00488462 0)
(-0.00197053 0.00452253 0)
(-0.00192032 0.00416988 0)
(-0.00187377 0.003826 0)
(-0.00183088 0.00349023 0)
(-0.00179163 0.00316191 0)
(-0.001756 0.00284038 0)
(-0.00172398 0.00252498 0)
(-0.00169555 0.00221506 0)
(-0.00167071 0.00190998 0)
(-0.00164944 0.00160907 0)
(-0.00163173 0.0013117 0)
(-0.00161757 0.00101722 0)
(-0.00160696 0.000724979 0)
(-0.00159988 0.000434346 0)
(-0.00159635 0.000144675 0)
(-0.000554388 0.0946284 0)
(-0.00162474 0.0944583 0)
(-0.00261979 0.0941301 0)
(-0.00354259 0.093655 0)
(-0.00439619 0.0930439 0)
(-0.00518339 0.0923071 0)
(-0.00590751 0.0914546 0)
(-0.00657077 0.0904958 0)
(-0.00717634 0.0894399 0)
(-0.00772748 0.0882954 0)
(-0.00822562 0.0870706 0)
(-0.00867377 0.0857734 0)
(-0.0090751 0.0844111 0)
(-0.00943181 0.0829909 0)
(-0.00974573 0.0815193 0)
(-0.0100191 0.0800028 0)
(-0.0102545 0.0784474 0)
(-0.0104542 0.0768586 0)
(-0.0106204 0.0752419 0)
(-0.010755 0.0736022 0)
(-0.0108596 0.0719443 0)
(-0.0109361 0.0702726 0)
(-0.0109863 0.0685912 0)
(-0.011012 0.0669041 0)
(-0.0110149 0.0652149 0)
(-0.0109965 0.0635269 0)
(-0.0109586 0.0618432 0)
(-0.0109025 0.0601669 0)
(-0.0108297 0.0585004 0)
(-0.0107414 0.0568464 0)
(-0.010639 0.055207 0)
(-0.0105236 0.0535843 0)
(-0.0103963 0.0519803 0)
(-0.0102584 0.0503967 0)
(-0.0101107 0.048835 0)
(-0.00995443 0.0472966 0)
(-0.00979038 0.0457829 0)
(-0.0096195 0.0442948 0)
(-0.00944264 0.0428334 0)
(-0.00926059 0.0413996 0)
(-0.00907411 0.0399941 0)
(-0.00888393 0.0386174 0)
(-0.00869071 0.0372702 0)
(-0.00849508 0.0359527 0)
(-0.00829764 0.0346655 0)
(-0.00809893 0.0334086 0)
(-0.00789949 0.0321823 0)
(-0.0076998 0.0309866 0)
(-0.00750031 0.0298214 0)
(-0.00730143 0.0286869 0)
(-0.00710357 0.0275828 0)
(-0.00690708 0.0265089 0)
(-0.0067123 0.025465 0)
(-0.00651954 0.0244508 0)
(-0.00632909 0.023466 0)
(-0.00614119 0.0225102 0)
(-0.0059561 0.0215831 0)
(-0.00577403 0.020684 0)
(-0.00559518 0.0198127 0)
(-0.00541972 0.0189685 0)
(-0.00524783 0.018151 0)
(-0.00507963 0.0173595 0)
(-0.00491527 0.0165935 0)
(-0.00475486 0.0158524 0)
(-0.0045985 0.0151356 0)
(-0.00444627 0.0144425 0)
(-0.00429826 0.0137723 0)
(-0.00415453 0.0131246 0)
(-0.00401513 0.0124985 0)
(-0.00388011 0.0118935 0)
(-0.00374951 0.0113088 0)
(-0.00362336 0.0107439 0)
(-0.00350168 0.0101979 0)
(-0.00338449 0.00967021 0)
(-0.00327179 0.00916016 0)
(-0.0031636 0.00866704 0)
(-0.0030599 0.00819017 0)
(-0.00296071 0.00772885 0)
(-0.002866 0.00728239 0)
(-0.00277578 0.0068501 0)
(-0.00269002 0.00643131 0)
(-0.00260872 0.00602532 0)
(-0.00253185 0.00563145 0)
(-0.00245939 0.00524903 0)
(-0.00239134 0.00487737 0)
(-0.00232766 0.00451582 0)
(-0.00226834 0.00416369 0)
(-0.00221336 0.00382032 0)
(-0.0021627 0.00348505 0)
(-0.00211633 0.00315722 0)
(-0.00207425 0.00283616 0)
(-0.00203642 0.00252123 0)
(-0.00200285 0.00221178 0)
(-0.0019735 0.00190714 0)
(-0.00194837 0.00160668 0)
(-0.00192745 0.00130975 0)
(-0.00191073 0.00101571 0)
(-0.00189819 0.000723903 0)
(-0.00188984 0.000433702 0)
(-0.00188566 0.000144461 0)
(-0.000639335 0.0944643 0)
(-0.00187367 0.0942946 0)
(-0.00302112 0.093967 0)
(-0.00408525 0.0934927 0)
(-0.00506959 0.0928827 0)
(-0.00597739 0.0921472 0)
(-0.00681242 0.0912961 0)
(-0.00757731 0.090339 0)
(-0.00827565 0.0892849 0)
(-0.00891117 0.0881424 0)
(-0.00948563 0.0869198 0)
(-0.0100025 0.0856248 0)
(-0.0104652 0.0842649 0)
(-0.0108766 0.0828471 0)
(-0.0112386 0.0813781 0)
(-0.0115539 0.0798642 0)
(-0.0118253 0.0783114 0)
(-0.0120556 0.0767254 0)
(-0.0122473 0.0751115 0)
(-0.0124024 0.0734747 0)
(-0.0125231 0.0718197 0)
(-0.0126113 0.0701508 0)
(-0.0126692 0.0684724 0)
(-0.0126988 0.0667882 0)
(-0.0127021 0.0651019 0)
(-0.012681 0.0634168 0)
(-0.0126373 0.0617361 0)
(-0.0125726 0.0600626 0)
(-0.0124886 0.058399 0)
(-0.0123868 0.0567479 0)
(-0.0122687 0.0551113 0)
(-0.0121356 0.0534915 0)
(-0.0119889 0.0518903 0)
(-0.0118298 0.0503094 0)
(-0.0116595 0.0487504 0)
(-0.0114793 0.0472147 0)
(-0.0112901 0.0457036 0)
(-0.011093 0.0442181 0)
(-0.0108891 0.0427592 0)
(-0.0106791 0.0413279 0)
(-0.0104641 0.0399248 0)
(-0.0102448 0.0385505 0)
(-0.010022 0.0372056 0)
(-0.00979637 0.0358905 0)
(-0.00956868 0.0346054 0)
(-0.00933954 0.0333507 0)
(-0.00910955 0.0321265 0)
(-0.00887927 0.0309329 0)
(-0.00864921 0.0297698 0)
(-0.00841988 0.0286372 0)
(-0.00819171 0.027535 0)
(-0.00796512 0.0264629 0)
(-0.0077405 0.0254208 0)
(-0.00751822 0.0244084 0)
(-0.00729858 0.0234254 0)
(-0.00708191 0.0224712 0)
(-0.00686847 0.0215457 0)
(-0.0066585 0.0206482 0)
(-0.00645226 0.0197784 0)
(-0.00624992 0.0189356 0)
(-0.0060517 0.0181195 0)
(-0.00585774 0.0173294 0)
(-0.0056682 0.0165647 0)
(-0.00548322 0.0158249 0)
(-0.0053029 0.0151094 0)
(-0.00512736 0.0144174 0)
(-0.00495668 0.0137485 0)
(-0.00479093 0.0131018 0)
(-0.00463017 0.0124769 0)
(-0.00447448 0.0118729 0)
(-0.00432387 0.0112892 0)
(-0.0041784 0.0107252 0)
(-0.00403808 0.0101802 0)
(-0.00390293 0.00965345 0)
(-0.00377297 0.00914429 0)
(-0.0036482 0.00865203 0)
(-0.00352862 0.00817598 0)
(-0.00341423 0.00771546 0)
(-0.00330502 0.00726977 0)
(-0.00320098 0.00683823 0)
(-0.00310208 0.00642016 0)
(-0.00300832 0.00601488 0)
(-0.00291968 0.00562169 0)
(-0.00283613 0.00523993 0)
(-0.00275765 0.00486892 0)
(-0.00268422 0.00450799 0)
(-0.00261581 0.00415648 0)
(-0.00255241 0.0038137 0)
(-0.00249398 0.00347901 0)
(-0.00244051 0.00315175 0)
(-0.00239198 0.00283125 0)
(-0.00234837 0.00251687 0)
(-0.00230965 0.00220794 0)
(-0.00227581 0.00190384 0)
(-0.00224683 0.0016039 0)
(-0.0022227 0.00130748 0)
(-0.00220342 0.00101395 0)
(-0.00218896 0.000722649 0)
(-0.00217933 0.00043295 0)
(-0.00217451 0.00014421 0)
(-0.000724099 0.094277 0)
(-0.00212209 0.0941077 0)
(-0.00342168 0.0937807 0)
(-0.0046269 0.0933074 0)
(-0.00574175 0.0926985 0)
(-0.00676992 0.0919645 0)
(-0.00771565 0.0911151 0)
(-0.00858197 0.0901599 0)
(-0.00937292 0.0891079 0)
(-0.0100927 0.0879677 0)
(-0.0107433 0.0867474 0)
(-0.0113287 0.085455 0)
(-0.0118528 0.0840978 0)
(-0.0123186 0.0826828 0)
(-0.0127286 0.0812167 0)
(-0.0130857 0.0797058 0)
(-0.0133932 0.0781562 0)
(-0.0136541 0.0765733 0)
(-0.0138711 0.0749626 0)
(-0.0140468 0.073329 0)
(-0.0141835 0.0716773 0)
(-0.0142834 0.0700118 0)
(-0.014349 0.0683367 0)
(-0.0143825 0.0666558 0)
(-0.0143862 0.0649728 0)
(-0.0143623 0.0632911 0)
(-0.0143128 0.0616137 0)
(-0.0142396 0.0599435 0)
(-0.0141445 0.0582833 0)
(-0.0140292 0.0566354 0)
(-0.0138954 0.0550021 0)
(-0.0137446 0.0533854 0)
(-0.0135784 0.0517874 0)
(-0.0133983 0.0502096 0)
(-0.0132054 0.0486537 0)
(-0.0130013 0.0471211 0)
(-0.012787 0.0456129 0)
(-0.0125638 0.0441304 0)
(-0.0123328 0.0426745 0)
(-0.0120951 0.0412459 0)
(-0.0118515 0.0398456 0)
(-0.0116031 0.0384741 0)
(-0.0113507 0.0371318 0)
(-0.0110952 0.0358193 0)
(-0.0108374 0.0345368 0)
(-0.0105778 0.0332846 0)
(-0.0103174 0.0320628 0)
(-0.0100565 0.0308715 0)
(-0.00979599 0.0297108 0)
(-0.00953624 0.0285804 0)
(-0.00927782 0.0274804 0)
(-0.00902119 0.0264105 0)
(-0.00876679 0.0253705 0)
(-0.00851503 0.02436 0)
(-0.00826628 0.0233789 0)
(-0.00802088 0.0224267 0)
(-0.00777913 0.021503 0)
(-0.00754134 0.0206073 0)
(-0.00730774 0.0197392 0)
(-0.00707858 0.0188981 0)
(-0.00685407 0.0180836 0)
(-0.0066344 0.017295 0)
(-0.00641973 0.0165319 0)
(-0.00621022 0.0157936 0)
(-0.006006 0.0150794 0)
(-0.00580718 0.0143889 0)
(-0.00561387 0.0137212 0)
(-0.00542614 0.0130759 0)
(-0.00524408 0.0124521 0)
(-0.00506773 0.0118493 0)
(-0.00489716 0.0112669 0)
(-0.0047324 0.010704 0)
(-0.00457347 0.01016 0)
(-0.00442041 0.00963431 0)
(-0.00427322 0.00912616 0)
(-0.0041319 0.00863487 0)
(-0.00399647 0.00815977 0)
(-0.00386692 0.00770016 0)
(-0.00374322 0.00725536 0)
(-0.00362538 0.00682468 0)
(-0.00351338 0.00640744 0)
(-0.00340719 0.00600295 0)
(-0.00330679 0.00561055 0)
(-0.00321216 0.00522954 0)
(-0.00312328 0.00485927 0)
(-0.00304011 0.00449906 0)
(-0.00296263 0.00414824 0)
(-0.00289082 0.00380614 0)
(-0.00282465 0.00347212 0)
(-0.0027641 0.0031455 0)
(-0.00270913 0.00282564 0)
(-0.00265973 0.00251188 0)
(-0.00261588 0.00220357 0)
(-0.00257755 0.00190006 0)
(-0.00254473 0.00160072 0)
(-0.00251741 0.00130489 0)
(-0.00249556 0.00101194 0)
(-0.00247919 0.000721217 0)
(-0.00246828 0.000432092 0)
(-0.00246282 0.000143924 0)
(-0.000808683 0.0940665 0)
(-0.00236998 0.0938975 0)
(-0.00382139 0.0935713 0)
(-0.00516741 0.093099 0)
(-0.00641249 0.0924915 0)
(-0.00756079 0.0917591 0)
(-0.00861699 0.0909117 0)
(-0.00958452 0.0899586 0)
(-0.0104679 0.0889089 0)
(-0.0112717 0.0877713 0)
(-0.0119983 0.0865537 0)
(-0.0126521 0.0852642 0)
(-0.0132374 0.08391 0)
(-0.0137576 0.0824982 0)
(-0.0142156 0.0810354 0)
(-0.0146144 0.0795278 0)
(-0.0149578 0.0779816 0)
(-0.0152492 0.0764023 0)
(-0.0154916 0.0747952 0)
(-0.0156878 0.0731653 0)
(-0.0158404 0.0715172 0)
(-0.015952 0.0698554 0)
(-0.0160252 0.0681841 0)
(-0.0160626 0.066507 0)
(-0.0160668 0.0648278 0)
(-0.0160401 0.0631498 0)
(-0.0159848 0.0614761 0)
(-0.015903 0.0598097 0)
(-0.0157968 0.0581531 0)
(-0.0156681 0.0565089 0)
(-0.0155186 0.0548792 0)
(-0.0153503 0.0532662 0)
(-0.0151647 0.0516717 0)
(-0.0149634 0.0500975 0)
(-0.0147481 0.0485451 0)
(-0.0145201 0.0470159 0)
(-0.0142808 0.0455111 0)
(-0.0140315 0.0440319 0)
(-0.0137735 0.0425792 0)
(-0.013508 0.0411538 0)
(-0.013236 0.0397566 0)
(-0.0129586 0.0383881 0)
(-0.0126767 0.0370489 0)
(-0.0123914 0.0357393 0)
(-0.0121034 0.0344597 0)
(-0.0118135 0.0332103 0)
(-0.0115226 0.0319912 0)
(-0.0112313 0.0308026 0)
(-0.0109403 0.0296444 0)
(-0.0106503 0.0285166 0)
(-0.0103616 0.027419 0)
(-0.010075 0.0263515 0)
(-0.00979092 0.0253138 0)
(-0.00950975 0.0243056 0)
(-0.00923194 0.0233267 0)
(-0.00895787 0.0223766 0)
(-0.00868788 0.0214549 0)
(-0.00842231 0.0205613 0)
(-0.00816142 0.0196951 0)
(-0.00790549 0.0188559 0)
(-0.00765476 0.0180432 0)
(-0.00740942 0.0172564 0)
(-0.00716968 0.016495 0)
(-0.0069357 0.0157583 0)
(-0.00670762 0.0150458 0)
(-0.00648557 0.0143567 0)
(-0.00626967 0.0136906 0)
(-0.00606002 0.0130467 0)
(-0.00585668 0.0124243 0)
(-0.00565974 0.0118229 0)
(-0.00546924 0.0112417 0)
(-0.00528523 0.0106801 0)
(-0.00510774 0.0101373 0)
(-0.0049368 0.0096128 0)
(-0.00477241 0.00910578 0)
(-0.00461459 0.00861559 0)
(-0.00446334 0.00814155 0)
(-0.00431865 0.00768296 0)
(-0.0041805 0.00723916 0)
(-0.0040489 0.00680944 0)
(-0.00392381 0.00639313 0)
(-0.00380521 0.00598955 0)
(-0.00369309 0.00559802 0)
(-0.0035874 0.00521787 0)
(-0.00348814 0.00484842 0)
(-0.00339525 0.00448901 0)
(-0.00330873 0.00413897 0)
(-0.00322853 0.00379764 0)
(-0.00315463 0.00346436 0)
(-0.00308699 0.00313848 0)
(-0.00302561 0.00281933 0)
(-0.00297044 0.00250627 0)
(-0.00292146 0.00219865 0)
(-0.00287865 0.00189582 0)
(-0.002842 0.00159714 0)
(-0.00281149 0.00130198 0)
(-0.00278709 0.00100968 0)
(-0.0027688 0.000719606 0)
(-0.00275662 0.000431127 0)
(-0.00275053 0.000143603 0)
(-0.00089307 0.0938327 0)
(-0.00261729 0.0936642 0)
(-0.00422017 0.0933388 0)
(-0.00570665 0.0928677 0)
(-0.00708166 0.0922617 0)
(-0.00834979 0.0915311 0)
(-0.00951619 0.0906858 0)
(-0.0105847 0.089735 0)
(-0.0115602 0.088688 0)
(-0.0124479 0.0875532 0)
(-0.0132503 0.0863387 0)
(-0.0139724 0.0850523 0)
(-0.0146188 0.0837015 0)
(-0.0151933 0.0822932 0)
(-0.015699 0.080834 0)
(-0.0161395 0.0793302 0)
(-0.0165187 0.0777879 0)
(-0.0168405 0.0762125 0)
(-0.0171082 0.0746094 0)
(-0.0173248 0.0729835 0)
(-0.0174933 0.0713395 0)
(-0.0176166 0.0696819 0)
(-0.0176974 0.0680146 0)
(-0.0177388 0.0663417 0)
(-0.0177434 0.0646667 0)
(-0.017714 0.0629929 0)
(-0.0176529 0.0613234 0)
(-0.0175626 0.0596611 0)
(-0.0174453 0.0580086 0)
(-0.0173031 0.0563685 0)
(-0.017138 0.0547429 0)
(-0.0169521 0.0531339 0)
(-0.0167472 0.0515433 0)
(-0.0165249 0.049973 0)
(-0.0162871 0.0484245 0)
(-0.0160353 0.046899 0)
(-0.015771 0.045398 0)
(-0.0154958 0.0439224 0)
(-0.0152108 0.0424734 0)
(-0.0149176 0.0410516 0)
(-0.0146172 0.0396578 0)
(-0.0143108 0.0382928 0)
(-0.0139996 0.0369568 0)
(-0.0136844 0.0356505 0)
(-0.0133664 0.0343741 0)
(-0.0130463 0.0331278 0)
(-0.012725 0.0319117 0)
(-0.0124034 0.0307261 0)
(-0.012082 0.0295707 0)
(-0.0117616 0.0284457 0)
(-0.0114429 0.0273509 0)
(-0.0111264 0.026286 0)
(-0.0108126 0.0252509 0)
(-0.0105021 0.0242453 0)
(-0.0101953 0.0232687 0)
(-0.00989265 0.022321 0)
(-0.00959449 0.0214016 0)
(-0.0093012 0.0205102 0)
(-0.00901309 0.0196461 0)
(-0.00873046 0.018809 0)
(-0.00845355 0.0179984 0)
(-0.00818262 0.0172135 0)
(-0.00791786 0.016454 0)
(-0.00765946 0.0157191 0)
(-0.00740758 0.0150084 0)
(-0.00716236 0.014321 0)
(-0.00692393 0.0136566 0)
(-0.0066924 0.0130142 0)
(-0.00646785 0.0123934 0)
(-0.00625035 0.0117935 0)
(-0.00603997 0.0112138 0)
(-0.00583676 0.0106535 0)
(-0.00564075 0.0101121 0)
(-0.00545196 0.00958891 0)
(-0.00527042 0.00908315 0)
(-0.00509614 0.00859418 0)
(-0.0049291 0.00812132 0)
(-0.00476931 0.00766387 0)
(-0.00461675 0.00722117 0)
(-0.00447141 0.00679252 0)
(-0.00433327 0.00637724 0)
(-0.0042023 0.00597466 0)
(-0.00407847 0.00558411 0)
(-0.00396176 0.0052049 0)
(-0.00385213 0.00483637 0)
(-0.00374956 0.00447786 0)
(-0.003654 0.00412869 0)
(-0.00356543 0.00378821 0)
(-0.00348382 0.00345576 0)
(-0.00340913 0.00313068 0)
(-0.00334134 0.00281232 0)
(-0.00328041 0.00250004 0)
(-0.00322632 0.00219318 0)
(-0.00317905 0.00189111 0)
(-0.00313857 0.00159318 0)
(-0.00310487 0.00129874 0)
(-0.00307793 0.00100717 0)
(-0.00305774 0.000717818 0)
(-0.00304428 0.000430056 0)
(-0.00303755 0.000143246 0)
(-0.000977238 0.0935759 0)
(-0.00286396 0.0934078 0)
(-0.0046179 0.0930832 0)
(-0.00624448 0.0926134 0)
(-0.00774908 0.0920091 0)
(-0.00913673 0.0912805 0)
(-0.010413 0.0904375 0)
(-0.0115823 0.0894894 0)
(-0.0126498 0.0884452 0)
(-0.013621 0.0873135 0)
(-0.0144991 0.0861023 0)
(-0.0152892 0.0848195 0)
(-0.0159966 0.0834724 0)
(-0.0166252 0.0820679 0)
(-0.0171785 0.0806127 0)
(-0.0176606 0.079113 0)