/*--------------------------------*- C++ -*----------------------------------*\
| =========                 |                                                 |
| \\      /  F ield         | OpenFOAM: The Open Source CFD Toolbox           |
|  \\    /   O peration     | Version:  2406                                  |
|   \\  /    A nd           | Website:  www.openfoam.com                      |
|    \\/     M anipulation  |                                                 |
\*---------------------------------------------------------------------------*/
FoamFile
{
    version     2.0;
    format      ascii;
    arch        "LSB;label=32;scalar=64";
    class       volScalarField;
    location    "100";
    object      gradTx;
}
// * * * * * * * * * * * * * * * * * * * * * * * * * * * * * * * * * * * * * //

dimensions      [0 -1 0 1 0 0 0];

internalField   nonuniform List<scalar> 
20000
(
-0.126949
-0.372381
-0.600217
-0.81126
-1.00683
-1.18768
-1.35374
-1.50477
-1.64356
-1.77063
-1.88462
-1.98674
-2.07858
-2.16058
-2.23272
-2.29533
-2.3491
-2.39473
-2.43278
-2.46365
-2.48768
-2.50526
-2.51677
-2.52264
-2.52328
-2.51906
-2.51036
-2.49751
-2.48083
-2.46061
-2.43715
-2.41071
-2.38156
-2.34996
-2.31614
-2.28033
-2.24275
-2.20361
-2.16309
-2.12139
-2.07867
-2.03511
-1.99084
-1.94603
-1.9008
-1.85528
-1.80959
-1.76385
-1.71815
-1.67259
-1.62727
-1.58226
-1.53764
-1.49348
-1.44985
-1.40681
-1.36441
-1.3227
-1.28173
-1.24154
-1.20216
-1.16363
-1.12598
-1.08923
-1.05341
-1.01854
-0.984634
-0.951708
-0.919775
-0.888846
-0.858929
-0.83003
-0.802156
-0.77531
-0.749493
-0.724708
-0.700954
-0.678231
-0.656536
-0.635868
-0.616223
-0.597598
-0.579989
-0.563391
-0.547802
-0.533215
-0.519626
-0.507031
-0.495425
-0.484804
-0.475163
-0.466498
-0.458807
-0.452084
-0.446328
-0.441536
-0.437704
-0.434833
-0.432919
-0.431962
-0.380719
-1.11688
-1.80054
-2.43411
-3.02071
-3.56175
-4.05987
-4.51495
-4.93109
-5.31077
-5.65277
-5.95993
-6.23567
-6.48134
-6.69744
-6.88523
-7.04665
-7.18366
-7.29783
-7.39039
-7.46245
-7.51513
-7.54966
-7.56728
-7.56919
-7.55656
-7.53047
-7.49193
-7.44188
-7.38123
-7.31084
-7.23153
-7.1441
-7.0493
-6.94785
-6.84044
-6.72771
-6.61029
-6.48875
-6.36365
-6.23551
-6.10482
-5.97204
-5.83761
-5.70193
-5.56539
-5.42834
-5.29111
-5.15403
-5.01736
-4.8814
-4.74638
-4.61253
-4.48007
-4.34919
-4.22008
-4.09289
-3.96777
-3.84487
-3.7243
-3.60618
-3.4906
-3.37766
-3.26742
-3.15998
-3.05537
-2.95366
-2.85489
-2.7591
-2.66632
-2.57657
-2.48989
-2.40627
-2.32574
-2.24829
-2.17395
-2.10269
-2.03453
-1.96945
-1.90745
-1.84852
-1.79265
-1.73982
-1.69004
-1.64327
-1.59951
-1.55875
-1.52097
-1.48615
-1.45429
-1.42537
-1.39938
-1.37631
-1.35614
-1.33887
-1.3245
-1.31301
-1.30439
-1.29865
-1.29578
-0.633787
-1.8605
-3.00086
-4.05675
-5.0341
-5.93511
-6.76479
-7.52425
-8.21759
-8.84918
-9.41924
-9.93186
-10.3916
-10.8006
-11.1603
-11.4732
-11.7424
-11.9709
-12.1612
-12.3154
-12.4354
-12.5231
-12.5807
-12.61
-12.6132
-12.5922
-12.5487
-12.4845
-12.4011
-12.3
-12.1827
-12.0506
-11.9049
-11.7469
-11.5779
-11.3989
-11.211
-11.0153
-10.8128
-10.6043
-10.3908
-10.173
-9.95176
-9.72775
-9.50165
-9.27412
-9.04574
-8.81707
-8.58863
-8.3609
-8.13433
-7.90933
-7.68628
-7.46555
-7.24746
-7.0323
-6.82035
-6.61186
-6.40706
-6.20615
-6.00931
-5.81671
-5.6285
-5.44481
-5.26576
-5.09145
-4.92196
-4.75737
-4.59774
-4.44313
-4.29358
-4.14913
-4.00979
-3.87559
-3.74654
-3.62265
-3.50391
-3.39032
-3.28187
-3.17855
-3.08035
-2.98725
-2.89923
-2.81626
-2.73833
-2.66542
-2.59749
-2.53453
-2.47651
-2.42342
-2.37523
-2.33192
-2.29347
-2.25986
-2.23109
-2.20713
-2.18798
-2.17363
-2.16406
-2.15928
-0.887038
-2.60318
-4.19951
-5.67798
-7.04602
-8.30753
-9.4684
-10.5314
-11.5018
-12.3854
-13.1836
-13.9015
-14.5449
-15.117
-15.6204
-16.0584
-16.4353
-16.7552
-17.0216
-17.2374
-17.4053
-17.528
-17.6085
-17.6496
-17.6541
-17.6247
-17.5639
-17.474
-17.3573
-17.2158
-17.0516
-16.8667
-16.6627
-16.4416
-16.205
-15.9545
-15.6915
-15.4177
-15.1342
-14.8424
-14.5435
-14.2387
-13.929
-13.6155
-13.299
-12.9806
-12.6609
-12.3409
-12.0211
-11.7024
-11.3852
-11.0703
-10.7581
-10.4492
-10.1439
-9.84279
-9.54614
-9.25433
-8.96767
-8.68646
-8.41095
-8.14138
-7.87796
-7.62086
-7.37024
-7.12626
-6.88904
-6.65867
-6.43525
-6.21885
-6.00953
-5.80735
-5.61232
-5.42449
-5.24386
-5.07045
-4.90426
-4.74527
-4.59349
-4.44888
-4.31143
-4.18112
-4.05792
-3.94179
-3.83272
-3.73066
-3.63559
-3.54746
-3.46626
-3.39195
-3.3245
-3.26388
-3.21006
-3.16303
-3.12276
-3.08922
-3.06242
-3.04233
-3.02894
-3.02224
-1.14103
-3.34602
-5.39683
-7.29776
-9.0562
-10.6778
-12.1696
-13.5358
-14.7832
-15.9187
-16.9447
-17.8678
-18.6946
-19.4297
-20.0765
-20.6395
-21.1241
-21.5354
-21.8779
-22.1551
-22.3708
-22.5286
-22.632
-22.6848
-22.6906
-22.6529
-22.5747
-22.4592
-22.3092
-22.1273
-21.9163
-21.6786
-21.4165
-21.1323
-20.8281
-20.5061
-20.1682
-19.8162
-19.4518
-19.0768
-18.6927
-18.3009
-17.9029
-17.4999
-17.0931
-16.6838
-16.273
-15.8616
-15.4506
-15.041
-14.6334
-14.2286
-13.8273
-13.4303
-13.0379
-12.6509
-12.2696
-11.8945
-11.5261
-11.1646
-10.8105
-10.464
-10.1255
-9.79502
-9.47291
-9.15933
-8.85442
-8.55833
-8.27117
-7.99304
-7.724
-7.46413
-7.21347
-6.97205
-6.73989
-6.51701
-6.3034
-6.09906
-5.90397
-5.7181
-5.54145
-5.37396
-5.21561
-5.06635
-4.92616
-4.79499
-4.67279
-4.55952
-4.45516
-4.35964
-4.27295
-4.19503
-4.12586
-4.06541
-4.01365
-3.97055
-3.9361
-3.91028
-3.89307
-3.88446
-1.39492
-4.08866
-6.59326
-8.91578
-11.0641
-13.0453
-14.8678
-16.5369
-18.0609
-19.4481
-20.7018
-21.8296
-22.8397
-23.7375
-24.5276
-25.2156
-25.8078
-26.3104
-26.7287
-27.0674
-27.3309
-27.5235
-27.6499
-27.7144
-27.7216
-27.6754
-27.58
-27.4389
-27.2556
-27.0334
-26.7756
-26.4851
-26.1649
-25.8177
-25.4461
-25.0527
-24.6399
-24.2098
-23.7647
-23.3065
-22.8372
-22.3586
-21.8723
-21.3799
-20.883
-20.3829
-19.881
-19.3784
-18.8763
-18.3758
-17.8779
-17.3833
-16.8931
-16.408
-15.9287
-15.4558
-14.99
-14.5317
-14.0816
-13.64
-13.2074
-12.7841
-12.3705
-11.9668
-11.5732
-11.1901
-10.8176
-10.4559
-10.1051
-9.76525
-9.43656
-9.11907
-8.81283
-8.51789
-8.23426
-7.96196
-7.70099
-7.45134
-7.21299
-6.98592
-6.77009
-6.56547
-6.37201
-6.18966
-6.01839
-5.85813
-5.70884
-5.57046
-5.44295
-5.32626
-5.22034
-5.12515
-5.04065
-4.96679
-4.90356
-4.8509
-4.80881
-4.77726
-4.75624
-4.74573
-1.64812
-4.83014
-7.78829
-10.5316
-13.0693
-15.4095
-17.5622
-19.534
-21.3343
-22.9727
-24.4537
-25.7859
-26.979
-28.0395
-28.9727
-29.7855
-30.4851
-31.0789
-31.573
-31.973
-32.2842
-32.5117
-32.6609
-32.7372
-32.7457
-32.6912
-32.5784
-32.4117
-32.1952
-31.9328
-31.6283
-31.2852
-30.9069
-30.4968
-30.0579
-29.5932
-29.1055
-28.5975
-28.0717
-27.5305
-26.9761
-26.4107
-25.8363
-25.2547
-24.6677
-24.077
-23.4841
-22.8905
-22.2974
-21.7062
-21.1179
-20.5338
-19.9548
-19.3817
-18.8155
-18.2569
-17.7067
-17.1654
-16.6337
-16.1121
-15.6011
-15.1011
-14.6124
-14.1356
-13.6707
-13.2182
-12.7781
-12.3508
-11.9364
-11.535
-11.1468
-10.7718
-10.41
-10.0616
-9.72659
-9.40494
-9.09667
-8.80178
-8.52024
-8.25201
-7.99707
-7.75536
-7.52684
-7.31145
-7.10913
-6.91982
-6.74347
-6.58002
-6.4294
-6.29157
-6.16645
-6.05401
-5.95419
-5.86695
-5.79225
-5.73006
-5.68034
-5.64307
-5.61823
-5.60582
-1.90066
-5.57015
-8.98138
-12.1449
-15.0712
-17.77
-20.2524
-22.5263
-24.6024
-26.4917
-28.1995
-29.7359
-31.1117
-32.3345
-33.4107
-34.348
-35.155
-35.8397
-36.4095
-36.8707
-37.2294
-37.4918
-37.6639
-37.7519
-37.7617
-37.6989
-37.5689
-37.3766
-37.127
-36.8244
-36.4732
-36.0775
-35.6413
-35.1683
-34.6622
-34.1263
-33.5639
-32.9781
-32.3717
-31.7476
-31.1083
-30.4563
-29.7939
-29.1233
-28.4464
-27.7652
-27.0814
-26.3968
-25.7129
-25.0311
-24.3528
-23.6792
-23.0115
-22.3506
-21.6977
-21.0535
-20.419
-19.7948
-19.1817
-18.5802
-17.9909
-17.4143
-16.8508
-16.3009
-15.7648
-15.2429
-14.7355
-14.2428
-13.7649
-13.302
-12.8543
-12.4218
-12.0046
-11.6029
-11.2165
-10.8456
-10.4901
-10.15
-9.82538
-9.51607
-9.22207
-8.94334
-8.67981
-8.43142
-8.19811
-7.97981
-7.77645
-7.58796
-7.41427
-7.25532
-7.11104
-6.98137
-6.86626
-6.76566
-6.67952
-6.60779
-6.55046
-6.50748
-6.47884
-6.46452
-2.15265
-6.30867
-10.1722
-13.7552
-17.0694
-20.126
-22.9376
-25.513
-27.8644
-30.0041
-31.9383
-33.6786
-35.2368
-36.6216
-37.8405
-38.9021
-39.8161
-40.5917
-41.237
-41.7593
-42.1655
-42.4626
-42.6576
-42.7572
-42.7683
-42.6973
-42.55
-42.3323
-42.0496
-41.7068
-41.3091
-40.8609
-40.3669
-39.8312
-39.2579
-38.651
-38.014
-37.3505
-36.6638
-35.9569
-35.2329
-34.4945
-33.7442
-32.9846
-32.218
-31.4465
-30.6721
-29.8967
-29.1221
-28.35
-27.5817
-26.8188
-26.0625
-25.314
-24.5745
-23.845
-23.1263
-22.4194
-21.7249
-21.0437
-20.3762
-19.7232
-19.085
-18.4621
-17.855
-17.264
-16.6893
-16.1312
-15.5899
-15.0657
-14.5586
-14.0688
-13.5963
-13.1413
-12.7037
-12.2836
-11.881
-11.4958
-11.1281
-10.7778
-10.4448
-10.1291
-9.83064
-9.54932
-9.28508
-9.03783
-8.80751
-8.59402
-8.39731
-8.21728
-8.05387
-7.90701
-7.77664
-7.6627
-7.56513
-7.4839
-7.41896
-7.37029
-7.33785
-7.32164
-2.4041
-7.04562
-11.3605
-15.362
-19.0635
-22.4772
-25.6171
-28.4935
-31.1196
-33.5091
-35.6693
-37.6129
-39.3531
-40.8996
-42.2609
-43.4466
-44.4675
-45.3337
-46.0543
-46.6376
-47.0912
-47.423
-47.6407
-47.752
-47.7645
-47.6851
-47.5207
-47.2776
-46.9618
-46.579
-46.1348
-45.6343
-45.0825
-44.4842
-43.844
-43.1662
-42.4548
-41.7138
-40.9468
-40.1574
-39.3488
-38.5241
-37.6862
-36.8379
-35.9817
-35.12
-34.2552
-33.3892
-32.5242
-31.6618
-30.8038
-29.9517
-29.1071
-28.2712
-27.4453
-26.6305
-25.8279
-25.0384
-24.2628
-23.502
-22.7566
-22.0272
-21.3145
-20.6189
-19.9408
-19.2807
-18.6389
-18.0156
-17.4111
-16.8256
-16.2593
-15.7123
-15.1846
-14.6764
-14.1877
-13.7185
-13.2689
-12.8387
-12.4281
-12.0368
-11.6649
-11.3124
-10.979
-10.6649
-10.3698
-10.0936
-9.83639
-9.59797
-9.37827
-9.17721
-8.99471
-8.8307
-8.6851
-8.55785
-8.44889
-8.35816
-8.28564
-8.23128
-8.19505
-8.17694
-2.65498
-7.78085
-12.546
-16.9651
-21.0528
-24.8228
-28.2903
-31.4669
-34.367
-37.0058
-39.3915
-41.538
-43.4597
-45.1676
-46.6709
-47.9804
-49.1079
-50.0645
-50.8603
-51.5044
-52.0053
-52.3717
-52.6121
-52.7351
-52.7488
-52.6612
-52.4796
-52.2112
-51.8624
-51.4397
-50.9491
-50.3963
-49.787
-49.1263
-48.4193
-47.6707
-46.8851
-46.0668
-45.2198
-44.3479
-43.4549
-42.5442
-41.6189
-40.682
-39.7365
-38.7849
-37.8298
-36.8735
-35.9181
-34.9658
-34.0182
-33.0773
-32.1445
-31.2214
-30.3093
-29.4095
-28.5231
-27.6512
-26.7947
-25.9545
-25.1313
-24.3258
-23.5387
-22.7705
-22.0217
-21.2927
-20.5839
-19.8956
-19.228
-18.5814
-17.956
-17.3519
-16.7692
-16.2079
-15.6683
-15.1501
-14.6535
-14.1785
-13.725
-13.2929
-12.8822
-12.4929
-12.1247
-11.7778
-11.4519
-11.1469
-10.8628
-10.5995
-10.3569
-10.1349
-9.93334
-9.75221
-9.59142
-9.45088
-9.33055
-9.23036
-9.15027
-9.09024
-9.05023
-9.03023
-2.9052
-8.51416
-13.7284
-18.564
-23.0369
-27.1622
-30.9566
-34.4325
-37.606
-40.4934
-43.1039
-45.4528
-47.5557
-49.4244
-51.0694
-52.5024
-53.7362
-54.7829
-55.6537
-56.3584
-56.9065
-57.3074
-57.5705
-57.7051
-57.7202
-57.6243
-57.4256
-57.1319
-56.7502
-56.2877
-55.7508
-55.146
-54.4792
-53.7562
-52.9826
-52.1635
-51.3038
-50.4083
-49.4815
-48.5275
-47.5504
-46.5538
-45.5412
-44.5161
-43.4815
-42.4402
-41.3951
-40.3487
-39.3033
-38.2611
-37.2243
-36.1946
-35.174
-34.1639
-33.1658
-32.1812
-31.2113
-30.2572
-29.32
-28.4006
-27.4998
-26.6184
-25.7571
-24.9165
-24.0972
-23.2995
-22.5238
-21.7707
-21.0402
-20.3327
-19.6483
-18.9872
-18.3496
-17.7355
-17.1449
-16.5779
-16.0346
-15.5148
-15.0185
-14.5457
-14.0963
-13.6703
-13.2674
-12.8878
-12.5312
-12.1975
-11.8866
-11.5985
-11.333
-11.0901
-10.8695
-10.6713
-10.4954
-10.3416
-10.2099
-10.1003
-10.0126
-9.94695
-9.90318
-9.88129
-3.1547
-9.24538
-14.9074
-20.1583
-25.0154
-29.495
-33.6151
-37.3896
-40.8357
-43.9709
-46.8057
-49.3564
-51.6399
-53.669
-55.4553
-57.0114
-58.3512
-59.4878
-60.4333
-61.1985
-61.7937
-62.229
-62.5147
-62.6609
-62.6773
-62.5732
-62.3575
-62.0385
-61.6241
-61.1218
-60.5388
-59.882
-59.158
-58.3729
-57.5328
-56.6433
-55.7099
-54.7375
-53.7311
-52.6952
-51.6341
-50.5519
-49.4524
-48.3392
-47.2157
-46.0851
-44.9502
-43.8139
-42.6787
-41.5471
-40.4212
-39.3031
-38.1948
-37.0979
-36.0142
-34.945
-33.8918
-32.8557
-31.838
-30.8396
-29.8615
-28.9044
-27.9692
-27.0564
-26.1667
-25.3005
-24.4582
-23.6404
-22.8471
-22.0789
-21.3357
-20.6179
-19.9255
-19.2586
-18.6174
-18.0017
-17.4116
-16.8472
-16.3083
-15.7949
-15.3069
-14.8443
-14.4069
-13.9946
-13.6074
-13.245
-12.9075
-12.5946
-12.3063
-12.0425
-11.803
-11.5878
-11.3967
-11.2297
-11.0868
-10.9677
-10.8725
-10.8012
-10.7537
-10.7299
-3.40343
-9.97432
-16.0828
-21.7477
-26.9877
-31.8205
-36.2654
-40.3375
-44.0553
-47.4377
-50.496
-53.2478
-55.7113
-57.9004
-59.8275
-61.5064
-62.9518
-64.178
-65.1981
-66.0236
-66.6656
-67.1353
-67.4435
-67.6012
-67.6189
-67.5066
-67.2739
-66.9298
-66.4827
-65.9408
-65.3119
-64.6033
-63.8222
-62.9752
-62.0689
-61.1093
-60.1022
-59.0532
-57.9674
-56.8498
-55.7051
-54.5375
-53.3514
-52.1504
-50.9383
-49.7185
-48.4942
-47.2683
-46.0436
-44.8227
-43.6081
-42.4019
-41.2061
-40.0228
-38.8536
-37.7001
-36.5639
-35.4462
-34.3482
-33.2711
-32.2159
-31.1833
-30.1744
-29.1896
-28.2297
-27.2952
-26.3866
-25.5042
-24.6485
-23.8196
-23.0179
-22.2435
-21.4965
-20.777
-20.0852
-19.421
-18.7844
-18.1755
-17.5941
-17.0402
-16.5138
-16.0146
-15.5428
-15.098
-14.6802
-14.2893
-13.9251
-13.5876
-13.2766
-12.9919
-12.7336
-12.5014
-12.2953
-12.1151
-11.9609
-11.8324
-11.7298
-11.6528
-11.6015
-11.5759
-3.65132
-10.7008
-17.2541
-23.3316
-28.9533
-34.1381
-38.9068
-43.2754
-47.264
-50.8927
-54.1738
-57.1261
-59.769
-62.1175
-64.185
-65.9861
-67.5368
-68.8524
-69.9467
-70.8323
-71.5211
-72.0249
-72.3556
-72.5248
-72.5438
-72.4234
-72.1738
-71.8045
-71.3249
-70.7436
-70.0688
-69.3086
-68.4706
-67.562
-66.5896
-65.5601
-64.4797
-63.3542
-62.1894
-60.9904
-59.7623
-58.5097
-57.2372
-55.9487
-54.6484
-53.3397
-52.0262
-50.711
-49.3971
-48.0874
-46.7842
-45.4902
-44.2073
-42.9378
-41.6835
-40.446
-39.227
-38.0279
-36.8499
-35.6944
-34.5623
-33.4546
-32.3721
-31.3156
-30.2858
-29.2832
-28.3084
-27.3618
-26.4437
-25.5545
-24.6944
-23.8635
-23.0621
-22.2903
-21.5481
-20.8355
-20.1526
-19.4993
-18.8755
-18.2813
-17.7165
-17.1811
-16.6748
-16.1976
-15.7494
-15.33
-14.9394
-14.5772
-14.2436
-13.9382
-13.661
-13.4119
-13.1908
-12.9975
-12.832
-12.6942
-12.5841
-12.5015
-12.4465
-12.419
-3.8983
-11.4246
-18.4213
-24.9098
-30.9118
-36.4473
-41.5385
-46.2027
-50.4611
-54.3352
-57.8383
-60.9903
-63.812
-66.3193
-68.5266
-70.4496
-72.1052
-73.5098
-74.6781
-75.6236
-76.3589
-76.8968
-77.2499
-77.4306
-77.4509
-77.3223
-77.0558
-76.6616
-76.1495
-75.5289
-74.8085
-73.9969
-73.1021
-72.132
-71.0939
-69.9948
-68.8412
-67.6397
-66.396
-65.116
-63.8048
-62.4675
-61.1088
-59.7333
-58.3449
-56.9478
-55.5454
-54.1412
-52.7385
-51.3401
-49.9488
-48.5672
-47.1976
-45.8423
-44.503
-43.1819
-41.8804
-40.6002
-39.3426
-38.1088
-36.9002
-35.7175
-34.5618
-33.4339
-32.3344
-31.264
-30.2233
-29.2126
-28.2324
-27.2831
-26.3648
-25.4777
-24.6221
-23.7981
-23.0056
-22.2449
-21.5157
-20.8183
-20.1523
-19.5179
-18.9149
-18.3432
-17.8027
-17.2933
-16.8147
-16.367
-15.9499
-15.5633
-15.207
-14.881
-14.5851
-14.3191
-14.083
-13.8767
-13.7
-13.5529
-13.4353
-13.3472
-13.2884
-13.2591
-4.14433
-12.1456
-19.5838
-26.4819
-32.8626
-38.7475
-44.16
-49.1186
-53.6458
-57.7643
-61.4885
-64.8395
-67.8392
-70.5047
-72.8513
-74.8957
-76.6558
-78.1491
-79.3911
-80.3962
-81.1779
-81.7498
-82.1251
-82.3172
-82.3388
-82.2022
-81.9189
-81.4998
-80.9554
-80.2955
-79.5297
-78.6668
-77.7157
-76.6843
-75.5807
-74.4121
-73.1858
-71.9084
-70.5863
-69.2254
-67.8315
-66.4098
-64.9654
-63.503
-62.0271
-60.5417
-59.0509
-57.5581
-56.0668
-54.5802
-53.1011
-51.6323
-50.1763
-48.7354
-47.3116
-45.9071
-44.5235
-43.1625
-41.8255
-40.5139
-39.2289
-37.9716
-36.743
-35.5439
-34.375
-33.2371
-32.1307
-31.0562
-30.0142
-29.0049
-28.0286
-27.0856
-26.176
-25.3
-24.4575
-23.6487
-22.8736
-22.1321
-21.4242
-20.7497
-20.1087
-19.5009
-18.9263
-18.3847
-17.8759
-17.3999
-16.9565
-16.5455
-16.1668
-15.8202
-15.5056
-15.2228
-14.9718
-14.7525
-14.5646
-14.4082
-14.2832
-14.1895
-14.1271
-14.0958
-4.38932
-12.8636
-20.7416
-28.0474
-34.8053
-41.0381
-46.7706
-52.0223
-56.8172
-61.1791
-65.1235
-68.6726
-71.8497
-74.6727
-77.158
-79.3233
-81.1875
-82.769
-84.0845
-85.1489
-85.9769
-86.5825
-86.9801
-87.1836
-87.2065
-87.0618
-86.7617
-86.3178
-85.7412
-85.0424
-84.2313
-83.3174
-82.31
-81.2177
-80.0488
-78.8112
-77.5124
-76.1595
-74.7592
-73.3178
-71.8415
-70.3358
-68.806
-67.2572
-65.694
-64.1208
-62.5418
-60.9608
-59.3813
-57.8068
-56.2403
-54.6847
-53.1426
-51.6165
-50.1086
-48.621
-47.1556
-45.7141
-44.2981
-42.909
-41.548
-40.2164
-38.9152
-37.6451
-36.4072
-35.202
-34.0302
-32.8922
-31.7886
-30.7196
-29.6856
-28.6869
-27.7235
-26.7956
-25.9034
-25.0468
-24.2258
-23.4405
-22.6907
-21.9764
-21.2974
-20.6537
-20.0451
-19.4715
-18.9327
-18.4286
-17.9589
-17.5236
-17.1225
-16.7554
-16.4222
-16.1228
-15.8569
-15.6246
-15.4257
-15.26
-15.1276
-15.0284
-14.9622
-14.9292
-4.63324
-13.5785
-21.8942
-29.606
-36.7395
-43.3186
-49.3696
-54.9133
-59.9746
-64.5789
-68.7424
-72.4889
-75.8424
-78.8223
-81.4457
-83.7313
-85.6991
-87.3686
-88.7571
-89.8807
-90.7546
-91.3939
-91.8136
-92.0284
-92.0526
-91.8998
-91.5831
-91.1146
-90.506
-89.7683
-88.9121
-87.9474
-86.884
-85.731
-84.4971
-83.1908
-81.8198
-80.3917
-78.9136
-77.3922
-75.8338
-74.2444
-72.6296
-70.9947
-69.3446
-67.684
-66.0173
-64.3484
-62.6812
-61.0192
-59.3656
-57.7235
-56.0957
-54.4848
-52.8931
-51.3229
-49.776
-48.2544
-46.7597
-45.2934
-43.8569
-42.4513
-41.0777
-39.7371
-38.4304
-37.1582
-35.9212
-34.72
-33.5551
-32.4267
-31.3353
-30.281
-29.2641
-28.2847
-27.3429
-26.4387
-25.5721
-24.7431
-23.9516
-23.1976
-22.4809
-21.8014
-21.159
-20.5535
-19.9848
-19.4526
-18.9569
-18.4974
-18.074
-17.6865
-17.3348
-17.0187
-16.7381
-16.4929
-16.2829
-16.108
-15.9683
-15.8635
-15.7937
-15.7588
-4.87601
-14.29
-23.0414
-31.1573
-38.6646
-45.5885
-51.9565
-57.7906
-63.1172
-67.9627
-72.3444
-76.2872
-79.8165
-82.9525
-85.7133
-88.1187
-90.1897
-91.9466
-93.4078
-94.5903
-95.51
-96.1828
-96.6244
-96.8505
-96.876
-96.7153
-96.3819
-95.8889
-95.2483
-94.472
-93.5709
-92.5557
-91.4366
-90.2232
-88.9246
-87.5498
-86.107
-84.6041
-83.0485
-81.4474
-79.8073
-78.1347
-76.4352
-74.7147
-72.9781
-71.2306
-69.4765
-67.7201
-65.9656
-64.2165
-62.4763
-60.7481
-59.0351
-57.3397
-55.6646
-54.0121
-52.3842
-50.7829
-49.2099
-47.6667
-46.1549
-44.6756
-43.2301
-41.8193
-40.444
-39.1052
-37.8034
-36.5393
-35.3133
-34.1258
-32.9772
-31.8677
-30.7975
-29.7668
-28.7756
-27.824
-26.912
-26.0396
-25.2066
-24.4131
-23.6589
-22.9438
-22.2677
-21.6305
-21.032
-20.4719
-19.9502
-19.4666
-19.021
-18.6133
-18.2431
-17.9105
-17.6152
-17.3571
-17.1361
-16.9521
-16.805
-16.6947
-16.6212
-16.5845
-5.11759
-14.9979
-24.1829
-32.701
-40.5801
-47.8471
-54.5306
-60.6537
-66.2442
-71.3297
-75.9286
-80.0667
-83.7708
-87.0621
-89.9597
-92.4843
-94.6579
-96.5019
-98.0355
-99.2765
-100.242
-100.948
-101.411
-101.649
-101.675
-101.507
-101.157
-100.639
-99.9672
-99.1524
-98.2067
-97.1412
-95.9666
-94.6931
-93.3302
-91.8873
-90.373
-88.7956
-87.163
-85.4825
-83.7612
-82.0057
-80.2221
-78.4162
-76.5937
-74.7595
-72.9185
-71.0752
-69.2337
-67.3979
-65.5715
-63.7578
-61.9598
-60.1805
-58.4224
-56.688
-54.9795
-53.2988
-51.6479
-50.0283
-48.4415
-46.889
-45.3718
-43.8911
-42.4477
-41.0426
-39.6763
-38.3496
-37.0628
-35.8165
-34.611
-33.4465
-32.3233
-31.2415
-30.2012
-29.2025
-28.2453
-27.3297
-26.4555
-25.6226
-24.831
-24.0805
-23.3709
-22.7021
-22.0739
-21.4862
-20.9386
-20.4311
-19.9634
-19.5354
-19.1469
-18.7978
-18.4879
-18.217
-17.985
-17.7919
-17.6375
-17.5218
-17.4447
-17.4062
-5.3579
-15.7022
-25.3185
-34.2365
-42.4857
-50.0939
-57.0912
-63.5019
-69.3549
-74.6791
-79.494
-83.8264
-87.7045
-91.1503
-94.184
-96.8271
-99.1028
-101.033
-102.639
-103.938
-104.949
-105.688
-106.173
-106.422
-106.45
-106.273
-105.907
-105.365
-104.661
-103.808
-102.818
-101.703
-100.473
-99.1396
-97.7128
-96.2021
-94.6167
-92.9652
-91.2559
-89.4965
-87.6944
-85.8564
-83.9891
-82.0985
-80.1903
-78.27
-76.3426
-74.4127
-72.4847
-70.5628
-68.6506
-66.7517
-64.8693
-63.0064
-61.1658
-59.3499
-57.5612
-55.8016
-54.0731
-52.3775
-50.7162
-49.0908
-47.5024
-45.9521
-44.441
-42.9698
-41.5394
-40.1503
-38.8032
-37.4983
-36.2362
-35.017
-33.8411
-32.7085
-31.6194
-30.5737
-29.5716
-28.613
-27.6977
-26.8258
-25.997
-25.2113
-24.4684
-23.7682
-23.1105
-22.4951
-21.9218
-21.3905
-20.9008
-20.4527
-20.046
-19.6805
-19.356
-19.0724
-18.8296
-18.6274
-18.4658
-18.3446
-18.2639
-18.2235
-5.59688
-16.4026
-26.4478
-35.7636
-44.3807
-52.3283
-59.6377
-66.3344
-72.4484
-78.0101
-83.0397
-87.5655
-91.6165
-95.216
-98.385
-101.146
-103.523
-105.54
-107.217
-108.574
-109.63
-110.402
-110.909
-111.169
-111.198
-111.014
-110.631
-110.065
-109.33
-108.439
-107.404
-106.239
-104.955
-103.562
-102.071
-100.493
-98.837
-97.1119
-95.3263
-93.4885
-91.606
-89.686
-87.7354
-85.7604
-83.7672
-81.7612
-79.7478
-77.7318
-75.7179
-73.7102
-71.7127
-69.7291
-67.7627
-65.8168
-63.894
-61.9972
-60.1286
-58.2906
-56.485
-54.7137
-52.9784
-51.2804
-49.6212
-48.0018
-46.4232
-44.8865
-43.3923
-41.9412
-40.534
-39.1709
-37.8525
-36.579
-35.3506
-34.1674
-33.0297
-31.9375
-30.8907
-29.8892
-28.9332
-28.0223
-27.1566
-26.3358
-25.5598
-24.8283
-24.1413
-23.4985
-22.8996
-22.3446
-21.8331
-21.365
-20.9402
-20.5583
-20.2194
-19.9231
-19.6694
-19.4582
-19.2894
-19.1628
-19.0785
-19.0364
-5.83449
-17.0989
-27.5706
-37.2819
-46.2648
-54.5498
-62.1695
-69.1505
-75.5241
-81.3219
-86.565
-91.2829
-95.5059
-99.2582
-102.562
-105.44
-107.918
-110.02
-111.769
-113.184
-114.284
-115.089
-115.618
-115.888
-115.919
-115.726
-115.328
-114.738
-113.971
-113.042
-111.964
-110.749
-109.41
-107.958
-106.404
-104.759
-103.033
-101.235
-99.3732
-97.4574
-95.4949
-93.4935
-91.46
-89.4012
-87.3233
-85.2322
-83.1333
-81.0318
-78.9323
-76.8394
-74.7571
-72.6893
-70.6395
-68.6109
-66.6065
-64.6292
-62.6813
-60.7652
-58.883
-57.0365
-55.2275
-53.4575
-51.7278
-50.0396
-48.3941
-46.7921
-45.2344
-43.7218
-42.2548
-40.8339
-39.4594
-38.1319
-36.8513
-35.618
-34.432
-33.2933
-32.2021
-31.1581
-30.1615
-29.212
-28.3095
-27.4538
-26.6449
-25.8824
-25.1662
-24.4961
-23.8718
-23.2932
-22.76
-22.272
-21.8291
-21.4311
-21.0777
-20.7689
-20.5045
-20.2843
-20.1083
-19.9764
-19.8885
-19.8445
-6.07065
-17.7911
-28.6866
-38.791
-48.1375
-56.7578
-64.686
-71.9495
-78.5811
-84.6136
-90.0689
-94.9779
-99.3718
-103.276
-106.713
-109.708
-112.286
-114.474
-116.293
-117.765
-118.91
-119.748
-120.298
-120.579
-120.611
-120.411
-119.996
-119.382
-118.585
-117.618
-116.496
-115.232
-113.839
-112.328
-110.711
-109
-107.203
-105.332
-103.396
-101.402
-99.3603
-97.2778
-95.1621
-93.02
-90.858
-88.6822
-86.4984
-84.3117
-82.1273
-79.9497
-77.7831
-75.6316
-73.4988
-71.3881
-69.3026
-67.2452
-65.2185
-63.2248
-61.2664
-59.3452
-57.463
-55.6213
-53.8216
-52.0651
-50.3529
-48.6861
-47.0654
-45.4915
-43.9651
-42.4867
-41.0567
-39.6753
-38.343
-37.0597
-35.8257
-34.641
-33.5055
-32.4193
-31.3823
-30.3944
-29.4554
-28.5651
-27.7234
-26.93
-26.1849
-25.4876
-24.8381
-24.236
-23.6813
-23.1736
-22.7127
-22.2986
-21.9309
-21.6096
-21.3345
-21.1054
-20.9222
-20.785
-20.6935
-20.6478
-6.30532
-18.4788
-29.7955
-40.2905
-49.9983
-58.9519
-67.1865
-74.7308
-81.6188
-87.8844
-93.5507
-98.6494
-103.213
-107.268
-110.838
-113.949
-116.627
-118.899
-120.788
-122.317
-123.507
-124.377
-124.948
-125.24
-125.273
-125.065
-124.634
-123.997
-123.169
-122.165
-120.999
-119.687
-118.239
-116.67
-114.991
-113.213
-111.348
-109.404
-107.393
-105.322
-103.201
-101.038
-98.8407
-96.6157
-94.3702
-92.1103
-89.8421
-87.5709
-85.302
-83.0402
-80.7899
-78.5552
-76.34
-74.1477
-71.9816
-69.8446
-67.7396
-65.6688
-63.6347
-61.6393
-59.6843
-57.7714
-55.9021
-54.0777
-52.2994
-50.5681
-48.8847
-47.25
-45.6646
-44.1291
-42.6438
-41.209
-39.8251
-38.4923
-37.2106
-35.98
-34.8007
-33.6726
-32.5955
-31.5693
-30.594
-29.6693
-28.7951
-27.9711
-27.1971
-26.4729
-25.7982
-25.1729
-24.5967
-24.0694
-23.5907
-23.1606
-22.7787
-22.4449
-22.1592
-21.9212
-21.731
-21.5884
-21.4934
-21.4459
-6.53843
-19.162
-30.8971
-41.7801
-51.8468
-61.1314
-69.6704
-77.4937
-84.6363
-91.1335
-97.0093
-102.297
-107.029
-111.234
-114.936
-118.162
-120.939
-123.295
-125.254
-126.84
-128.073
-128.975
-129.567
-129.87
-129.905
-129.689
-129.242
-128.581
-127.722
-126.681
-125.473
-124.112
-122.611
-120.984
-119.242
-117.399
-115.464
-113.449
-111.363
-109.216
-107.017
-104.774
-102.495
-100.188
-97.8591
-95.5157
-93.1636
-90.8085
-88.4557
-86.1103
-83.7768
-81.4595
-79.1623
-76.889
-74.6428
-72.4268
-70.2439
-68.0967
-65.9874
-63.9181
-61.8908
-59.9072
-57.9688
-56.077
-54.2329
-52.4376
-50.692
-48.9969
-47.3529
-45.7606
-44.2203
-42.7326
-41.2975
-39.9154
-38.5863
-37.3102
-36.0873
-34.9175
-33.8005
-32.7365
-31.7251
-30.7662
-29.8596
-29.0052
-28.2026
-27.4516
-26.752
-26.1036
-25.506
-24.9592
-24.4629
-24.0168
-23.6208
-23.2747
-22.9784
-22.7317
-22.5344
-22.3866
-22.2881
-22.2388
-6.76993
-19.8404
-31.991
-43.2593
-53.6825
-63.2958
-72.1371
-80.2374
-87.6329
-94.3602
-100.444
-105.918
-110.818
-115.172
-119.005
-122.345
-125.221
-127.66
-129.689
-131.33
-132.607
-133.541
-134.155
-134.469
-134.504
-134.281
-133.818
-133.134
-132.244
-131.166
-129.915
-128.506
-126.952
-125.267
-123.464
-121.555
-119.552
-117.466
-115.306
-113.083
-110.806
-108.483
-106.124
-103.735
-101.324
-98.8975
-96.4621
-94.0236
-91.5876
-89.1591
-86.7429
-84.3436
-81.9651
-79.6113
-77.2856
-74.9912
-72.731
-70.5077
-68.3237
-66.1812
-64.0821
-62.0283
-60.0213
-58.0625
-56.1531
-54.2942
-52.4868
-50.7317
-49.0295
-47.3808
-45.786
-44.2455
-42.7597
-41.3286
-39.9524
-38.6312
-37.365
-36.1537
-34.9973
-33.8955
-32.8483
-31.8555
-30.9169
-30.0321
-29.2011
-28.4235
-27.6992
-27.0278
-26.4091
-25.8429
-25.329
-24.8672
-24.4571
-24.0988
-23.792
-23.5365
-23.3323
-23.1792
-23.0772
-23.0262
-6.99976
-20.514
-33.0771
-44.7279
-55.5049
-65.4446
-74.586
-82.9613
-90.608
-97.5635
-103.854
-109.514
-114.581
-119.082
-123.045
-126.499
-129.472
-131.994
-134.092
-135.789
-137.109
-138.075
-138.709
-139.034
-139.07
-138.84
-138.361
-137.653
-136.734
-135.619
-134.326
-132.868
-131.262
-129.52
-127.656
-125.682
-123.611
-121.453
-119.22
-116.922
-114.567
-112.166
-109.727
-107.257
-104.764
-102.255
-99.7369
-97.2156
-94.6968
-92.1859
-89.6877
-87.2069
-84.7477
-82.314
-79.9093
-77.537
-75.2001
-72.9013
-70.6432
-68.4279
-66.2576
-64.1341
-62.0589
-60.0336
-58.0594
-56.1374
-54.2687
-52.4539
-50.6939
-48.9893
-47.3404
-45.7476
-44.2113
-42.7316
-41.3088
-39.9427
-38.6335
-37.3811
-36.1854
-35.0462
-33.9635
-32.937
-31.9664
-31.0517
-30.1924
-29.3885
-28.6395
-27.9453
-27.3057
-26.7203
-26.1889
-25.7114
-25.2874
-24.9169
-24.5997
-24.3355
-24.1244
-23.9661
-23.8606
-23.8079
-7.22786
-21.1824
-34.155
-46.1855
-57.3136
-67.5772
-77.0166
-85.6648
-93.5606
-100.743
-107.238
-113.083
-118.314
-122.963
-127.055
-130.621
-133.691
-136.295
-138.461
-140.214
-141.577
-142.574
-143.229
-143.564
-143.602
-143.364
-142.87
-142.139
-141.19
-140.039
-138.703
-137.198
-135.539
-133.741
-131.816
-129.778
-127.639
-125.411
-123.105
-120.732
-118.301
-115.821
-113.302
-110.752
-108.178
-105.587
-102.987
-100.384
-97.7827
-95.1899
-92.6104
-90.0487
-87.5094
-84.9963
-82.5133
-80.0637
-77.6506
-75.2769
-72.9452
-70.6578
-68.4167
-66.224
-64.0812
-61.9899
-59.9514
-57.9668
-56.0371
-54.1633
-52.3459
-50.5857
-48.883
-47.2384
-45.652
-44.1241
-42.6549
-41.2443
-39.8925
-38.5992
-37.3646
-36.1883
-35.0703
-34.0103
-33.0081
-32.0635
-31.1763
-30.3461
-29.5728
-28.856
-28.1955
-27.591
-27.0423
-26.5492
-26.1115
-25.7289
-25.4013
-25.1286
-24.9105
-24.7471
-24.6382
-24.5837
-7.45418
-21.8457
-35.2244
-47.6316
-59.1082
-69.6932
-79.4281
-88.3471
-96.4902
-103.897
-110.596
-116.624
-122.019
-126.813
-131.033
-134.711
-137.877
-140.563
-142.797
-144.604
-146.01
-147.039
-147.714
-148.06
-148.099
-147.853
-147.344
-146.59
-145.611
-144.424
-143.046
-141.494
-139.783
-137.928
-135.943
-133.841
-131.636
-129.338
-126.96
-124.512
-122.005
-119.448
-116.85
-114.22
-111.565
-108.893
-106.212
-103.527
-100.844
-98.1705
-95.5102
-92.8683
-90.2495
-87.6577
-85.0969
-82.5706
-80.082
-77.634
-75.2293
-72.8702
-70.559
-68.2976
-66.0877
-63.9309
-61.8286
-59.7818
-57.7918
-55.8592
-53.985
-52.1696
-50.4137
-48.7175
-47.0815
-45.5058
-43.9905
-42.5358
-41.1416
-39.8079
-38.5345
-37.3214
-36.1684
-35.0752
-34.0417
-33.0675
-32.1525
-31.2963
-30.4988
-29.7595
-29.0783
-28.4549
-27.8891
-27.3805
-26.9291
-26.5345
-26.1967
-25.9154
-25.6905
-25.522
-25.4096
-25.3535
-7.67866
-22.5036
-36.2852
-49.066
-60.8882
-71.792
-81.82
-91.0077
-99.396
-107.026
-113.927
-120.136
-125.694
-130.632
-134.979
-138.768
-142.029
-144.796
-147.097
-148.959
-150.407
-151.467
-152.162
-152.518
-152.559
-152.306
-151.781
-151.004
-149.996
-148.773
-147.354
-145.755
-143.993
-142.082
-140.037
-137.872
-135.6
-133.233
-130.783
-128.262
-125.679
-123.045
-120.369
-117.659
-114.925
-112.173
-109.41
-106.644
-103.881
-101.127
-98.3864
-95.665
-92.9673
-90.2975
-87.6596
-85.0572
-82.4936
-79.9719
-77.4948
-75.0647
-72.6838
-70.3543
-68.0779
-65.8562
-63.6905
-61.5821
-59.5321
-57.5414
-55.6107
-53.7407
-51.9318
-50.1846
-48.4993
-46.8761
-45.3152
-43.8167
-42.3805
-41.0066
-39.695
-38.4453
-37.2576
-36.1315
-35.0668
-34.0633
-33.1208
-32.2388
-31.4172
-30.6557
-29.954
-29.3118
-28.7289
-28.2051
-27.74
-27.3336
-26.9856
-26.6958
-26.4642
-26.2905
-26.1748
-26.117
-7.90124
-23.1559
-37.337
-50.4883
-62.6532
-73.873
-84.1918
-93.6457
-102.277
-110.128
-117.229
-123.618
-129.337
-134.418
-138.892
-142.79
-146.146
-148.993
-151.361
-153.277
-154.767
-155.857
-156.573
-156.939
-156.981
-156.721
-156.18
-155.382
-154.344
-153.086
-151.625
-149.98
-148.167
-146.2
-144.096
-141.868
-139.53
-137.095
-134.574
-131.98
-129.322
-126.612
-123.858
-121.07
-118.256
-115.424
-112.582
-109.736
-106.893
-104.058
-101.238
-98.4381
-95.6621
-92.915
-90.2006
-87.5228
-84.8849
-82.2901
-79.7411
-77.2406
-74.7908
-72.3937
-70.0513
-67.7652
-65.5367
-63.3672
-61.2578