/*--------------------------------*- C++ -*----------------------------------*\
| =========                 |                                                 |
| \\      /  F ield         | OpenFOAM: The Open Source CFD Toolbox           |
|  \\    /   O peration     | Version:  2406                                  |
|   \\  /    A nd           | Website:  www.openfoam.com                      |
|    \\/     M anipulation  |                                                 |
\*---------------------------------------------------------------------------*/
FoamFile
{
    version     2.0;
    format      ascii;
    arch        "LSB;label=32;scalar=64";
    class       volScalarField;
    location    "75";
    object      gradTy;
}
// * * * * * * * * * * * * * * * * * * * * * * * * * * * * * * * * * * * * * //

dimensions      [0 -1 0 1 0 0 0];

internalField   nonuniform List<scalar> 
20000
(
270.262
259.16
248.115
237.17
226.368
215.743
205.324
195.14
185.212
175.56
166.197
157.137
148.388
139.959
131.853
124.072
116.618
109.49
102.683
96.195
90.0203
84.1527
78.5854
73.3106
68.3199
63.6047
59.1556
54.9632
51.0178
47.3095
43.8284
40.5646
37.5082
34.6493
31.9784
29.4858
27.1624
24.9991
22.9871
21.1178
19.3829
17.7746
16.2851
14.9072
13.6338
12.4581
11.3738
10.3748
9.4553
8.60979
7.83311
7.12035
6.46688
5.86835
5.32068
4.82
4.36274
3.94551
3.56518
3.2188
2.90363
2.61712
2.35692
2.12081
1.90677
1.7129
1.53747
1.37885
1.23557
1.10626
0.98965
0.884589
0.790013
0.704945
0.628492
0.559837
0.498231
0.44299
0.393492
0.349168
0.309499
0.274013
0.242281
0.213913
0.188552
0.165875
0.145589
0.127425
0.11114
0.0965118
0.0833362
0.0714271
0.0606132
0.0507362
0.041649
0.0332144
0.0253029
0.0177918
0.0105631
0.00350241
270.195
259.096
248.053
237.112
226.312
215.689
205.274
195.092
185.167
175.516
166.156
157.098
148.352
139.924
131.82
124.042
116.59
109.463
102.658
96.1713
89.9981
84.132
78.566
73.2925
68.3031
63.589
59.141
54.9497
51.0052
47.2979
43.8176
40.5546
37.4989
34.6408
31.9705
29.4785
27.1557
24.9929
22.9814
21.1125
19.3781
17.7702
16.2811
14.9035
13.6304
12.455
11.371
10.3723
9.45296
8.60767
7.83118
7.11859
6.46529
5.86691
5.31936
4.81882
4.36166
3.94454
3.5643
3.218
2.90291
2.61648
2.35634
2.12029
1.9063
1.71248
1.53709
1.37851
1.23527
1.10599
0.989406
0.884371
0.789818
0.704772
0.628338
0.559699
0.498108
0.442882
0.393396
0.349082
0.309423
0.273946
0.242222
0.21386
0.188505
0.165834
0.145553
0.127394
0.111113
0.0964881
0.0833157
0.0714096
0.0605984
0.0507238
0.0416389
0.0332063
0.0252967
0.0177874
0.0105605
0.00350156
270.062
258.968
247.931
236.995
226.2
215.583
205.172
194.996
185.076
175.43
166.074
157.02
148.278
139.855
131.755
123.981
116.532
109.408
102.607
96.1238
89.9536
84.0904
78.5272
73.2563
68.2694
63.5576
59.1118
54.9225
50.98
47.2745
43.796
40.5346
37.4804
34.6237
31.9547
29.464
27.1423
24.9806
22.97
21.1021
19.3686
17.7614
16.2731
14.8962
13.6237
12.4489
11.3654
10.3671
9.4483
8.60342
7.82732
7.11508
6.4621
5.86401
5.31674
4.81644
4.35951
3.9426
3.56254
3.21641
2.90148
2.61519
2.35517
2.11924
1.90536
1.71164
1.53633
1.37783
1.23466
1.10544
0.988918
0.883935
0.789429
0.704424
0.628028
0.559424
0.497863
0.442663
0.393202
0.34891
0.30927
0.273811
0.242103
0.213755
0.188413
0.165753
0.145481
0.127331
0.111058
0.0964407
0.0832748
0.0713746
0.0605686
0.0506989
0.0416184
0.03319
0.0252844
0.0177787
0.0105553
0.00349986
269.862
258.777
247.747
236.819
226.033
215.423
205.021
194.852
184.938
175.3
165.951
156.904
148.169
139.752
131.658
123.889
116.446
109.327
102.531
96.0526
89.887
84.0282
78.4691
73.202
68.2188
63.5105
59.068
54.8819
50.9423
47.2395
43.7636
40.5046
37.4527
34.598
31.931
29.4422
27.1222
24.9621
22.953
21.0865
19.3542
17.7483
16.261
14.8851
13.6136
12.4397
11.357
10.3595
9.4413
8.59705
7.82152
7.10981
6.45731
5.85967
5.3128
4.81287
4.35629
3.93968
3.55991
3.21403
2.89933
2.61325
2.35343
2.11768
1.90395
1.71037
1.53519
1.37681
1.23375
1.10462
0.988187
0.883282
0.788845
0.703904
0.627564
0.55901
0.497495
0.442336
0.392912
0.348653
0.309042
0.273609
0.241924
0.213597
0.188274
0.16563
0.145374
0.127237
0.110977
0.0963696
0.0832134
0.071322
0.060524
0.0506616
0.0415878
0.0331656
0.0252658
0.0177657
0.0105476
0.00349729
269.595
258.521
247.503
236.585
225.81
215.21
204.818
194.659
184.756
175.127
165.787
156.749
148.022
139.614
131.528
123.766
116.331
109.219
102.43
95.9577
89.7982
83.9452
78.3916
73.1297
68.1514
63.4478
59.0097
54.8276
50.892
47.1928
43.7203
40.4646
37.4157
34.5638
31.8995
29.4131
27.0954
24.9375
22.9304
21.0657
19.3351
17.7308
16.245
14.8704
13.6001
12.4274
11.3458
10.3492
9.43198
8.58856
7.8138
7.10279
6.45094
5.85389
5.30756
4.80812
4.35199
3.93579
3.55639
3.21086
2.89647
2.61067
2.35111
2.11559
1.90207
1.70868
1.53368
1.37546
1.23253
1.10353
0.987213
0.882411
0.788068
0.70321
0.626945
0.558459
0.497005
0.441901
0.392524
0.348309
0.308738
0.273339
0.241686
0.213387
0.188088
0.165467
0.145231
0.127112
0.110867
0.0962748
0.0831316
0.0712519
0.0604646
0.0506118
0.0415469
0.033133
0.025241
0.0177482
0.0105372
0.00349385
269.262
258.201
247.197
236.293
225.531
214.945
204.565
194.419
184.527
174.91
165.582
156.555
147.839
139.441
131.365
123.614
116.187
109.085
102.303
95.8392
89.6873
83.8414
78.2947
73.0394
68.0672
63.3694
58.9368
54.7599
50.8291
47.1345
43.6663
40.4146
37.3694
34.5211
31.8601
29.3767
27.062
24.9066
22.902
21.0396
19.3112
17.7088
16.2249
14.8521
13.5833
12.412
11.3318
10.3364
9.42033
8.57796
7.80415
7.09402
6.44297
5.84666
5.301
4.80218
4.34661
3.93093
3.552
3.2069
2.89289
2.60745
2.34821
2.11297
1.89972
1.70657
1.53179
1.37376
1.23101
1.10217
0.985995
0.881322
0.787096
0.702342
0.626172
0.557771
0.496392
0.441356
0.39204
0.34788
0.308357
0.273003
0.241388
0.213124
0.187857
0.165264
0.145052
0.126956
0.110731
0.0961563
0.0830293
0.0711642
0.0603902
0.0505495
0.0414959
0.0330923
0.0252099
0.0177264
0.0105243
0.00348956
268.862
257.818
246.83
235.943
225.196
214.626
204.261
194.13
184.254
174.651
165.336
156.323
147.62
139.234
131.17
123.43
116.015
108.923
102.151
95.697
89.5542
83.717
78.1785
72.931
67.9662
63.2753
58.8493
54.6786
50.7537
47.0646
43.6015
40.3546
37.314
34.4699
31.8128
29.3332
27.0218
24.8697
22.8681
21.0084
19.2826
17.6826
16.2008
14.83
13.5632
12.3936
11.3149
10.3211
9.40636
8.56523
7.79257
7.0835
6.43341
5.83798
5.29314
4.79506
4.34017
3.9251
3.54673
3.20214
2.8886
2.60358
2.34473
2.10984
1.89691
1.70404
1.52952
1.37172
1.22918
1.10054
0.984534
0.880017
0.785929
0.701302
0.625245
0.556944
0.495657
0.440702
0.39146
0.347365
0.307901
0.272598
0.241031
0.212809
0.187579
0.165019
0.144838
0.126768
0.110567
0.0960141
0.0829066
0.071059
0.0603009
0.0504748
0.0414346
0.0330434
0.0251727
0.0177002
0.0105087
0.00348441
268.397
257.372
246.402
235.534
224.806
214.254
203.908
193.794
183.934
174.348
165.05
156.052
147.364
138.993
130.943
123.216
115.814
108.734
101.974
95.5311
89.399
83.572
78.043
72.8046
67.8484
63.1657
58.7473
54.5839
50.6657
46.983
43.526
40.2847
37.2493
34.4102
31.7577
29.2823
26.975
24.8266
22.8284
20.972
19.2492
17.6519
16.1728
14.8043
13.5397
12.3721
11.2953
10.3032
9.39006
8.55039
7.77907
7.07123
6.42227
5.82787
5.28397
4.78676
4.33265
3.9183
3.54059
3.1966
2.8836
2.59908
2.34067
2.10619
1.89362
1.70109
1.52687
1.36935
1.22706
1.09863
0.98283
0.878494
0.78457
0.700089
0.624163
0.555981
0.494799
0.43994
0.390783
0.346764
0.307368
0.272127
0.240614
0.212441
0.187254
0.164734
0.144587
0.126549
0.110376
0.0958483
0.0827634
0.0709363
0.0601968
0.0503877
0.041363
0.0329864
0.0251293
0.0176697
0.0104906
0.0034784
267.865
256.861
245.914
235.067
224.36
213.829
203.503
193.409
183.57
174.002
164.723
155.743
147.072
138.718
130.683
122.972
115.584
108.518
101.772
95.3417
89.2218
83.4063
77.8883
72.6603
67.7139
63.0405
58.6309
54.4757
50.5653
46.8899
43.4397
40.2048
37.1755
34.342
31.6947
29.2243
26.9215
24.7774
22.7832
20.9304
19.211
17.6169
16.1407
14.775
13.5129
12.3476
11.273
10.2828
9.37145
8.53345
7.76366
7.05721
6.40954
5.81632
5.2735
4.77727
4.32406
3.91054
3.53358
3.19026
2.87789
2.59393
2.33603
2.10202
1.88987
1.69772
1.52384
1.36664
1.22463
1.09646
0.980884
0.876755
0.783016
0.698703
0.622928
0.554881
0.49382
0.439069
0.39001
0.346078
0.30676
0.271589
0.240138
0.212021
0.186884
0.164408
0.144302
0.126299
0.110158
0.0956589
0.0825999
0.0707961
0.0600779
0.0502882
0.0412813
0.0329212
0.0250796
0.0176348
0.0104699
0.00347153
267.266
256.288
245.365
234.542
223.859
213.351
203.049
192.978
183.16
173.614
164.355
155.395
146.744
138.408
130.391
122.697
115.326
108.276
101.545
95.1288
89.0225
83.22
77.7144
72.498
67.5627
62.8997
58.4999
54.354
50.4523
46.7852
43.3427
40.115
37.0924
34.2653
31.6239
29.159
26.8614
24.722
22.7323
20.8837
19.1681
17.5776
16.1047
14.742
13.4827
12.3201
11.2478
10.2598
9.35053
8.5144
7.74632
7.04146
6.39523
5.80334
5.26173
4.76661
4.31441
3.90181
3.52569
3.18314
2.87147
2.58814
2.33082
2.09733
1.88566
1.69394
1.52044
1.36359
1.22189
1.09401
0.978696
0.874799
0.78127
0.697144
0.621539
0.553643
0.492719
0.43809
0.38914
0.345307
0.306077
0.270984
0.239603
0.211548
0.186468
0.164042
0.14398
0.126017
0.109913
0.0954459
0.0824159
0.0706385
0.0599441
0.0501762
0.0411895
0.0328479
0.0250238
0.0175956
0.0104466
0.0034638
266.602
255.651
244.755
233.959
223.303
212.821
202.544
192.498
182.705
173.182
163.947
155.009
146.379
138.064
130.067
122.393
115.039
108.007
101.293
94.8924
88.8013
83.0132
77.5212
72.3178
67.3948
62.7434
58.3545
54.2189
50.327
46.6689
43.2349
40.0153
37.0003
34.1801
31.5453
29.0866
26.7946
24.6606
22.6758
20.8318
19.1205
17.5339
16.0646
14.7054
13.4492
12.2894
11.2198
10.2344
9.3273
8.49324
7.72708
7.02397
6.37935
5.78892
5.24866
4.75477
4.3037
3.89212
3.51693
3.17524
2.86434
2.58171
2.32503
2.09212
1.88097
1.68973
1.51667
1.3602
1.21886
1.0913
0.976267
0.872628
0.779331
0.695414
0.619996
0.55227
0.491497
0.437004
0.388175
0.34445
0.305317
0.270311
0.239009
0.211024
0.186005
0.163635
0.143623
0.125705
0.10964
0.0952093
0.0822117
0.0704635
0.0597956
0.0500519
0.0410874
0.0327666
0.0249618
0.017552
0.0104207
0.00345522
265.872
254.951
244.085
233.319
222.692
212.239
201.99
191.971
182.204
172.708
163.498
154.585
145.978
137.686
129.711
122.057
114.724
107.711
101.015
94.6326
88.5582
82.7859
77.309
72.1198
67.2102
62.5716
58.1948
54.0705
50.1892
46.5411
43.1166
39.9058
36.899
34.0865
31.459
29.0069
26.7213
24.5931
22.6137
20.7748
19.0681
17.4859
16.0207
14.6651
13.4124
12.2558
11.1891
10.2063
9.30177
8.47
7.70593
7.00474
6.36189
5.77308
5.2343
4.74176
4.29192
3.88147
3.50731
3.16655
2.8565
2.57465
2.31867
2.0864
1.87583
1.68511
1.51252
1.35648
1.21553
1.08831
0.973597
0.870241
0.7772
0.693513
0.618301
0.55076
0.490153
0.435809
0.387114
0.343508
0.304483
0.269573
0.238356
0.210447
0.185497
0.163188
0.143231
0.125362
0.109341
0.0949493
0.0819872
0.0702711
0.0596323
0.0499153
0.0409752
0.0326771
0.0248937
0.0175041
0.0103923
0.00344579
265.077
254.188
243.355
232.621
222.025
211.604
201.385
191.397
181.659
172.192
163.008
154.122
145.542
137.274
129.323
121.692
114.381
107.389
100.713
94.3495
88.2932
82.5382
77.0777
71.904
67.0091
62.3844
58.0206
53.9087
50.039
46.4019
42.9876
39.7864
36.7886
33.9845
31.3648
28.9201
26.6413
24.5195
22.5461
20.7126
19.0111
17.4336
15.9727
14.6212
13.3722
12.2191
11.1557
10.1758
9.27394
8.44466
7.68288
6.98379
6.34286
5.75581
5.21864
4.72757
4.27908
3.86986
3.49682
3.15708
2.84796
2.56695
2.31173
2.08016
1.87022
1.68007
1.508
1.35243
1.21189
1.08506
0.970687
0.86764
0.774877
0.69144
0.616453
0.549114
0.488688
0.434507
0.385957
0.342482
0.303573
0.268768
0.237644
0.209818
0.184943
0.162701
0.142803
0.124987
0.109014
0.0946658
0.0817424
0.0700613
0.0594544
0.0497663
0.0408529
0.0325796
0.0248194
0.0174518
0.0103613
0.00343551
264.216
253.363
242.564
231.865
221.304
210.916
200.731
190.775
181.069
171.632
162.479
153.622
145.069
136.828
128.903
121.297
114.01
107.04
100.386
94.043
88.0064
82.2701
76.8273
71.6705
66.7915
62.1817
57.8322
53.7336
49.8765
46.2512
42.848
39.6572
36.6691
33.8742
31.263
28.8262
26.5548
24.4399
22.4729
20.6454
18.9493
17.377
15.9209
14.5738
13.3288
12.1795
11.1194
10.1428
9.24383
8.41724
7.65793
6.96112
6.32226
5.73713
5.2017
4.71223
4.26519
3.8573
3.48547
3.14683
2.83871
2.55862
2.30423
2.07341
1.86415
1.67462
1.5031
1.34804
1.20796
1.08154
0.967537
0.864825
0.772363
0.689197
0.614453
0.547332
0.487103
0.433097
0.384706
0.341372
0.302589
0.267896
0.236873
0.209138
0.184344
0.162173
0.14234
0.124582
0.108661
0.094359
0.0814775
0.0698343
0.0592617
0.049605
0.0407206
0.032474
0.024739
0.0173953
0.0103277
0.00342438
263.29
252.475
241.714
231.052
220.529
210.177
200.028
190.106
180.435
171.031
161.91
153.083
144.56
136.348
128.451
120.872
113.61
106.665
100.034
93.7134
87.698
81.9818
76.558
71.4193
66.5574
61.9638
57.6295
53.5453
49.7017
46.089
42.6978
39.5182
36.5406
33.7554
31.1534
28.7252
26.4617
24.3542
22.3941
20.573
18.8829
17.3161
15.8651
14.5227
13.2821
12.1368
11.0805
10.1072
9.21143
8.38774
7.6311
6.93672
6.30011
5.71702
5.18347
4.69572
4.25025
3.84378
3.47326
3.13581
2.82877
2.54965
2.29616
2.06614
1.85762
1.66875
1.49784
1.34332
1.20373
1.07775
0.964149
0.861797
0.769658
0.686784
0.612302
0.545416
0.485398
0.431581
0.383359
0.340177
0.30153
0.266958
0.236044
0.208406
0.183699
0.161606
0.141842
0.124146
0.108281
0.0940289
0.0811925
0.06959
0.0590544
0.0494315
0.0405782
0.0323605
0.0246525
0.0173345
0.0102916
0.00341241
262.299
251.524
240.804
230.183
219.698
209.386
199.275
189.391
179.756
170.387
161.3
152.507
144.016
135.835
127.968
120.417
113.182
106.264
99.6576
93.3607
87.3678
81.6732
76.2699
71.1505
66.3069
61.7305
57.4126
53.3437
49.5146
45.9156
42.5371
39.3694
36.403
33.6284
31.0361
28.6171
26.3621
24.2626
22.3098
20.4956
18.8119
17.2509
15.8054
14.468
13.2321
12.0911
11.0388
10.0692
9.17677
8.35618
7.60238
6.91062
6.2764
5.69551
5.16397
4.67805
4.23425
3.82932
3.46019
3.12401
2.81812
2.54006
2.28752
2.05837
1.85063
1.66247
1.49221
1.33826
1.1992
1.0737
0.960523
0.858556
0.766764
0.684201
0.61
0.543365
0.483573
0.429959
0.381918
0.338898
0.300396
0.265955
0.235157
0.207623
0.183008
0.160999
0.141309
0.12368
0.107874
0.0936756
0.0808875
0.0693286
0.0588326
0.0492459
0.0404258
0.0322389
0.0245599
0.0172694
0.0102529
0.00339959
261.243
250.512
239.835
229.256
218.814
208.543
198.473
188.629
179.032
169.701
160.651
151.893
143.437
135.288
127.453
119.932
112.727
105.836
99.2564
92.9849
87.0162
81.3444
75.9629
70.8641
66.04
61.4821
57.1815
53.129
49.3153
45.7307
42.3658
39.2109
36.2565
33.493
30.9112
28.5019
26.256
24.1649
22.22
20.4131
18.7361
17.1815
15.7418
14.4098
13.1789
12.0424
10.9943
10.0287
9.13984
8.32255
7.57179
6.88281
6.25115
5.67259
5.14319
4.65922
4.21722
3.81391
3.44627
3.11144
2.80679
2.52984
2.27832
2.05009
1.84319
1.65579
1.4862
1.33288
1.19438
1.06938
0.956659
0.855103
0.76368
0.68145
0.607547
0.54118
0.481628
0.42823
0.380382
0.337535
0.299189
0.264886
0.234212
0.206788
0.182273
0.160352
0.140741
0.123183
0.10744
0.0932992
0.0805625
0.06905
0.0585962
0.049048
0.0402634
0.0321094
0.0244612
0.0172
0.0102117
0.00338593
260.123
249.438
238.807
228.273
217.876
207.649
197.622
187.82
178.264
168.973
159.962
151.242
142.822
134.708
126.906
119.418
112.243
105.382
98.8308
92.5861
86.643
80.9956
75.6371
70.5602
65.7568
61.2184
56.9363
52.9012
49.1038
45.5347
42.1842
39.0428
36.101
33.3494
30.7787
28.3797
26.1435
24.0613
22.1247
20.3256
18.6558
17.1078
15.6743
14.348
13.1224
11.9908
10.9472
9.98567
9.10066
8.28687
7.53933
6.8533
6.22435
5.64828
5.12114
4.63925
4.19914
3.79756
3.4315
3.0981
2.79476
2.519
2.26855
2.0413
1.83529
1.64869
1.47983
1.32717
1.18926
1.0648
0.95256
0.851439
0.760408
0.67853
0.604944
0.538862
0.479565
0.426395
0.378753
0.33609
0.297907
0.263751
0.233209
0.205903
0.181492
0.159665
0.140139
0.122655
0.10698
0.0928998
0.0802176
0.0687544
0.0583454
0.0488381
0.040091
0.031972
0.0243565
0.0171264
0.010168
0.00337144
258.938
248.302
237.719
227.234
216.884
206.704
196.722
186.964
177.453
168.204
159.234
150.553
142.171
134.095
126.328
118.874
111.732
104.902
98.3808
92.1646
86.2485
80.6268
75.2927
70.2389
65.4574
60.9397
56.677
52.6603
48.8802
45.3273
41.9921
38.865
35.9367
33.1976
30.6385
28.2505
26.0244
23.9518
22.024
20.233
18.5709
17.0299
15.6029
14.2827
13.0626
11.9362
10.8974
9.94021
9.05923
8.24915
7.50501
6.82211
6.19602
5.62256
5.09783
4.61813
4.18003
3.78028
3.41588
3.084
2.78204
2.50753
2.25823
2.03201
1.82693
1.64119
1.4731
1.32113
1.18385
1.05995
0.948226
0.847565
0.756949
0.675443
0.602191
0.536411
0.477384
0.424456
0.37703
0.334561
0.296552
0.262552
0.232148
0.204966
0.180667
0.158939
0.139501
0.122098
0.106494
0.0924774
0.0798529
0.0684419
0.0580801
0.0486161
0.0399088
0.0318267
0.0242458
0.0170485
0.0101218
0.00335612
257.69
247.105
236.573
226.138
215.838
205.707
195.774
186.063
176.597
167.393
158.466
149.827
141.486
133.448
125.719
118.301
111.194
104.396
97.9065
91.7202
85.8327
80.2381
74.9298
69.9003
65.1418
60.6459
56.4038
52.4065
48.6446
45.1088
41.7897
38.6777
35.7634
33.0375
30.4909
28.1143
25.899
23.8363
21.9178
20.1355
18.4814
16.9479
15.5277
14.2139
12.9997
11.8787
10.8448
9.8923
9.01556
8.20939
7.46884
6.78923
6.16615
5.59547
5.07326
4.59588
4.15988
3.76206
3.39942
3.06914
2.76863
2.49545
2.24735
2.02222
1.81813
1.63328
1.466
1.31476
1.17815
1.05484
0.943658
0.843481
0.753302
0.672189
0.599291
0.533827
0.475084
0.422411
0.375214
0.332949
0.295124
0.261287
0.23103
0.203979
0.179797
0.158174
0.13883
0.12151
0.105981
0.0920322
0.0794684
0.0681124
0.0578005
0.048382
0.0397167
0.0316735
0.0241291
0.0169665
0.0100731
0.00333996
256.378
245.847
235.369
224.987
214.739
204.66
194.777
185.116
175.698
166.541
157.659
149.064
140.766
132.769
125.079
117.699
110.628
103.865
97.4081
91.2533
85.3958
79.8296
74.5483
69.5444
64.8102
60.3372
56.1167
52.1397
48.3969
44.8792
41.5769
38.4808
35.5814
32.8694
30.3356
27.9712
25.7671
23.7149
21.8063
20.033
18.3873
16.8616
15.4486
14.1415
12.9335
11.8182
10.7896
9.84195
8.96967
8.1676
7.43082
6.75467
6.13477
5.56699
5.04744
4.57249
4.13871
3.74291
3.38211
3.05352
2.75454
2.48275
2.23591
2.01193
1.80888
1.62497
1.45854
1.30807
1.17215
1.04948
0.938856
0.83919
0.749469
0.668769
0.596242
0.531111
0.472667
0.420262
0.373305
0.331256
0.293623
0.259958
0.229855
0.202942
0.178882
0.157369
0.138124
0.120892
0.105442
0.0915642
0.0790644
0.0677661
0.0575067
0.048136
0.0395147
0.0315124
0.0240064
0.0168802
0.0100219
0.00332298
255.003
244.528
234.106
223.78
213.588
203.562
193.732
184.123
174.756
165.648
156.814
148.265
140.01
132.057
124.409
117.067
110.034
103.308
96.8856
90.7638
84.9377
79.4014
74.1484
69.1714
64.4626
60.0135
55.8157
51.86
48.1374
44.6385
41.3539
38.2744
35.3905
32.6931
30.1729
27.8211
25.6289
23.5878
21.6893
19.9255
18.2887
16.7711
15.3658
14.0657
12.8641
11.7548
10.7318
9.78917
8.92157
8.1238
7.39097
6.71845
6.10187
5.53713
5.02037
4.54797
4.11652
3.72284
3.36398
3.03715
2.73977
2.46944
2.22392
2.00114
1.79918
1.61626
1.45072
1.30106
1.16587
1.04385
0.933823
0.834691
0.745452
0.665184
0.593046
0.528264
0.470134
0.41801
0.371304
0.32948
0.292049
0.258565
0.228623
0.201854
0.177924
0.156526
0.137384
0.120244
0.104877
0.0910736
0.0786408
0.067403
0.0571986
0.0478782
0.039303
0.0313436
0.0238778
0.0167898
0.0099682
0.00330518
253.565
243.149
232.786
222.518
212.383
202.414
192.64
183.085
173.77
164.714
155.929
147.429
139.221
131.312
123.707
116.407
109.414
102.725
96.3392
90.252
84.4587
78.9537
73.7303
68.7813
64.099
59.6751
55.5009
51.5675
47.8659
44.3867
41.1207
38.0586
35.1909
32.5087
30.0028
27.6642
25.4844
23.4547
21.567
19.8132
18.1855
16.6766
15.2791
13.9863
12.7916
11.6886
10.6713
9.73397
8.87126
8.07799
7.3493
6.68057
6.06747
5.50591
4.99207
4.52232
4.09331
3.70185
3.34501
3.02003
2.72432
2.45552
2.21138
1.98986
1.78904
1.60714
1.44254
1.29373
1.15929
1.03797
0.928559
0.829986
0.74125
0.661435
0.589703
0.525287
0.467484
0.415654
0.369212
0.327624
0.290403
0.257108
0.227335
0.200717
0.176921
0.155644
0.13661
0.119567
0.104287
0.0905605
0.0781977
0.0670233
0.0568764
0.0476085
0.0390816
0.0311671
0.0237433
0.0166952
0.00991205
0.00328657
252.064
241.71
231.408
221.201
211.126
201.216
191.5
182.001
172.742
163.739
155.006
146.556
138.397
130.535
122.975
115.718
108.766
102.117
95.7691
89.7179
83.9589
78.4864
73.2939
68.3743
63.7197
59.3219
55.1725
51.2624
47.5826
44.1241
40.8774
37.8333
34.9827
32.3163
29.8252
27.5005
25.3336
23.3159
21.4394
19.6959
18.0779
16.5779
15.1887
13.9036
12.7159
11.6194
10.6081
9.67637
8.81877
8.03019
7.30581
6.64103
6.03156
5.47333
4.96253
4.49557
4.06909
3.67995
3.32522
3.00216
2.70821
2.44099
2.1983
1.97809
1.77845
1.59764
1.43401
1.28607
1.15244
1.03183
0.923066
0.825077
0.736865
0.657522
0.586215
0.52218
0.464719
0.413196
0.367028
0.325686
0.288686
0.255587
0.22599
0.19953
0.175875
0.154724
0.135802
0.11886
0.10367
0.0900251
0.0777354
0.066627
0.0565401
0.047327
0.0388506
0.0309828
0.023603
0.0165965
0.00985345
0.00326714
250.502
240.212
229.974
219.83
209.817
199.969
190.312
180.873
171.671
162.724
154.045
145.648
137.539
129.726
122.212
115.001
108.092
101.484
95.1753
89.1616
83.4383
77.9998
72.8395
67.9504
63.3246
58.9541
54.8304
50.9445
47.2876
43.8505
40.6239
37.5988
34.7658
32.116
29.6403
27.33
25.1765
23.1714
21.3065
19.5738
17.9658
16.4751
15.0946
13.8174
12.6371
11.5474
10.5423
9.61638
8.7641
7.98041
7.26052
6.59987
5.99417
5.4394
4.93177
4.4677
4.04386
3.65714
3.30461
2.98355
2.69142
2.42586
2.18467
1.96583
1.76743
1.58773
1.42512
1.2781
1.14529
1.02543
0.917345
0.819963
0.732299
0.653448
0.582582
0.518944
0.461839
0.410635
0.364754
0.323668
0.286897
0.254004
0.22459
0.198294
0.174785
0.153765
0.13496
0.118123
0.103028
0.0894674
0.0772538
0.0662143
0.0561898
0.0470338
0.0386099
0.0307909
0.0234568
0.0164937
0.00979242
0.0032469
248.877
238.654
228.482
218.404
208.456
198.672
189.078
179.7
170.557
161.668
153.046
144.703
136.647
128.884
121.42
114.255
107.391
100.826
94.558
88.5834
82.8972
77.4939
72.3671
67.5097
62.9139
58.5718
54.4748
50.6141
46.9809
43.5661
40.3605
37.3549
34.5403
31.9077
29.4481
27.1528
25.0133
23.0211
21.1683
19.4469
17.8493
16.3683
14.9967
13.7278
12.5551
11.4725
10.474
9.55402
8.70726
7.92866
7.21343
6.55707
5.9553
5.40413
4.89979
4.43873
4.01764
3.63343
3.28318
2.9642
2.67397
2.41013
2.17051
1.95308
1.75597
1.57744
1.41588
1.26981
1.13787
1.01878
0.911398
0.814647
0.727551
0.649211
0.578805
0.515579
0.458845
0.407973
0.362389
0.32157
0.285037
0.252357
0.223134
0.197008
0.173652
0.152768
0.134086
0.117358
0.10236
0.0888875
0.0767532
0.0657852
0.0558257
0.046729
0.0383597
0.0305913
0.0233048
0.0163868
0.00972896
0.00322586
247.191
237.037
226.934
216.924
207.044
197.326
187.797
178.482
169.402
160.573
152.009
143.723
135.721
128.011
120.597
113.481
106.663
100.143
93.9174
87.9832
82.3356
76.9689
71.8769
67.0523
62.4877
58.175
54.1057
50.2713
46.6627
43.271
40.0871
37.1019
34.3063
31.6915
29.2486
26.9688
24.8438
22.8652
21.0249
19.3152
17.7284
16.2574
14.8951
13.6348
12.4701
11.3948
10.403
9.4893
8.64828
7.87495
7.16457
6.51265
5.91496
5.36753
4.8666
4.40866
3.99043
3.60882
3.26094
2.94412
2.65586
2.39381
2.15581
1.93985
1.74408
1.56676
1.40629
1.26121
1.13016
1.01188
0.905226
0.80913
0.722624
0.644815
0.574886
0.512088
0.455738
0.405211
0.359935
0.319392
0.283107
0.250649
0.221623
0.195675
0.172477
0.151734
0.133178
0.116563
0.101667
0.0882858
0.0762335
0.0653398
0.0554478
0.0464127
0.0381
0.0303843
0.023147
0.0162759
0.0096631
0.00320402
245.444
235.362
225.33
215.391
205.581
195.931
186.47
177.221
168.205
159.438
150.935
142.707
134.762
127.107
119.745
112.679
105.909
99.4352
93.2537
87.3614
81.7537
76.425
71.3689
66.5784
62.0461
57.7639
53.7234
49.916
46.3329
42.9651
39.8037
36.8396
34.0639
31.4676
29.0419
26.7783
24.6682
22.7036
20.8763
19.1786
17.6031
16.1425
14.7898
13.5384
12.3819
11.3142
10.3295
9.42224
8.58716
7.8193
7.11394
6.46663
5.87316
5.3296
4.83221
4.37751
3.96223
3.58331
3.2379
2.92332
2.63709
2.37689
2.14057
1.92615
1.73175
1.55569
1.39636
1.2523
1.12218
1.00473
0.89883
0.803413
0.717518
0.640259
0.570824
0.50847
0.452518
0.402348
0.357393
0.317136
0.281107
0.248878
0.220058
0.194292
0.171258
0.150662
0.132237
0.11574
0.100949
0.0876622
0.0756951
0.0648783
0.0550562
0.0460849
0.037831
0.0301697
0.0229835
0.0161609
0.00959486
0.00318139
243.636
233.628
223.671
213.805
204.067
194.488
185.097
175.916
166.966
158.264
149.824
141.656
133.77
126.17
118.863
111.849
105.129
98.7029
92.5669
86.718
81.1516
75.8621
70.8433
66.0881
61.5892
57.3385
53.3277
49.5484
45.9917
42.6487
39.5106
36.5683
33.813
31.2358
28.828
26.581
24.4866
22.5364
20.7226
19.0374
17.4735
16.0236
14.6809
13.4387
12.2907
11.2309
10.2534
9.35286
8.52393
7.76172
7.06156
6.41901
5.82992
5.29035
4.79662
4.34527
3.93305
3.55693
3.21406
2.90179
2.61767
2.35939
2.12481
1.91196
1.719
1.54423
1.38608
1.24308
1.11391
0.997336
0.892212
0.797498
0.712236
0.635545
0.566621
0.504727
0.449187
0.399386
0.354761
0.314801
0.279038
0.247046
0.218438
0.192862
0.169998
0.149553
0.131264
0.114888
0.100206
0.0870169
0.0751379
0.0644008
0.0546509
0.0457457
0.0375525
0.0299476
0.0228144
0.016042
0.00952424
0.00315798
241.769
231.837
221.956
212.166
202.503
192.997
183.678
174.567
165.686
157.051
148.675
140.57
132.744
125.203
117.952
110.992
104.324
97.9462
91.8573
86.0533
80.5295
75.2806
70.3002
65.5815
61.117
56.8989
52.9189
49.1685
45.6391
42.3218
39.2077
36.288
33.5538
30.9964
28.607
26.3773
24.2989
22.3636
20.5637
18.8915
17.3395
15.9008
14.5684
13.3357
12.1965
11.1448
10.1748
9.28116
8.45859
7.70223
7.00743
6.36981
5.78523
5.2498
4.75986
4.31197
3.90291
3.52966
3.18942
2.87955
2.59761
2.3413
2.10853
1.89731
1.70583
1.5324
1.37545
1.23356
1.10538
0.989693
0.885374
0.791386
0.706777
0.630675
0.562279
0.500859
0.445744
0.396325
0.352043
0.312389
0.2769
0.245153
0.216764
0.191384
0.168695
0.148407
0.130258
0.114008
0.099438
0.0863502
0.0745622
0.0639073
0.0542322
0.0453952
0.0372648
0.0297182
0.0226396
0.0159191
0.00945127
0.00313378
239.841
229.989
220.187
210.475
200.888
191.459
182.213
173.175
164.365
155.799
147.49
139.449
131.686
124.205
117.012
110.107
103.492
97.1654
91.125
85.3673
79.8876
74.6805
69.7398
65.0587
60.6298
56.4453
52.4971
48.7766
45.2753
41.9844
38.8952
35.9987
33.2863
30.7493
28.379
26.167
24.1052
22.1853
20.3998
18.7409
17.2013
15.774
14.4522
13.2294
12.0993
11.056
10.0937
9.20718
8.39116
7.64083
6.95157
6.31903
5.73911
5.20795
4.72192
4.2776
3.8718
3.50153
3.164
2.8566
2.5769
2.32264
2.09172
1.88219
1.69223
1.52018
1.36449
1.22372
1.09657
0.981804
0.878318
0.785079
0.701144
0.625648
0.557798
0.496867
0.442192
0.393167
0.349237
0.309899
0.274693
0.243199
0.215037
0.189859
0.167351
0.147225
0.12922
0.113099
0.0986456
0.0856621
0.0739681
0.0633981
0.0538001
0.0450335
0.0369679
0.0294814
0.0224592
0.0157923
0.00937597
0.00310882
237.855
228.084
218.363
208.731
199.224
189.873
180.704
171.741
163.004
154.508
146.268
138.294
130.595
123.176
116.042
109.195
102.635
96.3606
90.3703
84.6602
79.2259
74.0619
69.1622
64.5198
60.1276
55.9778
52.0622
48.3726
44.9003
41.6367
38.573
35.7006
33.0106
30.4946
28.1439
25.9503
23.9055
22.0016
20.2308
18.5857
17.0589
15.6434
14.3325
13.1198
11.9991
10.9644
10.0101
9.13092
8.32167
7.57755
6.894
6.2667
5.69158
5.16482
4.68281
4.24217
3.83973
3.47253
3.1378
2.83294
2.55556
2.30341
2.0744
1.8666
1.67822
1.50759
1.35319
1.21359
1.08749
0.973674
0.871044
0.778578
0.695338
0.620467
0.553179
0.492753
0.43853
0.389911
0.346345
0.307333
0.272418
0.241185
0.213256
0.188287
0.165965
0.146006
0.12815
0.112163
0.0978289
0.0849529
0.0733557
0.0628733
0.0533547
0.0446607
0.0366618
0.0292373
0.0222732
0.0156615
0.00929835
0.00308308
235.809
226.123
216.486
206.937
197.511
188.24
179.15
170.264
161.602
153.18
145.011
137.105
129.472
122.117
115.045
108.256
101.752
95.5321
89.5932
83.9322
78.5446
73.4251
68.5675
63.9651
59.6106
55.4965
51.6146
47.9566
44.5142
41.2787
38.2414
35.3936
32.7268
30.2324
27.9019
25.7272
23.7
21.8124
20.0569
18.4259
16.9122
15.5089
14.2093
13.007
11.8959
10.8701
9.92407
9.05241
8.25012
7.51239
6.83472
6.21282
5.64265
5.12041
4.64255
4.2057
3.80672
3.44267
3.11082
2.80859
2.53359
2.2836
2.05656
1.85055
1.66379
1.49463
1.34156
1.20316
1.07814
0.965303
0.863556
0.771884
0.68936
0.615133
0.548423
0.488517
0.434761
0.386559
0.343368
0.304691
0.270077
0.239112
0.211423
0.186669
0.164538
0.144751
0.127049
0.111199
0.0969881
0.0842227
0.0727252
0.0623329
0.0528961
0.0442768
0.0363467
0.028986
0.0220818
0.0155269
0.00921843
0.00305658
233.706
224.106
214.555
205.091
195.749
186.561
177.552
168.746
160.161
151.813
143.717
135.882
128.317
121.028
114.018
107.29
100.845
94.6799
88.7941
83.1836
77.844
72.7701
67.9559
63.3945
59.0789
55.0015
51.1542
47.5289
44.1172
40.9105
37.9002
35.0779
32.4349
29.9627
27.6531
25.4977
23.4886
21.6179
19.878
18.2615
16.7613
15.3705
14.0826
12.891
11.7898
10.7732
9.83555
8.97167
8.17653
7.44539
6.77376
6.1574
5.59232
5.07474
4.60114
4.16818
3.77277
3.41197
3.08307
2.78354
2.51099
2.26324
2.03822
1.83405
1.64895
1.4813
1.32959
1.19243
1.06852
0.956694
0.855854
0.765
0.683212
0.609647
0.543532
0.48416
0.430883
0.383112
0.340306
0.301974
0.267668
0.23698
0.209538
0.185004
0.163071
0.14346
0.125916
0.110207
0.0961232
0.0834717
0.0720767
0.0617771
0.0524244
0.043882
0.0360227
0.0287276
0.0218849
0.0153885
0.00913624
0.00302933
231.545
222.034
212.571
203.194
193.939
184.836
175.91
167.185
158.68
150.41
142.388
134.626
127.131
119.909
112.964
106.298
99.9121
93.8044
87.973
82.4144
77.1242
72.0972
67.3275
62.8083
58.5326
54.4929
50.6812
47.0894
43.7092
40.5322
37.5498
34.7535
32.135
29.6857
27.3974
25.2619
23.2714
21.418
19.6942
18.0926
16.6063
15.2284
13.9523
12.7718
11.6808
10.6736
9.74461
8.88871
8.10093
7.37655
6.71113
6.10047
5.54061
5.02782
4.5586
4.12964
3.73788
3.38042
3.05457
2.7578
2.48778
2.24231
2.01938
1.81709
1.6337
1.46761
1.3173
1.1814
1.05864
0.947849
0.847942
0.757928
0.676896
0.604011
0.538507
0.479684
0.4269
0.37957
0.33716
0.299183
0.265194
0.234789
0.207601
0.183294
0.161564
0.142134
0.124752
0.109188
0.0952347
0.0827001
0.0714105
0.061206
0.0519398
0.0434764
0.0356897
0.028462
0.0216826
0.0152462
0.00905179
0.00300133
229.327
219.907