/*--------------------------------*- C++ -*----------------------------------*\
| =========                 |                                                 |
| \\      /  F ield         | OpenFOAM: The Open Source CFD Toolbox           |
|  \\    /   O peration     | Version:  2406                                  |
|   \\  /    A nd           | Website:  www.openfoam.com                      |
|    \\/     M anipulation  |                                                 |
\*---------------------------------------------------------------------------*/
FoamFile
{
    version     2.0;
    format      ascii;
    arch        "LSB;label=32;scalar=64";
    class       volScalarField;
    location    "75";
    object      T;
}
// * * * * * * * * * * * * * * * * * * * * * * * * * * * * * * * * * * * * * //

dimensions      [0 0 0 1 0 0 0];

internalField   nonuniform List<scalar> 
20000
(
300.676
300.648
300.62
300.593
300.566
300.539
300.513
300.488
300.463
300.439
300.416
300.393
300.371
300.35
300.33
300.31
300.292
300.274
300.257
300.241
300.225
300.21
300.196
300.183
300.171
300.159
300.148
300.137
300.128
300.118
300.11
300.101
300.094
300.087
300.08
300.074
300.068
300.063
300.057
300.053
300.048
300.044
300.041
300.037
300.034
300.031
300.028
300.026
300.024
300.022
300.02
300.018
300.016
300.015
300.013
300.012
300.011
300.01
300.009
300.008
300.007
300.007
300.006
300.005
300.005
300.004
300.004
300.003
300.003
300.003
300.002
300.002
300.002
300.002
300.002
300.001
300.001
300.001
300.001
300.001
300.001
300.001
300.001
300.001
300
300
300
300
300
300
300
300
300
300
300
300
300
300
300
300
302.027
301.944
301.861
301.779
301.698
301.618
301.54
301.464
301.389
301.317
301.246
301.179
301.113
301.05
300.989
300.931
300.875
300.821
300.77
300.721
300.675
300.631
300.589
300.55
300.512
300.477
300.444
300.412
300.383
300.355
300.329
300.304
300.281
300.26
300.24
300.221
300.204
300.187
300.172
300.158
300.145
300.133
300.122
300.112
300.102
300.093
300.085
300.078
300.071
300.065
300.059
300.053
300.049
300.044
300.04
300.036
300.033
300.03
300.027
300.024
300.022
300.02
300.018
300.016
300.014
300.013
300.012
300.01
300.009
300.008
300.007
300.007
300.006
300.005
300.005
300.004
300.004
300.003
300.003
300.003
300.002
300.002
300.002
300.002
300.001
300.001
300.001
300.001
300.001
300.001
300.001
300.001
300
300
300
300
300
300
300
300
303.378
303.239
303.101
302.964
302.829
302.696
302.566
302.439
302.315
302.194
302.077
301.964
301.855
301.749
301.648
301.551
301.457
301.368
301.283
301.202
301.125
301.052
300.982
300.916
300.854
300.795
300.739
300.687
300.638
300.591
300.548
300.507
300.469
300.433
300.4
300.369
300.339
300.312
300.287
300.264
300.242
300.222
300.204
300.186
300.17
300.156
300.142
300.13
300.118
300.108
300.098
300.089
300.081
300.073
300.066
300.06
300.055
300.049
300.045
300.04
300.036
300.033
300.029
300.027
300.024
300.021
300.019
300.017
300.015
300.014
300.012
300.011
300.01
300.009
300.008
300.007
300.006
300.006
300.005
300.004
300.004
300.003
300.003
300.003
300.002
300.002
300.002
300.002
300.001
300.001
300.001
300.001
300.001
300.001
300.001
300
300
300
300
300
304.728
304.533
304.34
304.149
303.96
303.774
303.592
303.413
303.24
303.071
302.907
302.749
302.596
302.448
302.306
302.17
302.04
301.915
301.796
301.683
301.575
301.472
301.375
301.282
301.195
301.113
301.035
300.961
300.892
300.828
300.767
300.71
300.656
300.606
300.559
300.516
300.475
300.437
300.402
300.369
300.339
300.311
300.285
300.261
300.238
300.218
300.199
300.181
300.165
300.151
300.137
300.125
300.113
300.103
300.093
300.084
300.076
300.069
300.062
300.056
300.051
300.046
300.041
300.037
300.033
300.03
300.027
300.024
300.022
300.019
300.017
300.015
300.014
300.012
300.011
300.01
300.009
300.008
300.007
300.006
300.005
300.005
300.004
300.004
300.003
300.003
300.003
300.002
300.002
300.002
300.001
300.001
300.001
300.001
300.001
300.001
300
300
300
300
306.076
305.827
305.578
305.332
305.089
304.851
304.616
304.387
304.164
303.947
303.737
303.533
303.336
303.147
302.964
302.79
302.622
302.462
302.309
302.163
302.024
301.892
301.767
301.648
301.536
301.43
301.33
301.236
301.147
301.064
300.985
300.912
300.843
300.779
300.719
300.663
300.611
300.562
300.517
300.475
300.436
300.4
300.366
300.335
300.307
300.28
300.256
300.233
300.213
300.194
300.176
300.16
300.145
300.132
300.12
300.108
300.098
300.089
300.08
300.072
300.065
300.059
300.053
300.048
300.043
300.039
300.035
300.031
300.028
300.025
300.022
300.02
300.018
300.016
300.014
300.013
300.011
300.01
300.009
300.008
300.007
300.006
300.005
300.005
300.004
300.004
300.003
300.003
300.002
300.002
300.002
300.002
300.001
300.001
300.001
300.001
300.001
300
300
300
307.423
307.119
306.815
306.515
306.218
305.926
305.64
305.36
305.087
304.822
304.565
304.316
304.076
303.844
303.622
303.408
303.203
303.007
302.82
302.642
302.473
302.311
302.159
302.014
301.877
301.747
301.625
301.51
301.401
301.299
301.204
301.114
301.03
300.952
300.878
300.81
300.746
300.687
300.631
300.58
300.532
300.488
300.447
300.409
300.374
300.342
300.312
300.285
300.26
300.236
300.215
300.196
300.178
300.161
300.146
300.132
300.12
300.108
300.098
300.088
300.08
300.072
300.065
300.058
300.052
300.047
300.042
300.038
300.034
300.03
300.027
300.024
300.022
300.019
300.017
300.015
300.014
300.012
300.011
300.01
300.009
300.008
300.007
300.006
300.005
300.005
300.004
300.004
300.003
300.003
300.002
300.002
300.002
300.001
300.001
300.001
300.001
300
300
300
308.769
308.409
308.05
307.695
307.345
307
306.662
306.332
306.009
305.696
305.392
305.098
304.815
304.541
304.278
304.026
303.784
303.552
303.332
303.121
302.921
302.73
302.55
302.379
302.217
302.064
301.919
301.783
301.655
301.535
301.422
301.316
301.217
301.124
301.038
300.957
300.881
300.811
300.746
300.685
300.629
300.577
300.528
300.484
300.442
300.404
300.369
300.337
300.307
300.279
300.254
300.231
300.21
300.19
300.173
300.156
300.142
300.128
300.116
300.104
300.094
300.085
300.076
300.069
300.062
300.056
300.05
300.045
300.04
300.036
300.032
300.029
300.026
300.023
300.02
300.018
300.016
300.014
300.013
300.011
300.01
300.009
300.008
300.007
300.006
300.005
300.005
300.004
300.004
300.003
300.003
300.002
300.002
300.002
300.001
300.001
300.001
300.001
300
300
310.112
309.697
309.283
308.874
308.47
308.072
307.682
307.301
306.93
306.569
306.218
305.879
305.552
305.237
304.933
304.642
304.363
304.097
303.842
303.599
303.368
303.149
302.94
302.743
302.556
302.38
302.213
302.057
301.909
301.77
301.64
301.518
301.403
301.296
301.197
301.103
301.016
300.935
300.86
300.79
300.725
300.665
300.609
300.558
300.51
300.466
300.426
300.388
300.354
300.322
300.293
300.266
300.242
300.22
300.199
300.18
300.163
300.148
300.133
300.12
300.109
300.098
300.088
300.079
300.071
300.064
300.058
300.052
300.046
300.041
300.037
300.033
300.03
300.026
300.024
300.021
300.019
300.017
300.015
300.013
300.012
300.01
300.009
300.008
300.007
300.006
300.005
300.005
300.004
300.004
300.003
300.003
300.002
300.002
300.002
300.001
300.001
300.001
300
300
311.453
310.982
310.514
310.051
309.593
309.142
308.701
308.269
307.849
307.44
307.043
306.659
306.288
305.931
305.588
305.258
304.942
304.64
304.351
304.076
303.815
303.566
303.33
303.107
302.895
302.695
302.507
302.329
302.162
302.005
301.857
301.719
301.589
301.468
301.355
301.25
301.151
301.059
300.974
300.895
300.821
300.753
300.69
300.632
300.578
300.528
300.482
300.44
300.401
300.365
300.332
300.302
300.274
300.249
300.225
300.204
300.185
300.167
300.151
300.136
300.123
300.111
300.1
300.09
300.081
300.073
300.065
300.058
300.052
300.047
300.042
300.037
300.033
300.03
300.027
300.024
300.021
300.019
300.017
300.015
300.013
300.012
300.01
300.009
300.008
300.007
300.006
300.005
300.005
300.004
300.004
300.003
300.003
300.002
300.002
300.001
300.001
300.001
300
300
312.791
312.265
311.743
311.225
310.713
310.211
309.717
309.235
308.766
308.309
307.866
307.437
307.023
306.624
306.24
305.872
305.519
305.182
304.86
304.553
304.26
303.983
303.719
303.47
303.233
303.01
302.8
302.601
302.415
302.239
302.074
301.92
301.775
301.64
301.513
301.395
301.286
301.183
301.088
300.999
300.917
300.841
300.771
300.706
300.645
300.59
300.538
300.491
300.447
300.407
300.371
300.337
300.306
300.278
300.252
300.228
300.206
300.187
300.169
300.152
300.137
300.124
300.112
300.1
300.09
300.081
300.073
300.065
300.058
300.052
300.047
300.042
300.037
300.033
300.03
300.026
300.024
300.021
300.019
300.017
300.015
300.013
300.011
300.01
300.009
300.008
300.007
300.006
300.005
300.005
300.004
300.003
300.003
300.002
300.002
300.002
300.001
300.001
300
300
314.126
313.545
312.968
312.396
311.831
311.276
310.732
310.199
309.68
309.176
308.686
308.213
307.756
307.315
306.891
306.485
306.095
305.723
305.367
305.028
304.705
304.398
304.107
303.832
303.571
303.324
303.092
302.873
302.666
302.473
302.291
302.12
301.96
301.811
301.671
301.541
301.42
301.307
301.201
301.104
301.013
300.929
300.851
300.779
300.713
300.651
300.594
300.542
300.494
300.45
300.409
300.372
300.338
300.307
300.278
300.252
300.228
300.206
300.186
300.168
300.152
300.137
300.123
300.111
300.1
300.09
300.08
300.072
300.065
300.058
300.052
300.046
300.041
300.037
300.033
300.029
300.026
300.023
300.021
300.018
300.016
300.014
300.013
300.011
300.01
300.009
300.008
300.007
300.006
300.005
300.004
300.004
300.003
300.003
300.002
300.002
300.001
300.001
300.001
300
315.457
314.822
314.19
313.564
312.946
312.339
311.743
311.16
310.593
310.041
309.505
308.987
308.487
308.005
307.541
307.096
306.67
306.262
305.873
305.502
305.148
304.813
304.494
304.193
303.907
303.638
303.383
303.143
302.918
302.706
302.507
302.32
302.145
301.982
301.829
301.686
301.553
301.43
301.315
301.208
301.109
301.017
300.931
300.853
300.78
300.713
300.65
300.593
300.541
300.492
300.448
300.407
300.37
300.336
300.304
300.276
300.25
300.226
300.204
300.184
300.166
300.15
300.135
300.121
300.109
300.098
300.088
300.079
300.071
300.063
300.057
300.051
300.045
300.04
300.036
300.032
300.028
300.025
300.023
300.02
300.018
300.016
300.014
300.012
300.011
300.009
300.008
300.007
300.006
300.006
300.005
300.004
300.003
300.003
300.002
300.002
300.001
300.001
300.001
300
316.784
316.095
315.409
314.729
314.058
313.398
312.751
312.119
311.502
310.903
310.321
309.759
309.215
308.692
308.189
307.705
307.242
306.8
306.377
305.974
305.591
305.226
304.88
304.553
304.243
303.95
303.674
303.413
303.168
302.938
302.722
302.519
302.329
302.152
301.986
301.831
301.687
301.553
301.428
301.311
301.204
301.104
301.011
300.926
300.847
300.774
300.706
300.644
300.587
300.535
300.486
300.442
300.402
300.364
300.33
300.299
300.271
300.245
300.221
300.2
300.18
300.163
300.146
300.132
300.118
300.106
300.095
300.086
300.077
300.069
300.061
300.055
300.049
300.044
300.039
300.035
300.031
300.028
300.024
300.022
300.019
300.017
300.015
300.013
300.012
300.01
300.009
300.008
300.007
300.006
300.005
300.004
300.004
300.003
300.003
300.002
300.002
300.001
300.001
300
318.108
317.364
316.624
315.89
315.167
314.455
313.757
313.074
312.409
311.763
311.135
310.528
309.942
309.377
308.834
308.313
307.813
307.336
306.88
306.445
306.031
305.638
305.265
304.912
304.577
304.262
303.963
303.683
303.418
303.17
302.937
302.718
302.513
302.322
302.143
301.976
301.82
301.675
301.54
301.415
301.299
301.191
301.091
300.999
300.913
300.835
300.762
300.695
300.634
300.577
300.525
300.477
300.433
300.393
300.356
300.323
300.292
300.264
300.239
300.216
300.195
300.175
300.158
300.142
300.128
300.115
300.103
300.092
300.083
300.074
300.066
300.059
300.053
300.047
300.042
300.038
300.033
300.03
300.026
300.023
300.021
300.018
300.016
300.014
300.013
300.011
300.01
300.009
300.007
300.006
300.006
300.005
300.004
300.003
300.003
300.002
300.002
300.001
300.001
300
319.426
318.628
317.834
317.048
316.271
315.508
314.759
314.027
313.313
312.619
311.946
311.295
310.666
310.06
309.478
308.918
308.383
307.87
307.381
306.914
306.471
306.049
305.649
305.27
304.911
304.572
304.252
303.951
303.667
303.401
303.15
302.916
302.696
302.491
302.299
302.119
301.952
301.797
301.652
301.518
301.393
301.278
301.171
301.072
300.98
300.895
300.818
300.746
300.68
300.619
300.563
300.512
300.465
300.422
300.382
300.346
300.314
300.284
300.256
300.231
300.209
300.188
300.169
300.152
300.137
300.123
300.111
300.099
300.089
300.08
300.071
300.064
300.057
300.051
300.045
300.04
300.036
300.032
300.028
300.025
300.022
300.02
300.017
300.015
300.014
300.012
300.01
300.009
300.008
300.007
300.006
300.005
300.004
300.004
300.003
300.002
300.002
300.001
300.001
300
320.74
319.888
319.041
318.201
317.372
316.557
315.757
314.975
314.214
313.473
312.754
312.059
311.388
310.741
310.119
309.522
308.95
308.402
307.88
307.382
306.908
306.458
306.031
305.626
305.243
304.881
304.54
304.218
303.915
303.631
303.363
303.113
302.878
302.659
302.454
302.263
302.085
301.918
301.764
301.621
301.487
301.364
301.25
301.144
301.046
300.956
300.873
300.796
300.726
300.661
300.601
300.546
300.496
300.45
300.408
300.37
300.335
300.303
300.274
300.247
300.223
300.201
300.181
300.163
300.146
300.131
300.118
300.106
300.095
300.085
300.076
300.068
300.061
300.054
300.048
300.043
300.038
300.034
300.03
300.027
300.024
300.021
300.019
300.016
300.014
300.013
300.011
300.01
300.009
300.007
300.006
300.005
300.005
300.004
300.003
300.003
300.002
300.001
300.001
300
322.049
321.144
320.243
319.35
318.468
317.601
316.751
315.921
315.111
314.323
313.559
312.82
312.106
311.419
310.757
310.122
309.514
308.933
308.377
307.848
307.344
306.866
306.411
305.981
305.574
305.189
304.826
304.484
304.162
303.86
303.576
303.309
303.06
302.827
302.609
302.406
302.216
302.04
301.875
301.723
301.581
301.45
301.329
301.216
301.112
301.016
300.928
300.846
300.771
300.702
300.639
300.581
300.528
300.479
300.434
300.393
300.356
300.322
300.291
300.263
300.237
300.214
300.192
300.173
300.156
300.14
300.125
300.112
300.101
300.09
300.081
300.072
300.064
300.058
300.051
300.046
300.041
300.036
300.032
300.028
300.025
300.022
300.02
300.017
300.015
300.014
300.012
300.01
300.009
300.008
300.007
300.006
300.005
300.004
300.003
300.003
300.002
300.001
300.001
300
323.353
322.394
321.439
320.494
319.56
318.642
317.742
316.862
316.004
315.17
314.361
313.578
312.822
312.094
311.393
310.721
310.077
309.461
308.873
308.312
307.779
307.271
306.79
306.335
305.903
305.496
305.112
304.749
304.408
304.088
303.787
303.505
303.241
302.994
302.763
302.548
302.347
302.16
301.986
301.825
301.675
301.536
301.407
301.288
301.178
301.076
300.983
300.896
300.817
300.744
300.677
300.615
300.559
300.507
300.46
300.416
300.377
300.341
300.308
300.278
300.251
300.226
300.204
300.183
300.165
300.148
300.133
300.119
300.107
300.096
300.086
300.076
300.068
300.061
300.054
300.048
300.043
300.038
300.034
300.03
300.027
300.024
300.021
300.018
300.016
300.014
300.013
300.011
300.01
300.008
300.007
300.006
300.005
300.004
300.004
300.003
300.002
300.002
300.001
300
324.651
323.638
322.631
321.632
320.647
319.678
318.728
317.799
316.893
316.013
315.159
314.332
313.535
312.766
312.026
311.317
310.637
309.987
309.366
308.774
308.211
307.676
307.168
306.687
306.231
305.801
305.396
305.013
304.653
304.315
303.998
303.7
303.421
303.16
302.917
302.689
302.477
302.28
302.097
301.926
301.768
301.621
301.485
301.36
301.244
301.136
301.037
300.946
300.862
300.785
300.714
300.649
300.59
300.535
300.485
300.44
300.398
300.36
300.325
300.294
300.265
300.239
300.215
300.193
300.174
300.156
300.14
300.126
300.113
300.101
300.09
300.081
300.072
300.064
300.057
300.051
300.045
300.04
300.036
300.032
300.028
300.025
300.022
300.02
300.017
300.015
300.013
300.012
300.01
300.009
300.008
300.007
300.006
300.005
300.004
300.003
300.002
300.002
300.001
300
325.942
324.877
323.816
322.766
321.729
320.709
319.709
318.731
317.778
316.852
315.953
315.083
314.244
313.435
312.656
311.91
311.194
310.51
309.856
309.234
308.641
308.078
307.543
307.037
306.558
306.105
305.678
305.276
304.897
304.541
304.207
303.894
303.6
303.326
303.07
302.83
302.607
302.4
302.207
302.027
301.861
301.706
301.563
301.431
301.309
301.196
301.092
300.996
300.908
300.826
300.752
300.683
300.621
300.563
300.511
300.463
300.419
300.379
300.342
300.309
300.279
300.251
300.226
300.204
300.183
300.164
300.148
300.132
300.119
300.106
300.095
300.085
300.076
300.068
300.06
300.054
300.048
300.043
300.038
300.034
300.03
300.026
300.023
300.021
300.018
300.016
300.014
300.012
300.011
300.009
300.008
300.007
300.006
300.005
300.004
300.003
300.002
300.002
300.001
300
327.228
326.109
324.996
323.894
322.805
321.735
320.685
319.659
318.659
317.687
316.744
315.831
314.949
314.1
313.284
312.5
311.749
311.031
310.345
309.691
309.069
308.478
307.917
307.386
306.883
306.408
305.96
305.537
305.14
304.766
304.415
304.087
303.779
303.491
303.222
302.971
302.736
302.519
302.316
302.128
301.953
301.791
301.641
301.502
301.374
301.255
301.146
301.045
300.953
300.867
300.789
300.717
300.652
300.591
300.536
300.486
300.44
300.397
300.359
300.324
300.293
300.264
300.237
300.214
300.192
300.173
300.155
300.139
300.124
300.111
300.1
300.089
300.08
300.071
300.063
300.056
300.05
300.045
300.04
300.035
300.031
300.028
300.024
300.022
300.019
300.017
300.015
300.013
300.011
300.01
300.008
300.007
300.006
300.005
300.004
300.003
300.003
300.002
300.001
300
328.506
327.335
326.17
325.016
323.876
322.756
321.657
320.583
319.535
318.517
317.53
316.574
315.651
314.762
313.907
313.087
312.3
311.548
310.831
310.146
309.495
308.876
308.289
307.732
307.206
306.709
306.239
305.797
305.381
304.99
304.623
304.279
303.956
303.655
303.373
303.11
302.865
302.637
302.425
302.227
302.044
301.875
301.718
301.572
301.438
301.314
301.2
301.094
300.997
300.908
300.826
300.751
300.682
300.619
300.561
300.508
300.46
300.416
300.376
300.34
300.306
300.276
300.249
300.224
300.201
300.181
300.162
300.145
300.13
300.117
300.104
300.093
300.083
300.074
300.066
300.059
300.053
300.047
300.042
300.037
300.033
300.029
300.026
300.023
300.02
300.017
300.015
300.013
300.012
300.01
300.009
300.008
300.006
300.005
300.004
300.004
300.003
300.002
300.001
300
329.778
328.554
327.337
326.132
324.941
323.771
322.623
321.501
320.407
319.343
318.312
317.313
316.349
315.421
314.528
313.67
312.849
312.064
311.314
310.599
309.918
309.272
308.659
308.077
307.528
307.008
306.518
306.056
305.621
305.213
304.829
304.469
304.133
303.818
303.523
303.249
302.993
302.754
302.533
302.327
302.136
301.958
301.794
301.642
301.502
301.373
301.253
301.143
301.042
300.949
300.863
300.785
300.713
300.647
300.586
300.531
300.481
300.435
300.393
300.355
300.32
300.288
300.26
300.234
300.21
300.189
300.169
300.152
300.136
300.122
300.109
300.097
300.087
300.078
300.069
300.062
300.055
300.049
300.043
300.038
300.034
300.03
300.027
300.024
300.021
300.018
300.016
300.014
300.012
300.011
300.009
300.008
300.007
300.006
300.005
300.004
300.003
300.002
300.001
300
331.042
329.767
328.498
327.241
326
324.78
323.583
322.413
321.273
320.164
319.089
318.048
317.044
316.075
315.144
314.251
313.395
312.576
311.794
311.049
310.34
309.666
309.026
308.42
307.847
307.305
306.794
306.313
305.86
305.434
305.034
304.659
304.308
303.98
303.673
303.387
303.12
302.871
302.64
302.426
302.226
302.042
301.87
301.712
301.566
301.431
301.306
301.192
301.086
300.989
300.9
300.818
300.743
300.674
300.611
300.554
300.501
300.453
300.409
300.37
300.334
300.301
300.271
300.244
300.219
300.197
300.177
300.158
300.142
300.127
300.114
300.102
300.091
300.081
300.072
300.064
300.057
300.051
300.045
300.04
300.036
300.031
300.028
300.025
300.022
300.019
300.017
300.015
300.013
300.011
300.01
300.008
300.007
300.006
300.005
300.004
300.003
300.002
300.001
300
332.298
330.971
329.651
328.344
327.053
325.783
324.538
323.321
322.134
320.981
319.862
318.779
317.733
316.726
315.757
314.828
313.937
313.085
312.271
311.496
310.758
310.057
309.392
308.761
308.165
307.601
307.07
306.568
306.097
305.654
305.238
304.848
304.482
304.141
303.822
303.524
303.246
302.988
302.747
302.524
302.316
302.124
301.946
301.782
301.629
301.489
301.359
301.24
301.13
301.029
300.936
300.851
300.773
300.701
300.636
300.576
300.521
300.472
300.426
300.385
300.347
300.313
300.282
300.253
300.228
300.205
300.184
300.165
300.148
300.132
300.118
300.106
300.094
300.084
300.075
300.067
300.06
300.053
300.047
300.042
300.037
300.033
300.029
300.026
300.023
300.02
300.017
300.015
300.013
300.012
300.01
300.009
300.007
300.006
300.005
300.004
300.003
300.002
300.001
300
333.547
332.169
330.798
329.439
328.098
326.779
325.486
324.222
322.99
321.792
320.629
319.505
318.419
317.373
316.366
315.401
314.475
313.591
312.746
311.94
311.174
310.446
309.755
309.1
308.48
307.895
307.343
306.822
306.333
305.872
305.44
305.035
304.656
304.301
303.969
303.66
303.372
303.103
302.853
302.621
302.406
302.206
302.021
301.85
301.692
301.546
301.412
301.288
301.174
301.069
300.972
300.884
300.803
300.728
300.66
300.598
300.542
300.49
300.443
300.4
300.36
300.325
300.293
300.263
300.237
300.213
300.191
300.171
300.153
300.137
300.123
300.11
300.098
300.088
300.078
300.069
300.062
300.055
300.049
300.043
300.038
300.034
300.03
300.027
300.023
300.021
300.018
300.016
300.014
300.012
300.01
300.009
300.008
300.006
300.005
300.004
300.003
300.002
300.001
300
334.787
333.358
331.936
330.528
329.137
327.769
326.429
325.118
323.84
322.597
321.392
320.226
319.1
318.015
316.972
315.97
315.011
314.093
313.217
312.382
311.587
310.832
310.115
309.436
308.794
308.187
307.614
307.075
306.567
306.089
305.641
305.221
304.828
304.46
304.116
303.795
303.496
303.218
302.959
302.718
302.495
302.288
302.096
301.919
301.755
301.604
301.464
301.335
301.217
301.108
301.008
300.917
300.832
300.755
300.685
300.62
300.562
300.508
300.459
300.414
300.374
300.337
300.303
300.273
300.245
300.22
300.198
300.177
300.159
300.142
300.127
300.114
300.102
300.091
300.081
300.072
300.064
300.057
300.051
300.045
300.04
300.035
300.031
300.028
300.024
300.021
300.019
300.016
300.014
300.012
300.011
300.009
300.008
300.007
300.005
300.004
300.003
300.002
300.001
300
336.019
334.539
333.067
331.608
330.169
328.753
327.364
326.007
324.684
323.397
322.15
320.942
319.776
318.653
317.572
316.536
315.542
314.592
313.685
312.82
311.997
311.215
310.473
309.77
309.105
308.477
307.884
307.325
306.799
306.305
305.841
305.406
304.999
304.618
304.262
303.93
303.62
303.332
303.064
302.814
302.583
302.369
302.17
301.987
301.817
301.66
301.516
301.383
301.26
301.147
301.044
300.949
300.862
300.782
300.709
300.642
300.581
300.526
300.475
300.429
300.387
300.349
300.314
300.283
300.254
300.228
300.205
300.184
300.165
300.147
300.132
300.118
300.105
300.094
300.084
300.075
300.066
300.059
300.052
300.047
300.041
300.037
300.032
300.029
300.025
300.022
300.019
300.017
300.015
300.013
300.011
300.01
300.008
300.007
300.006
300.004
300.003
300.002
300.001
300
337.241
335.712
334.19
332.682
331.193
329.729
328.293
326.89
325.522
324.192
322.902
321.653
320.448
319.286
318.169
317.097
316.07
315.087
314.149
313.255
312.405
311.596
310.829
310.102
309.414
308.765
308.151
307.574
307.03
306.519
306.039
305.59
305.169
304.775
304.407
304.063
303.743
303.445
303.168
302.91
302.671
302.449
302.244
302.054
301.879
301.717
301.567
301.43
301.303
301.186
301.079
300.981
300.891
300.809
300.733
300.664
300.601
300.544
300.491
300.444
300.4
300.361
300.325
300.292
300.263
300.236
300.212
300.19
300.17
300.152
300.136
300.122
300.109
300.097
300.087
300.077
300.069
300.061
300.054
300.048
300.043
300.038
300.033
300.029
300.026
300.023
300.02
300.018
300.015
300.013
300.011
300.01
300.008
300.007
300.006
300.005
300.003
300.002
300.001
300
338.455
336.875
335.304
333.747
332.209
330.698
329.215
327.766
326.354
324.98
323.648
322.359
321.114
319.914
318.761
317.654
316.593
315.579
314.611
313.687
312.809
311.974
311.182
310.431
309.721
309.05
308.417
307.821
307.259
306.732
306.236
305.772
305.337
304.93
304.55
304.195
303.865
303.557
303.271
303.005
302.758
302.529
302.317
302.121
301.94
301.773
301.618
301.476
301.345
301.225
301.115
301.013
300.92
300.835
300.757
300.686
300.621
300.561
300.507
300.458
300.413
300.372
300.335
300.302
300.271
300.244
300.219
300.196
300.176
300.157
300.141
300.126
300.112
300.1
300.089
300.08
300.071
300.063
300.056
300.05
300.044
300.039
300.034
300.03
300.027
300.024
300.021
300.018
300.016
300.014
300.012
300.01
300.009
300.007
300.006
300.005
300.004
300.003
300.002
300
339.659
338.03
336.409
334.803
333.218
331.659
330.13
328.636
327.179
325.762
324.388
323.059
321.775
320.538
319.349
318.207
317.113
316.067
315.068
314.116
313.21
312.349
311.532
310.758
310.025
309.334
308.681
308.065
307.487
306.942
306.432
305.953
305.504
305.085
304.693
304.327
303.986
303.668
303.373
303.099
302.844
302.608
302.39
302.188
302.001
301.828
301.669
301.522
301.388
301.263
301.149
301.045
300.949
300.861
300.781
300.707
300.64
300.579
300.523
300.472
300.426
300.384
300.346
300.311
300.28
300.251
300.226
300.202
300.181
300.162
300.145
300.13
300.116
300.103
300.092
300.082
300.073
300.065
300.058
300.051
300.045
300.04
300.036
300.031
300.028
300.024
300.021
300.019
300.016
300.014
300.012
300.01
300.009
300.007
300.006
300.005
300.004
300.003
300.002
300.001
340.853
339.175
337.506
335.851
334.218
332.612
331.037
329.498
327.997
326.538
325.123
323.753
322.431
321.157
319.931
318.755
317.628
316.551
315.522
314.541
313.608
312.721
311.879
311.082
310.327
309.615
308.942
308.308
307.712
307.151
306.625
306.132
305.67
305.238
304.834
304.457
304.106
303.779
303.475
303.192
302.93
302.687
302.462
302.253
302.061
301.883
301.719
301.568
301.429
301.301
301.184
301.076
300.978
300.887
300.804
300.729
300.659
300.596
300.539
300.487
300.439
300.396
300.356
300.321
300.288
300.259
300.232
300.208
300.187
300.167
300.15
300.134
300.119
300.107
300.095
300.085
300.075
300.067
300.059
300.053
300.047
300.041
300.037
300.032
300.029
300.025
300.022
300.019
300.017
300.015
300.013
300.011
300.009
300.008
300.006
300.005
300.004
300.003
300.002
300.001
342.038
340.311
338.593
336.89
335.21
333.557
331.937
330.353
328.809
327.307
325.851
324.442
323.081
321.77
320.509
319.299
318.139
317.03
315.972
314.963
314.002
313.089
312.223
311.403
310.627
309.893
309.201
308.549
307.936
307.359
306.817
306.31
305.834
305.389
304.974
304.586
304.225
303.888
303.576
303.285
303.015
302.765
302.533
302.319
302.121
301.938
301.769
301.614
301.471
301.339
301.218
301.108
301.006
300.913
300.828
300.75
300.679
300.614
300.555
300.501
300.452
300.407
300.367
300.33
300.297
300.266
300.239
300.214
300.192
300.172
300.154
300.138
300.123
300.11
300.098
300.087
300.078
300.069
300.061
300.054
300.048
300.043
300.038
300.033
300.029
300.026
300.023
300.02
300.017
300.015
300.013
300.011
300.009
300.008
300.006
300.005
300.004
300.003
300.002
300.001
343.211
341.436
339.67
337.921
336.193
334.495
332.829
331.201
329.613
328.07
326.573
325.124
323.725
322.378
321.082
319.838
318.646
317.506
316.418
315.38
314.393
313.455
312.565
311.721
310.923
310.17
309.458
308.788
308.157
307.564
307.008
306.486
305.997
305.54
305.113
304.714
304.343
303.997
303.675
303.376
303.099
302.842
302.604
302.383
302.18
301.992
301.819
301.659
301.512
301.377
301.252
301.138
301.034
300.938
300.851
300.771
300.698
300.631
300.57
300.515
300.464
300.418
300.377
300.339
300.305
300.274
300.246
300.22
300.198
300.177
300.158
300.141
300.126
300.113
300.1
300.09
300.08
300.071
300.063
300.056
300.049
300.044
300.039
300.034
300.03
300.027
300.023
300.02
300.018
300.015
300.013
300.011
300.01
300.008
300.007
300.005
300.004
300.003
300.002
300.001
344.375
342.552
340.738
338.941
337.168
335.423
333.713
332.04
330.41
328.825
327.288
325.801
324.364
322.98
321.649
320.372
319.148
317.977
316.86
315.794
314.781
313.817
312.903
312.037
311.218
310.443
309.713
309.024
308.377
307.768
307.196
306.66
306.159
305.689
305.251
304.841
304.46
304.105
303.774
303.467
303.183
302.918
302.674
302.448
302.239
302.046
301.867
301.703
301.552
301.414
301.286
301.169
301.062
300.964
300.874
300.791
300.716
300.648
300.585
300.529
300.477
300.43
300.387
300.348
300.313
300.281
300.252
300.226
300.203
300.182
300.162
300.145
300.13
300.116
300.103
300.092
300.082
300.073
300.065
300.057
300.051
300.045
300.04
300.035
300.031
300.027
300.024
300.021
300.018
300.016
300.014
300.012
300.01
300.008
300.007
300.005
300.004
300.003
300.002
300.001
345.527
343.657
341.796
339.953
338.133
336.343
334.588
332.872
331.2
329.574
327.997
326.47
324.997
323.577
322.211
320.901
319.645
318.444
317.297
316.205
315.164
314.176
313.238
312.35
311.509
310.715
309.965
309.259
308.594
307.97
307.383
306.833
306.318
305.837
305.387
304.967
304.576
304.211
303.872
303.557
303.265
302.994
302.743
302.511
302.297
302.099
301.916
301.748
301.593
301.45
301.32
301.199
301.089
300.989
300.896
300.812
300.735
300.665
300.601
300.542
300.489
300.441
300.397
300.357
300.321
300.289
300.259
300.232
300.208
300.186
300.167
300.149
300.133
300.119
300.106
300.094
300.084
300.075
300.066
300.059
300.052
300.046
300.041
300.036
300.032
300.028
300.025
300.021
300.019
300.016
300.014
300.012
300.01
300.009
300.007
300.006
300.004
300.003
300.002
300.001
346.668
344.751
342.844
340.954
339.089
337.254
335.455
333.696
331.982
330.315
328.698
327.134
325.623
324.168
322.768
321.424
320.137
318.906
317.731
316.611
315.544
314.531
313.57
312.659
311.797
310.983
310.215
309.491
308.81
308.169
307.568
307.005
306.477
305.983
305.522
305.092
304.69
304.317
303.969
303.647
303.347
303.069
302.812
302.574
302.354
302.151
301.964
301.792
301.633
301.487
301.353
301.23
301.117
301.013
300.919
300.832
300.753
300.681
300.616
300.556
300.501
300.452
300.407
300.366
300.329
300.296
300.265
300.238
300.213
300.191
300.171
300.153
300.136
300.122
300.109
300.097
300.086
300.076
300.068
300.06
300.053
300.047
300.042
300.037
300.033
300.029
300.025
300.022
300.019
300.017
300.014
300.012
300.01
300.009
300.007
300.006
300.004
300.003
300.002
300.001
347.797
345.834
343.881
341.945
340.035
338.155
336.313
334.512
332.756
331.049
329.393
327.791
326.243
324.753
323.319
321.943
320.625
319.364
318.16