/*--------------------------------*- C++ -*----------------------------------*\
| =========                 |                                                 |
| \\      /  F ield         | OpenFOAM: The Open Source CFD Toolbox           |
|  \\    /   O peration     | Version:  2406                                  |
|   \\  /    A nd           | Website:  www.openfoam.com                      |
|    \\/     M anipulation  |                                                 |
\*---------------------------------------------------------------------------*/
FoamFile
{
    version     2.0;
    format      ascii;
    arch        "LSB;label=32;scalar=64";
    class       volScalarField;
    location    "135";
    object      T;
}
// * * * * * * * * * * * * * * * * * * * * * * * * * * * * * * * * * * * * * //

dimensions      [0 0 0 1 0 0 0];

internalField   nonuniform List<scalar> 
20000
(
299.887
299.92
299.951
299.98
300.007
300.033
300.057
300.079
300.099
300.118
300.135
300.151
300.166
300.179
300.191
300.202
300.212
300.221
300.229
300.235
300.241
300.246
300.25
300.254
300.257
300.259
300.26
300.261
300.261
300.261
300.26
300.259
300.257
300.255
300.253
300.25
300.247
300.244
300.24
300.236
300.232
300.228
300.224
300.22
300.215
300.21
300.206
300.201
300.196
300.191
300.186
300.181
300.176
300.172
300.167
300.162
300.157
300.152
300.147
300.142
300.138
300.133
300.128
300.124
300.119
300.115
300.111
300.106
300.102
300.098
300.094
300.09
300.086
300.082
300.078
300.075
300.071
300.067
300.064
300.06
300.057
300.054
300.051
300.047
300.044
300.041
300.038
300.035
300.032
300.029
300.026
300.023
300.021
300.018
300.015
300.012
300.01
300.007
300.004
300.001
299.662
299.76
299.853
299.941
300.022
300.098
300.169
300.236
300.297
300.354
300.406
300.454
300.498
300.538
300.574
300.607
300.636
300.663
300.686
300.706
300.724
300.739
300.751
300.762
300.77
300.776
300.78
300.782
300.783
300.782
300.78
300.776
300.771
300.765
300.758
300.75
300.741
300.731
300.72
300.709
300.697
300.685
300.672
300.659
300.645
300.631
300.617
300.603
300.588
300.574
300.559
300.544
300.529
300.515
300.5
300.485
300.47
300.456
300.441
300.427
300.413
300.399
300.385
300.371
300.358
300.345
300.332
300.319
300.306
300.294
300.282
300.27
300.258
300.246
300.235
300.224
300.213
300.202
300.192
300.181
300.171
300.161
300.152
300.142
300.132
300.123
300.114
300.105
300.096
300.087
300.079
300.07
300.062
300.053
300.045
300.037
300.029
300.02
300.012
300.004
299.436
299.601
299.756
299.901
300.037
300.164
300.282
300.393
300.495
300.589
300.676
300.756
300.829
300.896
300.957
301.011
301.061
301.104
301.143
301.177
301.206
301.231
301.252
301.269
301.282
301.293
301.299
301.303
301.304
301.303
301.299
301.293
301.285
301.274
301.263
301.249
301.234
301.218
301.2
301.181
301.162
301.141
301.12
301.098
301.075
301.052
301.029
301.005
300.98
300.956
300.932
300.907
300.882
300.858
300.833
300.808
300.784
300.76
300.736
300.712
300.688
300.665
300.642
300.619
300.597
300.574
300.553
300.531
300.51
300.49
300.469
300.449
300.43
300.41
300.391
300.373
300.355
300.337
300.319
300.302
300.285
300.269
300.253
300.237
300.221
300.205
300.19
300.175
300.16
300.146
300.131
300.117
300.103
300.089
300.075
300.061
300.048
300.034
300.02
300.007
299.211
299.441
299.658
299.861
300.052
300.23
300.395
300.549
300.692
300.825
300.946
301.058
301.161
301.254
301.339
301.416
301.484
301.546
301.6
301.647
301.688
301.723
301.752
301.776
301.795
301.809
301.819
301.824
301.826
301.824
301.818
301.81
301.798
301.784
301.767
301.748
301.727
301.704
301.68
301.654
301.626
301.597
301.567
301.537
301.505
301.473
301.44
301.406
301.372
301.338
301.304
301.269
301.235
301.2
301.166
301.131
301.097
301.063
301.03
300.996
300.963
300.93
300.898
300.866
300.835
300.804
300.774
300.744
300.714
300.685
300.657
300.629
300.601
300.574
300.548
300.522
300.497
300.472
300.447
300.423
300.399
300.376
300.353
300.331
300.309
300.287
300.266
300.245
300.224
300.204
300.184
300.164
300.144
300.124
300.105
300.086
300.067
300.047
300.028
300.009
298.986
299.282
299.56
299.822
300.066
300.295
300.508
300.706
300.89
301.06
301.216
301.36
301.492
301.612
301.721
301.82
301.908
301.987
302.056
302.117
302.17
302.215
302.252
302.283
302.307
302.325
302.338
302.345
302.347
302.344
302.337
302.326
302.311
302.293
302.271
302.247
302.22
302.19
302.159
302.125
302.09
302.053
302.015
301.975
301.934
301.893
301.85
301.807
301.764
301.72
301.676
301.631
301.587
301.543
301.498
301.454
301.41
301.367
301.323
301.28
301.238
301.196
301.154
301.114
301.073
301.033
300.994
300.956
300.918
300.881
300.844
300.808
300.773
300.738
300.704
300.671
300.638
300.606
300.575
300.544
300.513
300.484
300.454
300.425
300.397
300.369
300.342
300.315
300.288
300.262
300.236
300.21
300.185
300.16
300.135
300.11
300.086
300.061
300.037
300.012
298.761
299.123
299.463
299.782
300.081
300.36
300.621
300.863
301.087
301.295
301.486
301.662
301.823
301.97
302.103
302.223
302.331
302.427
302.512
302.586
302.651
302.706
302.752
302.789
302.819
302.841
302.856
302.864
302.867
302.864
302.855
302.841
302.823
302.801
302.775
302.745
302.712
302.676
302.638
302.596
302.553
302.508
302.461
302.413
302.363
302.312
302.261
302.208
302.155
302.101
302.047
301.993
301.939
301.885
301.831
301.777
301.723
301.67
301.617
301.564
301.512
301.461
301.41
301.36
301.311
301.263
301.215
301.168
301.121
301.076
301.031
300.987
300.944
300.902
300.86
300.82
300.78
300.741
300.702
300.664
300.627
300.591
300.555
300.52
300.485
300.451
300.418
300.385
300.352
300.32
300.288
300.257
300.226
300.195
300.165
300.135
300.105
300.075
300.045
300.015
298.536
298.964
299.366
299.743
300.096
300.426
300.733
301.019
301.284
301.53
301.756
301.963
302.153
302.327
302.484
302.626
302.753
302.867
302.967
303.055
303.131
303.196
303.25
303.295
303.329
303.356
303.373
303.384
303.386
303.383
303.372
303.356
303.335
303.309
303.278
303.243
303.204
303.161
303.116
303.067
303.016
302.963
302.907
302.85
302.791
302.731
302.67
302.608
302.545
302.482
302.418
302.354
302.29
302.226
302.162
302.099
302.035
301.972
301.91
301.848
301.786
301.726
301.666
301.607
301.549
301.491
301.435
301.379
301.325
301.271
301.218
301.166
301.115
301.065
301.016
300.968
300.921
300.875
300.829
300.785
300.741
300.698
300.656
300.614
300.573
300.533
300.493
300.454
300.416
300.378
300.341
300.304
300.267
300.231
300.195
300.159
300.123
300.088
300.053
300.018
298.312
298.805
299.269
299.703
300.111
300.491
300.846
301.175
301.481
301.764
302.024
302.264
302.483
302.683
302.864
303.028
303.175
303.306
303.422
303.523
303.611
303.686
303.748
303.799
303.839
303.87
303.89
303.902
303.905
303.901
303.889
303.871
303.846
303.815
303.78
303.739
303.694
303.645
303.593
303.537
303.478
303.416
303.353
303.287
303.219
303.15
303.079
303.008
302.935
302.862
302.789
302.715
302.641
302.567
302.494
302.42
302.347
302.274
302.202
302.131
302.06
301.99
301.921
301.853
301.786
301.72
301.655
301.591
301.528
301.466
301.405
301.345
301.286
301.229
301.172
301.117
301.062
301.009
300.956
300.905
300.854
300.805
300.756
300.708
300.661
300.615
300.569
300.524
300.48
300.436
300.393
300.35
300.308
300.266
300.225
300.183
300.142
300.102
300.061
300.02
298.088
298.647
299.172
299.664
300.125
300.556
300.958
301.331
301.677
301.998
302.293
302.564
302.812
303.039
303.244
303.43
303.596
303.744
303.875
303.99
304.09
304.174
304.245
304.303
304.349
304.383
304.406
304.419
304.423
304.418
304.405
304.384
304.356
304.321
304.281
304.235
304.184
304.129
304.069
304.006
303.939
303.869
303.797
303.722
303.646
303.567
303.488
303.407
303.325
303.242
303.159
303.075
302.991
302.908
302.824
302.741
302.658
302.576
302.494
302.413
302.333
302.254
302.176
302.099
302.023
301.948
301.874
301.801
301.73
301.66
301.591
301.523
301.457
301.392
301.327
301.265
301.203
301.142
301.083
301.025
300.968
300.911
300.856
300.802
300.749
300.696
300.644
300.594
300.543
300.494
300.445
300.397
300.349
300.301
300.254
300.208
300.161
300.115
300.069
300.023
297.865
298.489
299.075
299.625
300.14
300.621
301.07
301.487
301.873
302.231
302.561
302.864
303.141
303.394
303.623
303.83
304.016
304.182
304.328
304.456
304.567
304.662
304.741
304.806
304.857
304.895
304.921
304.935
304.94
304.934
304.919
304.896
304.865
304.826
304.781
304.73
304.673
304.611
304.544
304.474
304.399
304.321
304.241
304.157
304.072
303.984
303.895
303.805
303.713
303.621
303.528
303.434
303.341
303.247
303.154
303.061
302.969
302.877
302.786
302.695
302.606
302.517
302.43
302.344
302.259
302.175
302.093
302.012
301.932
301.854
301.777
301.701
301.627
301.554
301.483
301.412
301.343
301.276
301.21
301.144
301.081
301.018
300.956
300.896
300.836
300.777
300.72
300.663
300.607
300.552
300.497
300.443
300.39
300.337
300.284
300.232
300.18
300.128
300.077
300.026
297.642
298.331
298.978
299.586
300.155
300.686
301.181
301.642
302.069
302.464
302.828
303.163
303.469
303.748
304.001
304.23
304.435
304.618
304.78
304.921
305.044
305.148
305.236
305.307
305.363
305.405
305.434
305.45
305.455
305.449
305.432
305.407
305.372
305.33
305.28
305.223
305.161
305.092
305.019
304.941
304.858
304.772
304.683
304.591
304.497
304.4
304.301
304.202
304.1
303.998
303.896
303.793
303.689
303.586
303.483
303.381
303.278
303.177
303.076
302.977
302.878
302.78
302.684
302.589
302.495
302.402
302.311
302.222
302.134
302.047
301.962
301.879
301.797
301.716
301.637
301.56
301.484
301.409
301.336
301.264
301.193
301.124
301.056
300.989
300.923
300.859
300.795
300.732
300.67
300.609
300.549
300.489
300.43
300.372
300.314
300.256
300.199
300.142
300.085
300.028
297.42
298.173
298.882
299.547
300.169
300.751
301.292
301.796
302.264
302.696
303.094
303.461
303.796
304.101
304.378
304.629
304.853
305.053
305.23
305.385
305.519
305.634
305.729
305.807
305.869
305.915
305.946
305.964
305.969
305.962
305.944
305.916
305.879
305.832
305.778
305.716
305.647
305.572
305.492
305.406
305.316
305.222
305.125
305.024
304.92
304.815
304.707
304.598
304.487
304.375
304.263
304.15
304.037
303.924
303.811
303.699
303.587
303.476
303.366
303.257
303.149
303.042
302.937
302.833
302.73
302.629
302.529
302.431
302.335
302.24
302.147
302.056
301.966
301.878
301.792
301.707
301.624
301.542
301.462
301.383
301.306
301.23
301.156
301.082
301.01
300.94
300.87
300.801
300.733
300.667
300.601
300.535
300.471
300.407
300.343
300.28
300.218
300.155
300.093
300.031
297.198
298.017
298.786
299.508
300.184
300.815
301.404
301.951
302.458
302.928
303.36
303.758
304.122
304.453
304.755
305.026
305.27
305.487
305.68
305.848
305.993
306.117
306.221
306.306
306.373
306.423
306.457
306.476
306.482
306.474
306.455
306.424
306.383
306.333
306.274
306.207
306.132
306.051
305.963
305.87
305.773
305.671
305.565
305.455
305.343
305.228
305.111
304.992
304.872
304.751
304.629
304.507
304.384
304.261
304.139
304.017
303.895
303.775
303.655
303.537
303.419
303.303
303.189
303.076
302.964
302.855
302.746
302.64
302.535
302.433
302.332
302.232
302.135
302.039
301.945
301.853
301.763
301.674
301.587
301.502
301.418
301.336
301.255
301.175
301.097
301.02
300.944
300.87
300.796
300.724
300.652
300.581
300.511
300.442
300.373
300.304
300.236
300.169
300.101
300.034
296.977
297.86
298.69
299.469
300.198
300.879
301.514
302.105
302.652
303.158
303.625
304.054
304.447
304.805
305.129
305.423
305.686
305.92
306.127
306.309
306.466
306.6
306.712
306.803
306.875
306.929
306.966
306.987
306.993
306.985
306.964
306.931
306.887
306.832
306.768
306.696
306.615
306.528
306.433
306.333
306.228
306.118
306.003
305.885
305.764
305.64
305.514
305.386
305.256
305.126
304.994
304.862
304.73
304.597
304.465
304.334
304.203
304.073
303.943
303.816
303.689
303.564
303.44
303.318
303.198
303.08
302.963
302.848
302.735
302.624
302.515
302.408
302.303
302.2
302.099
301.999
301.902
301.806
301.712
301.62
301.53
301.441
301.354
301.268
301.184
301.101
301.019
300.938
300.859
300.781
300.704
300.627
300.551
300.476
300.402
300.328
300.255
300.182
300.109
300.036
296.757
297.704
298.595
299.43
300.212
300.943
301.624
302.258
302.845
303.388
303.889
304.349
304.771
305.155
305.503
305.817
306.1
306.351
306.574
306.768
306.937
307.08
307.201
307.299
307.376
307.434
307.473
307.496
307.502
307.494
307.471
307.436
307.388
307.33
307.261
307.184
307.097
307.003
306.902
306.795
306.681
306.563
306.441
306.314
306.184
306.051
305.916
305.778
305.639
305.499
305.358
305.216
305.074
304.932
304.79
304.649
304.509
304.369
304.231
304.094
303.958
303.824
303.691
303.56
303.431
303.304
303.179
303.056
302.935
302.816
302.699
302.584
302.471
302.36
302.252
302.145
302.04
301.938
301.837
301.738
301.641
301.546
301.452
301.36
301.27
301.181
301.093
301.007
300.922
300.838
300.755
300.673
300.592
300.511
300.431
300.352
300.273
300.195
300.117
300.039
296.538
297.549
298.5
299.392
300.227
301.007
301.734
302.411
303.038
303.618
304.152
304.644
305.093
305.503
305.875
306.211
306.512
306.781
307.018
307.226
307.406
307.559
307.688
307.792
307.875
307.937
307.979
308.003
308.01
308
307.976
307.939
307.888
307.826
307.753
307.67
307.577
307.477
307.369
307.254
307.133
307.007
306.876
306.741
306.602
306.46
306.316
306.169
306.021
305.871
305.72
305.569
305.417
305.266
305.114
304.964
304.814
304.665
304.517
304.37
304.225
304.082
303.941
303.801
303.663
303.527
303.394
303.262
303.133
303.006
302.881
302.759
302.638
302.52
302.404
302.29
302.178
302.069
301.961
301.856
301.752
301.65
301.55
301.452
301.356
301.261
301.167
301.075
300.984
300.894
300.806
300.718
300.632
300.546
300.461
300.376
300.292
300.208
300.125
300.042
296.319
297.394
298.405
299.353
300.241
301.071
301.844
302.563
303.229
303.846
304.414
304.937
305.415
305.851
306.246
306.603
306.923
307.209
307.461
307.682
307.873
308.036
308.173
308.284
308.372
308.438
308.483
308.508
308.515
308.505
308.48
308.44
308.386
308.32
308.242
308.154
308.056
307.949
307.834
307.712
307.584
307.449
307.31
307.167
307.019
306.868
306.714
306.558
306.401
306.241
306.081
305.92
305.759
305.598
305.437
305.277
305.117
304.959
304.802
304.646
304.492
304.34
304.189
304.041
303.894
303.75
303.608
303.468
303.331
303.196
303.063
302.933
302.805
302.679
302.556
302.435
302.316
302.199
302.085
301.973
301.863
301.755
301.648
301.544
301.441
301.34
301.241
301.143
301.046
300.951
300.857
300.764
300.671
300.58
300.49
300.4
300.31
300.221
300.133
300.044
296.102
297.24
298.311
299.315
300.255
301.134
301.953
302.714
303.42
304.073
304.675
305.228
305.735
306.196
306.615
306.993
307.333
307.635
307.902
308.136
308.339
308.511
308.656
308.774
308.867
308.936
308.984
309.011
309.018
309.008
308.981
308.939
308.882
308.811
308.729
308.636
308.532
308.419
308.297
308.168
308.032
307.89
307.742
307.59
307.434
307.274
307.111
306.946
306.779
306.61
306.441
306.27
306.1
305.929
305.759
305.589
305.42
305.252
305.086
304.921
304.758
304.596
304.437
304.28
304.125
303.972
303.821
303.673
303.528
303.385
303.244
303.106
302.97
302.837
302.707
302.579
302.453
302.329
302.208
302.09
301.973
301.858
301.746
301.635
301.526
301.419
301.314
301.21
301.108
301.007
300.907
300.809
300.711
300.615
300.519
300.423
300.329
300.235
300.141
300.047
295.885
297.087
298.217
299.277
300.27
301.197
302.061
302.865
303.61
304.3
304.935
305.519
306.053
306.541
306.983
307.382
307.74
308.059
308.341
308.588
308.802
308.984
309.137
309.261
309.36
309.433
309.483
309.512
309.52
309.509
309.48
309.435
309.375
309.301
309.214
309.115
309.006
308.886
308.758
308.622
308.478
308.328
308.173
308.012
307.847
307.678
307.507
307.332
307.156
306.978
306.799
306.619
306.439
306.258
306.079
305.899
305.721
305.544
305.368
305.194
305.022
304.852
304.683
304.517
304.354
304.192
304.034
303.877
303.724
303.573
303.424
303.279
303.135
302.995
302.857
302.722
302.589
302.459
302.331
302.206
302.083
301.962
301.843
301.726
301.611
301.498
301.387
301.278
301.17
301.063
300.958
300.854
300.751
300.649
300.547
300.447
300.347
300.248
300.148
300.049
295.669
296.934
298.124
299.239
300.284
301.26
302.169
303.015
303.8
304.525
305.194
305.808
306.371
306.883
307.349
307.769
308.146
308.482
308.778
309.038
309.263
309.455
309.616
309.747
309.85
309.927
309.98
310.01
310.018
310.007
309.977
309.93
309.866
309.789
309.697
309.593
309.478
309.352
309.217
309.074
308.923
308.765
308.601
308.432
308.258
308.081
307.9
307.716
307.531
307.343
307.155
306.966
306.776
306.586
306.397
306.209
306.021
305.835
305.65
305.467
305.285
305.106
304.929
304.754
304.582
304.412
304.245
304.081
303.919
303.76
303.604
303.45
303.3
303.152
303.007
302.865
302.725
302.588
302.453
302.321
302.192
302.064
301.939
301.817
301.696
301.577
301.46
301.345
301.231
301.119
301.008
300.898
300.79
300.683
300.576
300.47
300.365
300.261
300.156
300.052
295.455
296.783
298.031
299.202
300.298
301.322
302.277
303.164
303.988
304.749
305.451
306.096
306.686
307.224
307.713
308.154
308.549
308.902
309.213
309.486
309.722
309.924
310.092
310.23
310.338
310.419
310.475
310.506
310.515
310.503
310.471
310.422
310.355
310.273
310.177
310.068
309.947
309.815
309.674
309.523
309.365
309.199
309.027
308.85
308.667
308.481
308.291
308.099
307.904
307.707
307.509
307.311
307.112
306.913
306.714
306.516
306.319
306.124
305.93
305.737
305.547
305.359
305.173
304.99
304.809
304.631
304.455
304.283
304.113
303.946
303.782
303.621
303.463
303.308
303.156
303.006
302.86
302.716
302.575
302.436
302.3
302.167
302.035
301.906
301.78
301.655
301.532
301.411
301.292
301.174
301.058
300.943
300.829
300.716
300.605
300.494
300.383
300.273
300.164
300.055
295.241
296.631
297.938
299.164
300.312
301.384
302.384
303.313
304.175
304.972
305.707
306.382
307
307.564
308.075
308.537
308.951
309.32
309.646
309.932
310.179
310.39
310.566
310.71
310.824
310.908
310.966
310.999
311.009
310.996
310.963
310.911
310.842
310.756
310.655
310.541
310.414
310.276
310.128
309.97
309.804
309.631
309.451
309.265
309.074
308.879
308.681
308.479
308.275
308.069
307.862
307.654
307.446
307.237
307.029
306.822
306.616
306.411
306.208
306.007
305.808
305.611
305.416
305.224
305.035
304.848
304.665
304.484
304.306
304.131
303.96
303.791
303.626
303.463
303.304
303.148
302.994
302.844
302.696
302.551
302.408
302.268
302.131
301.996
301.863
301.733
301.604
301.477
301.353
301.229
301.108
300.987
300.868
300.75
300.633
300.517
300.401
300.286
300.172
300.057
295.029
296.481
297.846
299.127
300.326
301.446
302.49
303.461
304.361
305.194
305.962
306.667
307.313
307.901
308.435
308.917
309.35
309.735
310.076
310.375
310.633
310.853
311.037
311.188
311.306
311.395
311.456
311.49
311.5
311.486
311.452
311.398
311.325
311.236
311.131
311.011
310.879
310.735
310.58
310.415
310.242
310.06
309.872
309.678
309.479
309.275
309.068
308.857
308.644
308.429
308.213
307.995
307.778
307.56
307.343
307.126
306.911
306.697
306.485
306.275
306.067
305.861
305.658
305.457
305.259
305.064
304.873
304.684
304.498
304.316
304.136
303.96
303.788
303.618
303.451
303.288
303.128
302.97
302.816
302.664
302.516
302.37
302.226
302.085
301.946
301.81
301.676
301.543
301.413
301.284
301.157
301.031
300.907
300.784
300.661
300.54
300.419
300.299
300.179
300.06
294.818
296.332
297.755
299.09
300.34
301.507
302.596
303.608
304.546
305.414
306.215
306.95
307.623
308.237
308.793
309.296
309.747
310.149
310.504
310.815
311.084
311.314
311.506
311.663
311.786
311.879
311.942
311.978
311.988
311.974
311.938
311.882
311.806
311.713
311.603
311.479
311.341
311.19
311.029
310.857
310.676
310.488
310.292
310.089
309.881
309.669
309.453
309.233
309.011
308.787
308.561
308.335
308.108
307.881
307.655
307.429
307.204
306.982
306.76
306.541
306.324
306.11
305.898
305.689
305.483
305.279
305.079
304.883
304.689
304.499
304.312
304.129
303.948
303.772
303.598
303.428
303.26
303.096
302.936
302.778
302.622
302.47
302.321
302.174
302.029
301.887
301.747
301.609
301.473
301.339
301.206
301.075
300.945
300.817
300.689
300.563
300.437
300.312
300.187
300.062
294.608
296.183
297.664
299.053
300.353
301.568
302.701
303.754
304.73
305.634
306.466
307.231
307.932
308.57
309.149
309.672
310.141
310.56
310.929
311.253
311.533
311.772
311.972
312.135
312.263
312.36
312.425
312.462
312.473
312.459
312.421
312.362
312.284
312.187
312.073
311.943
311.8
311.643
311.475
311.297
311.109
310.912
310.708
310.498
310.281
310.06
309.835
309.607
309.376
309.143
308.908
308.672
308.436
308.2
307.964
307.73
307.496
307.264
307.034
306.806
306.58
306.357
306.136
305.919
305.704
305.493
305.285
305.08
304.879
304.681
304.487
304.296
304.108
303.924
303.744
303.566
303.392
303.222
303.054
302.89
302.729
302.57
302.415
302.262
302.111
301.963
301.817
301.674
301.532
301.393
301.255
301.119
300.984
300.85
300.717
300.586
300.455
300.324
300.194
300.065
294.4
296.036
297.574
299.016
300.367
301.629
302.805
303.899
304.913
305.851
306.716
307.511
308.238
308.901
309.503
310.046
310.533
310.968
311.352
311.688
311.979
312.227
312.434
312.604
312.737
312.837
312.906
312.944
312.955
312.94
312.901
312.84
312.759
312.658
312.539
312.405
312.256
312.094
311.919
311.733
311.538
311.334
311.122
310.903
310.679
310.449
310.216
309.978
309.738
309.496
309.252
309.007
308.762
308.517
308.272
308.028
307.786
307.545
307.306
307.069
306.834
306.603
306.374
306.148
305.925
305.705
305.489
305.277
305.068
304.862
304.66
304.462
304.267
304.076
303.888
303.704
303.524
303.346
303.172
303.002
302.834
302.67
302.508
302.349
302.193
302.039
301.888
301.739
301.592
301.447
301.303
301.162
301.022
300.883
300.745
300.608
300.472
300.337
300.202
300.067
294.193
295.889
297.484
298.98
300.381
301.689
302.909
304.043
305.095
306.068
306.964
307.788
308.543
309.23
309.854
310.417
310.923
311.373
311.771
312.12
312.422
312.679
312.894
313.07
313.208
313.312
313.383
313.423
313.434
313.419
313.378
313.315
313.23
313.126
313.003
312.864
312.709
312.541
312.36
312.167
311.965
311.753
311.533
311.307
311.074
310.836
310.593
310.347
310.098
309.847
309.594
309.34
309.086
308.832
308.578
308.325
308.074
307.824
307.576
307.33
307.087
306.847
306.609
306.375
306.144
305.916
305.692
305.472
305.255
305.042
304.832
304.627
304.425
304.227
304.032
303.841
303.654
303.47
303.29
303.113
302.939
302.768
302.601
302.436
302.274
302.114
301.958
301.803
301.651
301.5
301.352
301.205
301.059
300.915
300.773
300.631
300.49
300.349
300.209
300.07
293.987
295.744
297.395
298.944
300.394
301.749
303.012
304.186
305.275
306.283
307.211
308.064
308.845
309.557
310.203
310.786
311.31
311.776
312.188
312.549
312.861
313.128
313.351
313.533
313.676
313.783
313.857
313.898
313.91
313.894
313.852
313.787
313.699
313.591
313.463
313.319
313.159
312.985
312.797
312.598
312.388
312.169
311.942
311.707
311.466
311.219
310.968
310.714
310.456
310.196
309.934
309.671
309.408
309.145
308.882
308.62
308.36
308.101
307.844
307.59
307.338
307.089
306.843
306.601
306.362
306.126
305.894
305.666
305.441
305.22
305.003
304.791
304.581
304.376
304.175
303.977
303.783
303.593
303.406
303.223
303.043
302.866
302.693
302.522
302.354
302.189
302.027
301.867
301.709
301.553
301.399
301.247
301.097
300.948
300.8
300.653
300.507
300.362
300.217
300.072
293.783
295.599
297.306
298.908
300.407
301.808
303.114
304.328
305.454
306.496
307.456
308.338
309.145
309.882
310.549
311.152
311.694
312.176
312.602
312.975
313.298
313.573
313.804
313.992
314.14
314.251
314.327
314.37
314.382
314.366
314.322
314.255
314.164
314.052
313.921
313.771
313.606
313.425
313.232
313.026
312.809
312.582
312.347
312.104
311.855
311.6
311.341
311.077
310.811
310.542
310.271
309.999
309.727
309.455
309.183
308.913
308.643
308.376
308.11
307.847
307.587
307.33
307.076
306.825
306.578
306.334
306.094
305.858
305.626
305.398
305.173
304.953
304.737
304.525
304.317
304.112
303.912
303.715
303.522
303.332
303.146
302.964
302.784
302.608
302.434
302.264
302.096
301.93
301.767
301.606
301.447
301.29
301.134
300.98
300.827
300.675
300.524
300.374
300.224
300.075
293.581
295.456
297.219
298.872
300.421
301.867
303.216
304.469
305.632
306.707
307.699
308.61
309.443
310.204
310.893
311.516
312.075
312.572
313.013
313.398
313.731
314.016
314.254
314.448
314.601
314.716
314.794
314.838
314.851
314.834
314.789
314.719
314.625
314.51
314.374
314.22
314.049
313.863
313.663
313.45
313.226
312.992
312.749
312.499
312.241
311.978
311.71
311.438
311.163
310.885
310.606
310.325
310.044
309.763
309.483
309.203
308.925
308.649
308.375
308.103
307.834
307.569
307.306
307.047
306.792
306.54
306.293
306.049
305.809
305.573
305.342
305.115
304.891
304.672
304.457
304.246
304.039
303.836
303.637
303.441
303.249
303.06
302.875
302.693
302.514
302.337
302.164
301.993
301.825
301.658
301.494
301.332
301.171
301.012
300.854
300.697
300.541
300.386
300.232
300.077
293.38
295.314
297.131
298.837
300.434
301.926
303.316
304.609
305.809
306.917
307.94
308.879
309.739
310.523
311.234
311.876
312.453
312.966
313.42
313.817
314.161
314.455
314.7
314.9
315.058
315.176
315.257
315.303
315.316
315.298
315.252
315.18
315.083
314.964
314.824
314.665
314.489
314.297
314.091
313.871
313.64
313.399
313.149
312.89
312.625
312.353
312.077
311.796
311.513
311.226
310.938
310.649
310.359
310.069
309.78
309.491
309.205
308.92
308.637
308.357
308.08
307.806
307.535
307.268
307.005
306.745
306.49
306.238
305.991
305.748
305.509
305.275
305.044
304.819
304.597
304.379
304.166
303.956
303.75
303.549
303.35
303.156
302.965
302.777
302.592
302.411
302.232
302.055
301.882
301.71
301.541
301.373
301.208
301.044
300.881
300.719
300.558
300.398
300.239
300.08
293.18
295.172
297.045
298.802
300.447
301.984
303.416
304.748
305.983
307.126
308.179
309.147
310.032
310.84
311.573
312.234
312.828
313.357
313.824
314.234
314.588
314.89
315.143
315.349
315.512
315.633
315.717
315.764
315.777
315.759
315.712
315.637
315.538
315.415
315.271
315.107
314.925
314.728
314.515
314.289
314.051
313.802
313.544
313.278
313.005
312.725
312.441
312.152
311.859
311.564
311.267
310.969
310.671
310.372
310.074
309.777
309.482
309.188
308.897
308.609
308.323
308.041
307.762
307.487
307.215
306.948
306.685
306.426
306.171
305.921
305.675
305.434
305.196
304.964
304.735
304.511
304.291
304.075
303.863
303.655
303.451
303.251
303.054
302.861
302.67
302.483
302.299
302.117
301.938
301.762
301.587
301.415
301.244
301.075
300.907
300.741
300.575
300.41
300.246
300.082
292.982
295.032
296.959
298.767
300.46
302.041
303.515
304.886
306.157
307.332
308.416
309.412
310.323
311.154
311.908
312.589
313.199
313.744
314.225
314.646
315.011
315.321
315.582
315.794
315.961
316.087
316.172
316.22
316.234
316.216
316.167
316.09
315.988
315.862
315.713
315.545
315.358
315.154
314.936
314.703
314.458
314.203
313.937
313.663
313.382
313.094
312.801
312.504
312.203
311.899
311.594
311.287
310.98
310.673
310.366
310.061
309.757
309.455
309.155
308.858
308.564
308.274
307.987
307.704
307.425
307.15
306.879
306.612
306.35
306.093
305.84
305.591
305.347
305.107
304.872
304.642
304.415
304.193
303.975
303.761
303.551
303.345
303.143
302.944
302.748
302.555
302.366
302.179
301.995
301.813
301.633
301.456
301.28
301.106
300.934
300.762
300.592
300.422
300.253
300.084
292.787
294.894
296.874
298.733
300.473
302.098
303.613
305.022
306.329
307.537
308.651
309.675
310.611
311.466
312.241
312.94
313.568
314.128
314.622
315.055
315.43
315.749
316.017
316.235
316.407
316.536
316.624
316.673
316.688
316.668
316.618
316.54
316.434
316.305
316.152
315.979
315.787
315.578
315.353
315.114
314.862
314.599
314.326
314.045
313.755
313.46
313.159
312.853
312.544
312.232
311.918
311.602
311.287
310.971
310.656
310.341
310.029
309.719
309.411
309.106
308.803
308.505
308.21
307.919
307.632
307.349
307.071
306.797
306.528
306.263
306.003
305.747
305.496
305.25
305.008
304.771
304.539
304.31
304.086
303.866
303.651
303.439
303.23
303.026
302.824
302.627
302.432
302.24
302.05
301.863
301.679
301.497
301.316
301.137
300.96
300.784
300.608
300.434
300.26
300.087
292.592
294.756
296.79
298.699
300.485
302.155
303.711
305.157
306.499
307.74
308.884
309.935
310.897
311.774
312.57
313.289
313.933
314.508
315.016
315.46
315.845
316.173
316.448
316.672
316.849
316.981
317.071
317.122
317.137
317.117
317.066
316.985
316.877
316.743
316.587
316.409
316.212
315.997
315.766
315.521
315.262
314.992
314.712
314.423
314.126
313.822
313.513
313.199
312.881
312.561
312.238
311.915
311.59
311.266
310.942
310.62
310.299
309.98
309.664
309.351
309.04
308.734
308.431
308.132
307.837
307.547
307.261
306.98
306.703
306.431
306.164
305.902
305.644
305.391
305.143
304.9
304.661
304.426
304.196
303.971
303.749
303.531
303.317
303.107
302.901
302.697
302.497
302.3
302.105
301.914
301.724
301.537
301.351
301.168
300.986
300.805
300.625
300.446
300.267
300.089
292.4
294.62
296.707
298.665
300.498
302.211
303.807
305.291
306.668
307.941
309.115
310.193
311.18
312.08
312.897
313.634
314.295
314.885
315.406
315.862
316.257
316.593
316.875
317.105
317.286
317.422
317.514
317.567
317.582
317.562
317.509
317.426
317.315
317.178
317.018
316.835
316.633
316.412
316.175
315.924
315.658
315.381
315.094
314.797
314.493
314.181
313.864
313.542
313.216
312.887
312.556
312.224
311.891
311.559
311.226
310.896
310.566
310.239
309.915
309.593
309.275
308.961
308.65
308.343
308.041
307.743
307.45
307.161
306.877
306.598
306.324
306.055
305.791
305.531
305.277
305.027
304.782
304.541
304.305
304.074
303.846
303.623
303.403
303.188
302.976
302.767
302.562
302.36
302.16
301.963
301.769
301.577
301.386
301.198
301.011
300.825
300.641
300.457
300.274
300.091
292.21
294.485
296.624
298.631
300.51
302.266
303.902
305.424
306.835
308.14
309.343
310.448
311.46
312.383
313.22
313.975
314.653
315.258
315.792
316.259
316.664
317.009
317.298
317.534
317.72
317.858
317.953
318.007
318.022
318.002
317.948
317.863
317.749
317.609
317.444
317.257
317.05
316.824
316.581
316.323
316.051
315.767
315.472
315.168
314.856
314.536
314.211
313.881
313.547
313.21
312.871
312.53
312.189
311.848
311.508
311.169
310.831
310.496
310.163
309.834
309.508
309.185
308.867
308.552
308.242
307.937
307.636
307.341
307.05
306.764
306.483
306.207
305.936
305.67
305.409
305.153
304.902
304.655
304.413
304.176
303.943
303.714
303.489
303.268
303.05
302.837
302.626
302.419