/*--------------------------------*- C++ -*----------------------------------*\
| =========                 |                                                 |
| \\      /  F ield         | OpenFOAM: The Open Source CFD Toolbox           |
|  \\    /   O peration     | Version:  2406                                  |
|   \\  /    A nd           | Website:  www.openfoam.com                      |
|    \\/     M anipulation  |                                                 |
\*---------------------------------------------------------------------------*/
FoamFile
{
    version     2.0;
    format      ascii;
    arch        "LSB;label=32;scalar=64";
    class       volScalarField;
    location    "50";
    object      gradTy;
}
// * * * * * * * * * * * * * * * * * * * * * * * * * * * * * * * * * * * * * //

dimensions      [0 -1 0 1 0 0 0];

internalField   nonuniform List<scalar> 
20000
(
328.766
313.589
298.935
284.799
271.173
258.05
245.42
233.274
221.604
210.398
199.645
189.336
179.459
170.003
160.956
152.306
144.041
136.15
128.622
121.443
114.603
108.09
101.892
95.9974
90.3952
85.0743
80.0238
75.233
70.6913
66.3885
62.3146
58.4597
54.8143
51.3691
48.1151
45.0435
42.1459
39.4141
36.84
34.416
32.1348
29.9891
27.9722
26.0773
24.2982
22.6287
21.063
19.5954
18.2207
16.9337
15.7295
14.6033
13.5508
12.5677
11.6498
10.7934
9.99485
9.25055
8.55723
7.91176
7.31117
6.75262
6.23346
5.75117
5.30335
4.88776
4.50226
4.14487
3.81367
3.50691
3.22289
2.96004
2.71689
2.49203
2.28416
2.09204
1.91452
1.75052
1.59902
1.45906
1.32976
1.21025
1.09977
0.997566
0.90294
0.81524
0.733847
0.65818
0.587691
0.52186
0.460194
0.402225
0.347508
0.295615
0.246135
0.198674
0.152848
0.108283
0.0646129
0.0214783
328.685
313.512
298.861
284.729
271.106
257.986
245.359
233.217
221.549
210.345
199.596
189.289
179.415
169.961
160.916
152.268
144.006
136.117
128.59
121.413
114.575
108.063
101.867
95.9737
90.3729
85.0533
80.0041
75.2144
70.6739
66.3721
62.2992
58.4452
54.8007
51.3564
48.1032
45.0324
42.1355
39.4043
36.8309
34.4075
32.1269
29.9817
27.9653
26.0709
24.2922
22.6231
21.0578
19.5906
18.2162
16.9295
15.7256
14.5997
13.5475
12.5646
11.647
10.7908
9.99238
9.24826
8.55512
7.90981
7.30936
6.75096
6.23193
5.74975
5.30204
4.88655
4.50115
4.14384
3.81273
3.50604
3.22209
2.95931
2.71622
2.49142
2.28359
2.09152
1.91405
1.75009
1.59863
1.4587
1.32943
1.20996
1.0995
0.99732
0.902718
0.815038
0.733666
0.658018
0.587546
0.521731
0.46008
0.402126
0.347423
0.295542
0.246075
0.198625
0.15281
0.108256
0.064597
0.021473
328.522
313.357
298.714
284.588
270.972
257.858
245.238
233.102
221.439
210.241
199.497
189.196
179.327
169.877
160.836
152.193
143.934
136.05
128.527
121.354
114.519
108.01
101.817
95.9263
90.3283
85.0114
79.9646
75.1773
70.639
66.3394
62.2684
58.4164
54.7737
51.331
48.0795
45.0102
42.1147
39.3849
36.8127
34.3906
32.111
29.9669
27.9515
26.058
24.2802
22.6119
21.0474
19.5809
18.2073
16.9212
15.7178
14.5925
13.5408
12.5584
11.6412
10.7855
9.98745
9.2437
8.5509
7.90591
7.30575
6.74763
6.22885
5.74691
5.29942
4.88414
4.49893
4.1418
3.81085
3.50431
3.2205
2.95785
2.71488
2.49019
2.28247
2.09049
1.91311
1.74923
1.59784
1.45798
1.32877
1.20936
1.09896
0.996828
0.902272
0.814636
0.733304
0.657693
0.587256
0.521474
0.459853
0.401928
0.347251
0.295396
0.245954
0.198527
0.152735
0.108203
0.0645652
0.0214624
328.279
313.124
298.493
284.377
270.772
257.668
245.056
232.929
221.275
210.086
199.35
189.056
179.194
169.751
160.717
152.08
143.828
135.949
128.432
121.264
114.434
107.93
101.741
95.8553
90.2614
84.9484
79.9054
75.1216
70.5867
66.2902
62.2223
58.3731
54.7331
51.293
48.0439
44.9769
42.0835
39.3557
36.7855
34.3651
32.0872
29.9447
27.9308
26.0387
24.2622
22.5952
21.0318
19.5664
18.1938
16.9087
15.7062
14.5817
13.5308
12.5491
11.6326
10.7775
9.98005
9.23685
8.54456
7.90005
7.30035
6.74263
6.22424
5.74266
5.2955
4.88052
4.4956
4.13873
3.80803
3.50172
3.21812
2.95566
2.71287
2.48834
2.28078
2.08894
1.91169
1.74793
1.59665
1.4569
1.32779
1.20846
1.09814
0.99609
0.901605
0.814033
0.732761
0.657206
0.586821
0.521088
0.459513
0.401631
0.346994
0.295178
0.245772
0.198381
0.152622
0.108123
0.0645174
0.0214466
327.956
312.815
298.198
284.097
270.504
257.413
244.814
232.699
221.057
209.878
199.153
188.869
179.017
169.584
160.559
151.93
143.686
135.815
128.305
121.144
114.321
107.824
101.641
95.7606
90.1722
84.8645
79.8264
75.0474
70.5169
66.2248
62.1609
58.3155
54.679
51.2424
47.9964
44.9324
42.042
39.3168
36.7491
34.3312
32.0555
29.9152
27.9032
26.013
24.2382
22.5729
21.011
19.5471
18.1758
16.892
15.6907
14.5673
13.5174
12.5367
11.6211
10.7668
9.9702
9.22773
8.53612
7.89225
7.29313
6.73597
6.21809
5.73698
5.29027
4.8757
4.49116
4.13464
3.80427
3.49826
3.21494
2.95274
2.71019
2.48588
2.27852
2.08688
1.9098
1.74621
1.59508
1.45547
1.32648
1.20727
1.09706
0.995107
0.900714
0.81323
0.732037
0.656557
0.586242
0.520573
0.45906
0.401234
0.346652
0.294886
0.245529
0.198185
0.152471
0.108016
0.0644538
0.0214254
327.551
312.429
297.829
283.746
270.17
257.095
244.512
232.411
220.784
209.619
198.907
188.636
178.795
169.374
160.36
151.742
143.508
135.647
128.146
120.994
114.18
107.69
101.515
95.6423
90.0608
84.7596
79.7278
74.9547
70.4298
66.1429
62.0841
58.2434
54.6115
51.1791
47.9371
44.8769
41.99
39.2683
36.7037
34.2887
32.0159
29.8782
27.8687
25.9808
24.2083
22.545
20.9851
19.523
18.1533
16.8711
15.6713
14.5493
13.5007
12.5212
11.6067
10.7535
9.95788
9.21633
8.52558
7.8825
7.28412
6.72765
6.21041
5.7299
5.28374
4.86968
4.48561
4.12954
3.79957
3.49394
3.21097
2.9491
2.70684
2.48281
2.27571
2.0843
1.90744
1.74405
1.59311
1.45367
1.32484
1.20578
1.09571
0.993878
0.899602
0.812225
0.731133
0.655747
0.585518
0.51993
0.458493
0.400739
0.346224
0.294522
0.245226
0.19794
0.152283
0.107883
0.0643742
0.0213989
327.064
311.965
297.388
283.325
269.769
256.713
244.149
232.066
220.456
209.308
198.612
188.356
178.53
169.123
160.122
151.517
143.295
135.446
127.956
120.815
114.01
107.531
101.364
95.5003
89.9272
84.6338
79.6095
74.8435
70.3253
66.0448
61.9919
58.157
54.5305
51.1031
47.866
44.8103
41.9277
39.21
36.6493
34.2379
31.9684
29.8339
27.8274
25.9423
24.1724
22.5115
20.9539
19.494
18.1264
16.8461
15.648
14.5277
13.4807
12.5026
11.5895
10.7376
9.9431
9.20266
8.51293
7.8708
7.27332
6.71767
6.2012
5.7214
5.2759
4.86245
4.47896
4.12341
3.79393
3.48875
3.20621
2.94472
2.70283
2.47913
2.27233
2.08121
1.90461
1.74146
1.59074
1.45151
1.32287
1.20399
1.09408
0.992404
0.898268
0.811021
0.730049
0.654774
0.58465
0.519159
0.457813
0.400144
0.34571
0.294086
0.244862
0.197647
0.152057
0.107723
0.0642787
0.0213672
326.497
311.425
296.872
282.834
269.302
256.269
243.726
231.664
220.074
208.945
198.267
188.03
178.221
168.83
159.845
151.254
143.047
135.211
127.734
120.605
113.813
107.344
101.189
95.3349
89.7713
84.4872
79.4715
74.7138
70.2034
65.9303
61.8845
58.0562
54.436
51.0146
47.783
44.7327
41.8551
39.1421
36.5858
34.1785
31.913
29.7822
27.7791
25.8973
24.1305
22.4725
20.9176
19.4602
18.095
16.8169
15.6209
14.5026
13.4573
12.4809
11.5694
10.719
9.92588
9.18671
8.49818
7.85717
7.26072
6.70603
6.19045
5.71148
5.26676
4.85403
4.4712
4.11627
3.78736
3.48271
3.20065
2.93962
2.69814
2.47484
2.2684
2.07761
1.90131
1.73844
1.58799
1.449
1.32058
1.20191
1.09219
0.990685
0.896712
0.809616
0.728785
0.65364
0.583637
0.51826
0.45702
0.399451
0.345112
0.293576
0.244438
0.197304
0.151794
0.107536
0.0641674
0.0213302
325.85
310.807
296.284
282.273
268.768
255.761
243.243
231.205
219.638
208.531
197.874
187.657
177.867
168.495
159.528
150.955
142.764
134.943
127.481
120.366
113.587
107.131
100.988
95.1459
89.5934
84.3197
79.314
74.5656
70.0643
65.7996
61.7618
57.9411
54.328
50.9134
47.6883
44.644
41.7721
39.0645
36.5132
34.1108
31.8498
29.7231
27.7241
25.846
24.0826
22.428
20.8761
19.4216
18.0591
16.7835
15.59
14.4738
13.4306
12.4562
11.5465
10.6977
9.9062
9.1685
8.48133
7.84159
7.24632
6.69273
6.17818
5.70016
5.25632
4.84441
4.46233
4.10811
3.77985
3.47581
3.19431
2.93379
2.6928
2.46993
2.2639
2.07349
1.89754
1.735
1.58484
1.44613
1.31796
1.19952
1.09002
0.988721
0.894935
0.808011
0.72734
0.652345
0.582481
0.517233
0.456114
0.39866
0.344428
0.292995
0.243954
0.196913
0.151493
0.107323
0.0640403
0.021288
325.122
310.113
295.622
281.643
268.168
255.19
242.7
230.689
219.147
208.065
197.432
187.238
177.47
168.119
159.172
150.618
142.445
134.642
127.197
120.098
113.333
106.892
100.763
94.9334
89.3933
84.1314
79.1369
74.3991
69.9078
65.6527
61.6239
57.8117
54.2067
50.7997
47.5818
44.5443
41.6788
38.9772
36.4317
34.0346
31.7786
29.6568
27.6622
25.7883
24.0289
22.3779
20.8295
19.3783
18.0188
16.746
15.5552
14.4415
13.4006
12.4284
11.5207
10.6738
9.88408
9.14803
8.4624
7.82408
7.23014
6.67779
6.16438
5.68743
5.24458
4.83359
4.45237
4.09893
3.77141
3.46804
3.18718
2.92724
2.68678
2.46442
2.25885
2.06886
1.89331
1.73113
1.5813
1.4429
1.31502
1.19685
1.08759
0.986514
0.892937
0.806208
0.725717
0.650889
0.58118
0.516079
0.455096
0.39777
0.343659
0.292341
0.243409
0.196474
0.151155
0.107083
0.0638974
0.0212404
324.315
309.343
294.887
280.943
267.501
254.555
242.097
230.115
218.603
207.548
196.942
186.772
177.029
167.701
158.776
150.243
142.091
134.307
126.88
119.799
113.052
106.627
100.512
94.6975
89.1711
83.9223
78.9402
74.2142
69.7341
65.4895
61.4708
57.6681
54.072
50.6735
47.4636
44.4336
41.5752
38.8804
36.3412
33.95
31.6997
29.5831
27.5934
25.7242
23.9692
22.3223
20.7778
19.3301
17.974
16.7044
15.5165
14.4056
13.3673
12.3975
11.4921
10.6473
9.85952
9.1253
8.44137
7.80464
7.21218
6.6612
6.14907
5.6733
5.23155
4.82158
4.44131
4.08875
3.76204
3.45943
3.17926
2.91997
2.68011
2.45829
2.25323
2.06372
1.8886
1.72682
1.57737
1.43931
1.31176
1.19387
1.08489
0.984063
0.890719
0.804205
0.723914
0.649272
0.579737
0.514797
0.453966
0.396782
0.342805
0.291614
0.242805
0.195986
0.15078
0.106817
0.0637386
0.0211877
323.427
308.496
294.08
280.174
266.769
253.858
241.434
229.485
218.004
206.98
196.403
186.261
176.545
167.242
158.341
149.832
141.702
133.939
126.533
119.471
112.742
106.335
100.237
94.4382
88.927
83.6925
78.7241
74.0111
69.5431
65.3102
61.3025
57.5102
53.924
50.5348
47.3336
44.312
41.4614
38.7739
36.2417
33.8571
31.6129
29.5021
27.5179
25.6538
23.9035
22.2612
20.7209
19.2772
17.9248
16.6587
15.474
14.3662
13.3307
12.3636
11.4606
10.6182
9.83253
9.10031
8.41826
7.78327
7.19243
6.64296
6.13223
5.65777
5.21723
4.80838
4.42915
4.07756
3.75174
3.44996
3.17055
2.91198
2.67277
2.45156
2.24707
2.05807
1.88343
1.7221
1.57306
1.43537
1.30816
1.1906
1.08192
0.98137
0.888281
0.802004
0.721933
0.647495
0.57815
0.513388
0.452723
0.395696
0.341867
0.290816
0.24214
0.195449
0.150367
0.106525
0.0635642
0.0211297
322.459
307.573
293.2
279.335
265.971
253.099
240.711
228.799
217.352
206.361
195.815
185.704
176.016
166.741
157.868
149.384
141.278
133.539
126.154
119.114
112.405
106.016
99.9371
94.1556
88.6609
83.4421
78.4885
73.7896
69.3351
65.1148
61.119
57.3381
53.7626
50.3836
47.192
44.1794
41.3374
38.6579
36.1332
33.7558
31.5183
29.4138
27.4355
25.577
23.832
22.1946
20.6589
19.2195
17.8712
16.6089
15.4277
14.3232
13.2909
12.3266
11.4263
10.5864
9.80311
9.07309
8.39307
7.75999
7.17091
6.62309
6.11389
5.64084
5.20162
4.794
4.4159
4.06536
3.74052
3.43964
3.16107
2.90327
2.66478
2.44423
2.24034
2.05191
1.8778
1.71695
1.56835
1.43108
1.30425
1.18704
1.07868
0.978434
0.885624
0.799605
0.719773
0.645558
0.576421
0.511852
0.451369
0.394512
0.340845
0.289946
0.241416
0.194865
0.149917
0.106206
0.0633741
0.0210665
321.412
306.574
292.248
278.428
265.107
252.277
239.93
228.056
216.646
205.691
195.179
185.101
175.445
166.2
157.355
148.899
140.819
133.105
125.745
118.727
112.04
105.672
99.6125
93.8498
88.373
83.1711
78.2336
73.55
69.1099
64.9033
60.9205
57.1519
53.588
50.2199
47.0387
44.0359
41.2031
38.5324
36.0159
33.6461
31.4159
29.3183
27.3464
25.494
23.7546
22.1225
20.5918
19.1571
17.8131
16.5549
15.3776
14.2767
13.2477
12.2865
11.3892
10.552
9.77127
9.04362
8.36581
7.73479
7.14763
6.60158
6.09403
5.62253
5.18472
4.77843
4.40156
4.05216
3.72837
3.42847
3.1508
2.89384
2.65612
2.43629
2.23307
2.04525
1.8717
1.71137
1.56326
1.42643
1.30002
1.18319
1.07518
0.975257
0.882748
0.797009
0.717436
0.643462
0.574549
0.51019
0.449904
0.393232
0.339738
0.289005
0.240632
0.194232
0.14943
0.105862
0.0631683
0.0209981
320.285
305.499
291.224
277.452
264.178
251.393
239.089
227.256
215.887
204.97
194.495
184.452
174.83
165.617
156.804
148.377
140.325
132.638
125.304
118.311
111.647
105.302
99.2634
93.5209
88.0632
82.8796
77.9594
73.2921
68.8676
64.6759
60.707
56.9515
53.4002
50.0439
46.8738
43.8815
41.0587
38.3973
35.8896
33.5282
31.3058
29.2155
27.2506
25.4046
23.6714
22.0449
20.5196
19.09
17.7507
16.4969
15.3237
14.2266
13.2013
12.2435
11.3493
10.515
9.73702
9.01192
8.33649
7.70768
7.12257
6.57844
6.07267
5.60282
5.16655
4.76168
4.38613
4.03795
3.7153
3.41645
3.13976
2.8837
2.64681
2.42775
2.22524
2.03808
1.86514
1.70537
1.55778
1.42143
1.29546
1.17904
1.07141
0.97184
0.879655
0.794216
0.714922
0.641207
0.572536
0.508402
0.448327
0.391854
0.338547
0.287992
0.239789
0.193552
0.148907
0.105491
0.062947
0.0209245
319.08
304.349
290.127
276.408
263.183
250.446
238.189
226.401
215.074
204.198
193.763
183.758
174.172
164.994
156.213
147.818
139.797
132.139
124.832
117.865
111.227
104.905
98.8897
93.1688
87.7317
82.5676
77.6659
73.0163
68.6084
64.4324
60.4785
56.7372
53.1992
49.8555
46.6974
43.7163
40.9041
38.2528
35.7545
33.402
31.188
29.1055
27.148
25.309
23.5823
21.9619
20.4424
19.0181
17.6839
16.4348
15.266
14.1731
13.1516
12.1974
11.3066
10.4754
9.70037
8.978
8.30511
7.67866
7.09576
6.55368
6.04982
5.58173
5.14711
4.74376
4.36962
4.02276
3.70132
3.40359
3.12794
2.87284
2.63685
2.41862
2.21687
2.03041
1.85812
1.69895
1.55192
1.41608
1.29059
1.1746
1.06738
0.968182
0.876344
0.791227
0.712232
0.638794
0.570381
0.506489
0.44664
0.390379
0.337274
0.286909
0.238887
0.192823
0.148347
0.105094
0.0627102
0.0208458
317.795
303.124
288.96
275.295
262.124
249.438
237.23
225.49
214.208
203.376
192.983
183.018
173.471
164.33
155.585
147.223
139.235
131.607
124.33
117.391
110.779
104.483
98.4917
92.7938
87.3786
82.2353
77.3533
72.7223
68.3322
64.173
60.235
56.5088
52.985
49.6548
46.5094
43.5404
40.7395
38.0988
35.6106
33.2676
31.0624
28.9884
27.0387
25.2071
23.4873
21.8735
20.3601
18.9415
17.6127
16.3686
15.2046
14.116
13.0986
12.1483
11.2611
10.4333
9.66133
8.94186
8.27169
7.64776
7.0672
6.5273
6.02547
5.55926
5.12639
4.72466
4.35204
4.00656
3.68642
3.38989
3.11535
2.86128
2.62624
2.40888
2.20795
2.02224
1.85065
1.69212
1.54567
1.41038
1.28539
1.16988
1.06308
0.964286
0.872817
0.788043
0.709365
0.636223
0.568086
0.504451
0.444843
0.388808
0.335916
0.285754
0.237925
0.192047
0.14775
0.104671
0.0624578
0.0207619
316.432
301.824
287.72
274.115
261
248.369
236.213
224.523
213.29
202.504
192.155
182.233
172.727
163.625
154.917
146.592
138.637
131.043
123.797
116.888
110.304
104.035
98.0693
92.3959
87.0039
81.8826
77.0216
72.4105
68.0392
63.8979
59.9767
56.2665
52.7578
49.4419
46.31
43.3537
40.5648
37.9354
35.4579
33.1249
30.9292
28.8641
26.9228
25.099
23.3866
21.7798
20.2728
18.8603
17.5372
16.2985
15.1394
14.0555
13.0425
12.0962
11.2128
10.3885
9.6199
8.90352
8.23622
7.61496
7.0369
6.49931
5.99963
5.53543
5.10441
4.70441
4.33337
3.98938
3.67062
3.37536
3.102
2.84901
2.61498
2.39855
2.19848
2.01357
1.84271
1.68486
1.53904
1.40434
1.27988
1.16486
1.05852
0.960152
0.869075
0.784664
0.706324
0.633496
0.56565
0.502288
0.442936
0.387141
0.334476
0.284529
0.236905
0.191224
0.147116
0.104222
0.0621901
0.0206729
314.992
300.45
286.41
272.867
259.812
247.238
235.137
223.5
212.319
201.582
191.281
181.404
171.94
162.88
154.212
145.924
138.006
130.446
123.233
116.355
109.802
103.561
97.6228
91.9752
86.6077
81.5098
76.6709
72.0808
67.7294
63.6069
59.7037
56.0103
52.5176
49.2168
46.0991
43.1563
40.3801
37.7627
35.2965
32.9741
30.7884
28.7326
26.8002
24.9847
23.2801
21.6806
20.1805
18.7744
17.4573
16.2242
15.0705
13.9915
12.9831
12.0411
11.1617
10.3412
9.5761
8.86298
8.19872
7.58029
7.00486
6.46972
5.97231
5.51022
5.08117
4.68299
4.31364
3.97122
3.6539
3.35999
3.08787
2.83604
2.60307
2.38763
2.18847
2.0044
1.83432
1.67719
1.53204
1.39794
1.27405
1.15956
1.0537
0.95578
0.865119
0.781092
0.703109
0.630612
0.563075
0.500002
0.440919
0.385379
0.332954
0.283234
0.235827
0.190354
0.146446
0.103748
0.0619069
0.0205788
313.473
299.002
285.03
271.551
258.559
246.046
234.004
222.423
211.295
200.61
190.358
180.529
171.111
162.095
153.469
145.221
137.341
129.817
122.639
115.794
109.272
103.062
97.1521
91.5318
86.1902
81.1168
76.3013
71.7333
67.4029
63.3003
59.4158
55.7402
52.2644
48.9795
45.8769
42.9482
40.1854
37.5806
35.1263
32.8151
30.64
28.5941
26.671
24.8643
23.1679
21.5761
20.0832
18.6839
17.3732
16.146
14.9978
13.924
12.9205
11.9831
11.1079
10.2914
9.52994
8.82026
8.15919
7.54375
6.97109
6.43853
5.94352
5.48366
5.05667
4.66041
4.29285
3.95208
3.63629
3.34379
3.07299
2.82237
2.59052
2.37612
2.17792
1.99474
1.82548
1.66911
1.52465
1.39121
1.26791
1.15397
1.04863
0.951173
0.860949
0.777327
0.699719
0.627572
0.560361
0.497592
0.438794
0.383521
0.331349
0.281869
0.23469
0.189436
0.145741
0.103248
0.0616086
0.0204796
311.877
297.48
283.579
270.169
257.243
244.793
232.812
221.291
210.22
199.589
189.389
179.61
170.24
161.27
152.687
144.482
136.642
129.156
122.015
115.205
108.716
102.537
96.6575
91.0658
85.7514
80.7039
75.9128
71.3681
67.0597
62.978
59.1133
55.4565
51.9983
48.7301
45.6433
42.7296
39.9808
37.3893
34.9475
32.648
30.484
28.4486
26.5352
24.7377
23.0499
21.4662
19.9809
18.5888
17.2847
16.0638
14.9215
13.8532
12.8547
11.9221
11.0514
10.239
9.48142
8.77535
8.11765
7.50535
6.9356
6.40575
5.91326
5.45574
5.03093
4.63669
4.271
3.93196
3.61778
3.32677
3.05734
2.808
2.57734
2.36403
2.16683
1.98458
1.81619
1.66061
1.51689
1.38412
1.26146
1.14809
1.04329
0.946331
0.856566
0.77337
0.696158
0.624378
0.557509
0.495059
0.43656
0.381569
0.329662
0.280434
0.233496
0.188472
0.144999
0.102722
0.061295
0.0203754
310.205
295.884
282.058
268.72
255.863
243.48
231.564
220.104
209.092
198.519
188.373
178.647
169.327
160.405
151.868
143.707
135.909
128.464
121.36
114.587
108.133
101.987
96.1391
90.5773
85.2914
80.271
75.5056
70.9853
66.7
62.6402
58.7963
55.159
51.7194
48.4688
45.3985
42.5004
39.7664
37.1888
34.76
32.4729
30.3205
28.296
26.3929
24.605
22.9263
21.3511
19.8738
18.4891
17.192
15.9777
14.8414
13.7789
12.7858
11.8581
10.9921
10.1841
9.43057
8.72829
8.07412
7.46509
6.8984
6.3714
5.88155
5.42648
5.00395
4.61182
4.24809
3.91087
3.59838
3.30893
3.04095
2.79294
2.56351
2.35135
2.15521
1.97394
1.80645
1.6517
1.50876
1.3767
1.25469
1.14194
1.03769
0.941256
0.851972
0.769222
0.692424
0.621029
0.554519
0.492404
0.434219
0.379523
0.327894
0.27893
0.232243
0.187461
0.144221
0.102171
0.0609663
0.0202661
308.455
294.215
280.467
267.204
254.42
242.107
230.258
218.863
207.913
197.399
187.311
177.639
168.372
159.5
151.012
142.896
135.142
127.739
120.676
113.941
107.523
101.412
95.5969
90.0665
84.8104
79.8183
75.0798
70.585
66.3239
62.2869
58.4647
54.8479
51.4278
48.1954
45.1425
42.2607
39.5421
36.979
34.564
32.2898
30.1495
28.1364
26.244
24.4662
22.797
21.2307
19.7617
18.3848
17.0951
15.8876
14.7577
13.7012
12.7137
11.7913
10.9301
10.1266
9.37738
8.67907
8.02858
7.42299
6.8595
6.33547
5.84838
5.39588
4.97573
4.58581
4.22413
3.88882
3.57808
3.29027
3.0238
2.77719
2.54906
2.33809
2.14306
1.96281
1.79626
1.64239
1.50025
1.36894
1.24762
1.1355
1.03184
0.935949
0.847168
0.764885
0.68852
0.617527
0.551392
0.489627
0.431771
0.377383
0.326045
0.277357
0.230934
0.186404
0.143408
0.101595
0.0606225
0.0201518
306.63
292.474
278.807
265.623
252.914
240.674
228.895
217.567
206.682
196.231
186.203
176.588
167.376
158.556
150.118
142.051
134.343
126.983
119.962
113.266
106.887
100.812
95.0312
89.5335
84.3085
79.3459
74.6355
70.1672
65.9314
61.9183
58.1187
54.5233
51.1234
47.9102
44.8753
42.0106
39.3081
36.7602
34.3594
32.0987
29.9711
27.9699
26.0887
24.3214
22.6621
21.105
19.6447
18.276
16.9939
15.7935
14.6704
13.6201
12.6384
11.7215
10.8654
10.0667
9.32189
8.6277
7.98107
7.37906
6.81891
6.29797
5.81377
5.36395
4.94628
4.55867
4.19914
3.8658
3.55691
3.2708
3.0059
2.76076
2.53397
2.32425
2.13038
1.95119
1.78563
1.63267
1.49137
1.36084
1.24023
1.12878
1.02574
0.930411
0.842156
0.760359
0.684446
0.613873
0.54813
0.48673
0.429216
0.37515
0.324116
0.275716
0.229568
0.185301
0.142559
0.100994
0.0602638
0.0200326
304.729
290.661
277.079
263.976
251.346
239.182
227.476
216.218
205.401
195.014
185.048
175.493
166.338
157.573
149.187
141.17
133.51
126.196
119.218
112.564
106.224
100.187
94.442
88.9784
83.7858
78.854
74.1727
69.7322
65.5226
61.5344
57.7583
54.1853
50.8064
47.6132
44.5971
41.7501
39.0644
36.5323
34.1464
31.8997
29.7852
27.7965
25.927
24.1707
22.5216
20.9742
19.523
18.1627
16.8885
15.6956
14.5794
13.5356
12.5601
11.6488
10.7981
10.0043
9.26409
8.57421
7.93159
7.33332
6.77663
6.25893
5.77773
5.3307
4.91562
4.53041
4.1731
3.84184
3.53486
3.25052
2.98727
2.74364
2.51826
2.30985
2.11717
1.9391
1.77456
1.62255
1.48213
1.3524
1.23255
1.12178
1.01938
0.924643
0.836935
0.755645
0.680203
0.610068
0.544732
0.483713
0.426555
0.372824
0.322107
0.274007
0.228144
0.184152
0.141676
0.100368
0.0598902
0.0199084
302.752
288.776
275.282
262.264
249.716
237.631
226.001
214.816
204.069
193.749
183.848
174.355
165.259
156.551
148.22
140.254
132.644
125.377
118.445
111.834
105.535
99.5373
93.8294
88.4013
83.2424
78.3425
73.6917
69.2799
65.0976
61.1353
57.3837
53.8339
50.4769
47.3044
44.3079
41.4794
38.811
36.2953
33.925
31.6928
29.5921
27.6162
25.7588
24.0139
22.3755
20.8382
19.3963
18.0449
16.779
15.5938
14.4849
13.4478
12.4786
11.5733
10.728
9.93942
9.20402
8.51861
7.88015
7.28576
6.73269
6.21834
5.74026
5.29613
4.88374
4.50103
4.14604
3.81692
3.51194
3.22944
2.9679
2.72585
2.50193
2.29487
2.10344
1.92652
1.76305
1.61203
1.47251
1.34363
1.22455
1.11451
1.01277
0.918647
0.831508
0.750746
0.675792
0.606112
0.5412
0.480576
0.423789
0.370407
0.320018
0.27223
0.226665
0.182958
0.140757
0.0997172
0.0595019
0.0197793
300.701
286.819
273.417
260.487
248.025
236.021
224.469
213.361
202.686
192.437
182.603
173.174
164.14
155.491
147.216
139.304
131.745
124.528
117.642
111.076
104.82
98.8629
93.1938
87.8024
82.6785
77.8118
73.1925
68.8106
64.6566
60.7212
56.995
53.4692
50.135
46.9839
44.0077
41.1984
38.5481
36.0495
33.6951
31.4781
29.3916
27.4291
25.5843
23.8512
22.224
20.697
19.2649
17.9227
16.6653
15.4882
14.3868
13.3567
12.3941
11.4949
10.6554
9.87209
9.14166
8.4609
7.82677
7.2364
6.68708
6.17621
5.70137
5.26025
4.85066
4.47054
4.11796
3.79107
3.48815
3.20757
2.94779
2.70739
2.48499
2.27932
2.08919
1.91347
1.75111
1.60111
1.46254
1.33453
1.21626
1.10696
1.00591
0.912425
0.825876
0.74566
0.671215
0.602007
0.537534
0.477321
0.420919
0.367898
0.317851
0.270386
0.22513
0.181719
0.139804
0.0990418
0.0590989
0.0196454
298.576
284.792
271.484
258.646
246.272
234.353
222.883
211.853
201.254
191.077
181.312
171.95
162.98
154.392
146.175
138.32
130.814
123.648
116.811
110.291
104.079
98.1642
92.5351
87.1819
82.0941
77.2619
72.6752
68.3243
64.1997
60.292
56.5922
53.0913
49.7806
46.6518
43.6967
40.9072
38.2757
35.7947
33.457
31.2556
29.1839
27.2353
25.4035
23.6827
22.0669
20.5507
19.1288
17.796
16.5476
15.3787
14.2851
13.2623
12.3065
11.4136
10.5801
9.80232
9.07706
8.40111
7.77146
7.18526
6.63982
6.13257
5.66108
5.22307
4.81638
4.43895
4.08885
3.76428
3.4635
3.1849
2.92696
2.68825
2.46743
2.26321
2.07443
1.89995
1.73874
1.58979
1.4522
1.3251
1.20766
1.09914
0.998798
0.905977
0.82004
0.740391
0.666472
0.597753
0.533735
0.473948
0.417944
0.365298
0.315605
0.268476
0.223539
0.180435
0.138816
0.098342
0.0586813
0.0195065
296.377
282.695
269.485
256.741
244.458
232.627
221.242
210.293
199.772
189.67
179.977
170.683
161.779
153.255
145.099
137.301
129.851
122.737
115.95
109.479
103.313
97.4413
91.8537
86.5398
81.4895
76.6929
72.1399
67.8211
63.7269
59.848
56.1754
52.7003
49.414
46.3083
43.3749
40.6059
37.9938
35.5311
33.2106
31.0255
28.969
27.0347
25.2164
23.5082
21.9044
20.3994
18.9879
17.665
16.4257
15.2655
14.1799
13.1647
12.2159
11.3296
10.5021
9.73014
9.01021
8.33924
7.71423
7.13235
6.59092
6.0874
5.61939
5.18461
4.78091
4.40626
4.05874
3.73656
3.43799
3.16144
2.90541
2.66846
2.44926
2.24655
2.05915
1.88596
1.72593
1.57809
1.44151
1.31534
1.19877
1.09104
0.991444
0.899306
0.814001
0.734939
0.661564
0.593351
0.529805
0.470459
0.414867
0.362609
0.313281
0.266499
0.221893
0.179107
0.137794
0.0976178
0.0582492
0.0193629
294.105
280.528
267.419
254.773
242.584
230.844
219.546
208.681
198.24
188.216
178.597
169.375
160.539
152.08
143.986
136.248
128.855
121.796
115.062
108.64
102.521
96.6943
91.1495
85.8764
80.8649
76.105
71.5869
67.3012
63.2384
59.3892
55.7448
52.2963
49.0352
45.9533
43.0424
40.2946
37.7025
35.2587
32.956
30.7876
28.7469
26.8274
25.0231
23.328
21.7365
20.243
18.8424
17.5296
16.2998
15.1485
14.0712
13.0638
12.1222
11.2427
10.4216
9.65555
8.94114
8.27531
7.65509
7.07768
6.5404
6.04074
5.57632
5.14487
4.74426
4.37248
4.02763
3.70791
3.41164
3.13721
2.88314
2.648
2.43048
2.22933
2.04337
1.87151
1.7127
1.56599
1.43046
1.30526
1.18958
1.08268
0.983844
0.892413
0.807762
0.729306
0.656493
0.588803
0.525745
0.466853
0.411687
0.359829
0.31088
0.264456
0.220192
0.177734
0.136738
0.0968696
0.0578027
0.0192145
291.761
278.291
265.287
252.742
240.65
229.004
217.795
207.017
196.66
186.715
177.173
168.025
159.259
150.868
142.839
135.162
127.828
120.826
114.144
107.774
101.704
95.9235
90.4229
85.1918
80.2202
75.4983
71.0163
66.7647
62.7342
58.9158
55.3004
51.8794
48.6443
45.587
42.6992
39.9734
37.402
34.9776
32.6933
30.5422
28.5177
26.6136
24.8237
23.1421
21.5632
20.0816
18.6922
17.3898
16.1699
15.0277
13.959
12.9596
12.0256
11.1531
10.3386
9.57858
8.86987
8.20935
7.59407
7.02126
6.48826
5.99259
5.53187
5.10386
4.70644
4.33763
3.99553
3.67836
3.38444
3.1122
2.86015
2.62689
2.41111
2.21156
2.02708
1.85659
1.69905
1.55351
1.41906
1.29486
1.1801
1.07405
0.976002
0.885299
0.801324
0.723493
0.651261
0.58411
0.521554
0.463132
0.408406
0.356961
0.308402
0.262348
0.218437
0.176317
0.135648
0.0960975
0.057342
0.0190613
289.344
275.986
263.09
250.649
238.657
227.107
215.991
205.302
195.031
185.169
175.706
166.633
157.94
149.618
141.655
134.043
126.769
119.825
113.199
106.881
100.861
95.129
89.6739
84.4862
79.5558
74.8729
70.4281
66.2117
62.2146
58.4278
54.8424
51.4497
48.2414
45.2094
42.3456
39.6423
37.0922
34.6879
32.4225
30.2892
28.2815
26.3932
24.618
22.9504
21.3846
19.9153
18.5373
17.2458
16.0359
14.9032
13.8434
12.8523
11.926
11.0607
10.2529
9.49925
8.79641
8.14135
7.53117
6.9631
6.43452
5.94296
5.48605
5.06159
4.66746
4.3017
3.96243
3.64789
3.35641
3.08643
2.83647
2.60514
2.39114
2.19324
2.01029
1.84121
1.68498
1.54064
1.40731
1.28413
1.17033
1.06515
0.967919
0.877968
0.794687
0.717501
0.645867
0.579273
0.517235
0.459296
0.405024
0.354005
0.305848
0.260176
0.216628
0.174857
0.134524
0.0953017
0.0568672
0.0189035
286.856
273.613
260.828
248.494
236.605
225.154
214.134
203.537
193.354
183.576
174.195
165.2
156.582
148.331
140.437
132.89
125.679
118.794
112.226
105.962
99.9941
94.311
88.9029
83.7597
78.8717
74.2291
69.8225
65.6424
61.6797
57.9254
54.3708
51.0073
47.8266
44.8206
41.9815
39.3015
36.7733
34.3897
32.1437
30.0288
28.0384
26.1662
24.4064
22.7531
21.2007
19.7441
18.3779
17.0975
15.898
14.7751
13.7244
12.7418
11.8234
10.9656
10.1648
9.41757
8.72077
8.07135
7.46642
6.90323
6.3792
5.89186
5.43888
5.01806
4.62733
4.26472
3.92837
3.61653
3.32755
3.05989
2.81208
2.58274
2.37058
2.17438
1.99301
1.82538
1.67049
1.5274
1.39521
1.27309
1.16027
1.056
0.959597
0.870419
0.787855
0.711333
0.640314
0.574292
0.512788
0.455347
0.401541
0.350962
0.303218
0.257939
0.214766
0.173354
0.133368
0.0944824
0.0563782
0.018741
284.297
271.173
258.501
246.277
234.494
223.146
212.224
201.721
191.629
181.939
172.641
163.727
155.186
147.008
139.185
131.705
124.558
117.735
111.225
105.017
99.1021
93.4698
88.1099
83.0126
78.1682
73.567
69.1997
65.0569
61.1295
57.4087
53.8858
50.5523
47.4
44.4208
41.607
38.9509
36.4453
34.0829
31.857
29.7609
27.7883
25.9328
24.1887
22.5501
21.0116
19.5679
18.214
16.945
15.7562
14.6433
13.6019
12.6281
11.718
10.8678
10.0741
9.33357
8.64299
7.99936
7.39982
6.84166
6.3223
5.8393
5.39037
4.97331
4.58606
4.22668
3.89333
3.58427
3.29787
3.0326
2.787
2.5597
2.34944
2.15499
1.97523
1.8091
1.65559
1.51377
1.38276
1.26174
1.14992
1.04658
0.951038
0.862656
0.780828
0.704988
0.634603
0.56917
0.508214
0.451286
0.39796
0.347831
0.300514
0.255638
0.21285
0.171808
0.132178
0.0936397
0.0558754
0.0185738
281.668
268.665
256.111
244
232.326
221.082
210.262
199.856
189.857
180.257
171.045
162.213
153.751
145.649
137.898
130.487
123.406
116.646
110.196
104.046
98.1858
92.6055
87.2951
82.245
77.4454
72.8868
68.5598
64.4553
60.5642
56.8779
53.3875
50.0849
46.9617
44.0101
41.2223
38.5907
36.1082
33.7677
31.5624
29.4857
27.5313
25.693
23.965
22.3416
20.8173
19.387
18.0456
16.7883
15.6105
14.5079
13.4762
12.5114
11.6096
10.7673
9.98096
9.24726
8.56307
7.92539
7.3314
6.7784
6.26384
5.78531
5.34053
4.92732
4.54365
4.1876
3.85733
3.55113
3.26738
3.00456
2.76123
2.53603
2.32771
2.13506
1.95697
1.79237
1.64028
1.49978
1.36998
1.25007
1.13928
1.0369
0.942245
0.85468
0.773608
0.69847
0.628736
0.563908
0.503515
0.447114
0.394281
0.344615
0.297735
0.253275
0.210882
0.170219
0.130956
0.0927739
0.0553588
0.0184021
278.97
266.091
253.657
241.662
230.1
218.964
208.247
197.942
188.039
178.53
169.406
160.659
152.278
144.254
136.577
129.237
122.224
115.529
109.14
103.049
97.2451
91.7183
86.4589
81.4571
76.7035
72.1885
67.903
63.8378
59.984
56.333
52.8761
49.6051
46.5118
43.5885
40.8274
38.221
35.7623
33.4443
31.2601
29.2033
27.2676
25.4469
23.7354
22.1276
20.6179
19.2013
17.8727
16.6275
15.461
14.3689
13.3471
12.3915
11.4984
10.6642
9.88535
9.15868
8.48104
7.84947
7.26117
6.71346
6.20383
5.72989
5.28936
4.88012
4.50013
4.14748
3.82038
3.51711
3.23608
2.97578
2.73478
2.51174
2.30541
2.11461
1.93822
1.7752
1.62457
1.48541
1.35685
1.23809
1.12837
1.02697
0.933219
0.846493
0.766198
0.691779
0.622713
0.558506
0.498692
0.442831
0.390504
0.341314
0.294883
0.250849
0.208862
0.168589
0.129702
0.0918853
0.0548285
0.0182258
276.203