/*--------------------------------*- C++ -*----------------------------------*\
| =========                 |                                                 |
| \\      /  F ield         | OpenFOAM: The Open Source CFD Toolbox           |
|  \\    /   O peration     | Version:  2406                                  |
|   \\  /    A nd           | Website:  www.openfoam.com                      |
|    \\/     M anipulation  |                                                 |
\*---------------------------------------------------------------------------*/
FoamFile
{
    version     2.0;
    format      ascii;
    arch        "LSB;label=32;scalar=64";
    class       volScalarField;
    location    "50";
    object      gradTx;
}
// * * * * * * * * * * * * * * * * * * * * * * * * * * * * * * * * * * * * * //

dimensions      [0 -1 0 1 0 0 0];

internalField   nonuniform List<scalar> 
20000
(
-7.72151
-7.45831
-7.19796
-6.94086
-6.68761
-6.43879
-6.19455
-5.95434
-5.71924
-5.48997
-5.26583
-5.04683
-4.83349
-4.62609
-4.42461
-4.22894
-4.03908
-3.85507
-3.67698
-3.5048
-3.33851
-3.17806
-3.02337
-2.87436
-2.73093
-2.59301
-2.46049
-2.33328
-2.21126
-2.09432
-1.98234
-1.87519
-1.77276
-1.6749
-1.58148
-1.49238
-1.40745
-1.32656
-1.24958
-1.17637
-1.10679
-1.04072
-0.978019
-0.918558
-0.86221
-0.80885
-0.758354
-0.710601
-0.665472
-0.622854
-0.582633
-0.5447
-0.508948
-0.475276
-0.443582
-0.413771
-0.385749
-0.359427
-0.334716
-0.311535
-0.289803
-0.269442
-0.250379
-0.232543
-0.215866
-0.200284
-0.185734
-0.172158
-0.1595
-0.147705
-0.136724
-0.126508
-0.117011
-0.10819
-0.100004
-0.0924143
-0.0853846
-0.0788802
-0.072869
-0.0673204
-0.0622061
-0.0574994
-0.0531754
-0.049211
-0.0455845
-0.0422761
-0.0392673
-0.0365412
-0.0340822
-0.0318762
-0.0299104
-0.0281732
-0.0266543
-0.0253447
-0.0242367
-0.0233234
-0.0225993
-0.0220601
-0.0217024
-0.0215241
-23.1626
-22.3731
-21.592
-20.821
-20.0616
-19.3146
-18.5814
-17.8617
-17.1569
-16.4685
-15.7959
-15.1391
-14.4994
-13.8773
-13.2728
-12.6858
-12.1162
-11.5642
-11.03
-10.5135
-10.0147
-9.53342
-9.06937
-8.62236
-8.19212
-7.77838
-7.38086
-6.99925
-6.63322
-6.28243
-5.94652
-5.62511
-5.31783
-5.02428
-4.74406
-4.47677
-4.22201
-3.97937
-3.74844
-3.52882
-3.32011
-3.12191
-2.93382
-2.75545
-2.58642
-2.42635
-2.27487
-2.13163
-1.99625
-1.86841
-1.74775
-1.63396
-1.52672
-1.42571
-1.33064
-1.24121
-1.15715
-1.07819
-1.00407
-0.934529
-0.869337
-0.808259
-0.751075
-0.697572
-0.647545
-0.600802
-0.557157
-0.516432
-0.47846
-0.443079
-0.410138
-0.379492
-0.351004
-0.324543
-0.299987
-0.27722
-0.256133
-0.236621
-0.218589
-0.201945
-0.186603
-0.172484
-0.159513
-0.147621
-0.136742
-0.126818
-0.117792
-0.109615
-0.102238
-0.0956208
-0.0897237
-0.0845125
-0.0799563
-0.076028
-0.072704
-0.0699643
-0.0677923
-0.0661748
-0.0651019
-0.0645671
-38.5977
-37.2819
-35.9809
-34.6962
-33.4308
-32.1858
-30.9636
-29.7647
-28.5905
-27.443
-26.3218
-25.2276
-24.1618
-23.1251
-22.1177
-21.1394
-20.1903
-19.2705
-18.3803
-17.5197
-16.6885
-15.8864
-15.1132
-14.3682
-13.6513
-12.9618
-12.2994
-11.6635
-11.0536
-10.469
-9.90924
-9.37365
-8.86159
-8.37242
-7.90546
-7.46006
-7.03552
-6.63119
-6.24637
-5.8804
-5.53261
-5.20232
-4.88889
-4.59166
-4.30999
-4.04325
-3.79083
-3.55213
-3.32654
-3.1135
-2.91244
-2.72283
-2.54411
-2.37579
-2.21736
-2.06835
-1.92827
-1.79669
-1.67317
-1.55729
-1.44866
-1.34688
-1.25159
-1.16243
-1.07906
-1.00117
-0.928442
-0.860579
-0.797302
-0.738344
-0.683451
-0.632383
-0.58491
-0.540816
-0.499896
-0.461958
-0.426817
-0.394304
-0.364255
-0.336519
-0.310954
-0.287426
-0.265811
-0.245994
-0.227866
-0.211328
-0.196288
-0.182661
-0.170369
-0.159342
-0.149515
-0.140831
-0.133239
-0.126692
-0.121153
-0.116588
-0.112969
-0.110273
-0.108485
-0.107594
-54.0235
-52.1814
-50.3606
-48.5627
-46.7915
-45.049
-43.3383
-41.6603
-40.0169
-38.4106
-36.8413
-35.3099
-33.8183
-32.3673
-30.9572
-29.5878
-28.2593
-26.972
-25.7261
-24.5215
-23.3582
-22.2356
-21.1532
-20.1106
-19.1071
-18.1421
-17.2149
-16.3249
-15.4712
-14.653
-13.8695
-13.1199
-12.4032
-11.7185
-11.0649
-10.4415
-9.8473
-9.28137
-8.74276
-8.23053
-7.74374
-7.28145
-6.84276
-6.42673
-6.03249
-5.65916
-5.30586
-4.97175
-4.65601
-4.35783
-4.07642
-3.81102
-3.56088
-3.32529
-3.10354
-2.89497
-2.69891
-2.51474
-2.34186
-2.17967
-2.02762
-1.88516
-1.75179
-1.627
-1.51032
-1.4013
-1.2995
-1.20451
-1.11595
-1.03343
-0.956595
-0.885117
-0.818671
-0.756955
-0.699682
-0.646581
-0.597397
-0.551889
-0.509831
-0.47101
-0.435228
-0.402297
-0.372044
-0.344307
-0.318934
-0.295787
-0.274736
-0.255662
-0.238458
-0.223023
-0.209269
-0.197115
-0.186488
-0.177326
-0.169573
-0.163183
-0.158117
-0.154344
-0.151842
-0.150595
-69.4364
-67.0685
-64.7277
-62.4171
-60.1406
-57.9012
-55.7024
-53.5457
-51.4334
-49.3687
-47.3516
-45.3836
-43.4665
-41.6015
-39.789
-38.0289
-36.3213
-34.6668
-33.0655
-31.5174
-30.0221
-28.5792
-27.1881
-25.848
-24.5582
-23.3179
-22.1262
-20.9822
-19.8849
-18.8333
-17.8264
-16.8629
-15.9417
-15.0617
-14.2216
-13.4204
-12.6567
-11.9293
-11.237
-10.5786
-9.95296
-9.35879
-8.79493
-8.26022
-7.75351
-7.27366
-6.81957
-6.39015
-5.98433
-5.60108
-5.23938
-4.89826
-4.57677
-4.27396
-3.98896
-3.72088
-3.46889
-3.23218
-3.00997
-2.80151
-2.60608
-2.42298
-2.25156
-2.09117
-1.9412
-1.80107
-1.67023
-1.54815
-1.43432
-1.32825
-1.2295
-1.13763
-1.05223
-0.972908
-0.899295
-0.831045
-0.767829
-0.709338
-0.655281
-0.605386
-0.559395
-0.517069
-0.478185
-0.442534
-0.409923
-0.380172
-0.353115
-0.3286
-0.306488
-0.28665
-0.268972
-0.25335
-0.239691
-0.227915
-0.217951
-0.209738
-0.203227
-0.198378
-0.195161
-0.193558
-84.8322
-81.9392
-79.079
-76.2561
-73.475
-70.7391
-68.0527
-65.4178
-62.8372
-60.3146
-57.8503
-55.446
-53.104
-50.8255
-48.611
-46.4605
-44.3744
-42.3531
-40.3968
-38.5054
-36.6786
-34.9158
-33.2162
-31.579
-30.0032
-28.4879
-27.032
-25.6344
-24.2938
-23.0091
-21.7788
-20.6017
-19.4763
-18.4011
-17.3749
-16.3959
-15.4629
-14.5742
-13.7285
-12.9241
-12.1597
-11.4338
-10.7449
-10.0917
-9.47262
-8.88638
-8.3316
-7.80697
-7.31117
-6.84294
-6.40106
-5.98431
-5.59153
-5.22158
-4.87339
-4.54587
-4.23801
-3.94882
-3.67734
-3.42266
-3.1839
-2.96021
-2.75077
-2.55482
-2.3716
-2.20041
-2.04056
-1.8914
-1.75233
-1.62275
-1.50211
-1.38987
-1.28553
-1.18862
-1.09869
-1.0153
-0.938072
-0.866612
-0.80057
-0.739611
-0.683423
-0.631713
-0.584208
-0.540653
-0.500811
-0.464464
-0.431408
-0.401457
-0.374442
-0.350206
-0.328608
-0.309523
-0.292836
-0.278448
-0.266275
-0.256241
-0.248286
-0.242362
-0.238433
-0.236474
-100.207
-96.7896
-93.4109
-90.0764
-86.7912
-83.5595
-80.3862
-77.2737
-74.2255
-71.2456
-68.3348
-65.4948
-62.7283
-60.0369
-57.4209
-54.8807
-52.4165
-50.0289
-47.7181
-45.484
-43.3261
-41.2438
-39.2361
-37.3022
-35.4408
-33.6509
-31.9311
-30.2802
-28.6967
-27.1791
-25.7259
-24.3354
-23.006
-21.7361
-20.5238
-19.3674
-18.2653
-17.2156
-16.2165
-15.2664
-14.3635
-13.506
-12.6923
-11.9206
-11.1894
-10.4969
-9.84158
-9.22186
-8.63621
-8.08312
-7.56115
-7.06887
-6.6049
-6.16792
-5.75661
-5.36974
-5.00608
-4.66448
-4.3438
-4.04297
-3.76093
-3.4967
-3.24931
-3.01784
-2.80142
-2.5992
-2.41038
-2.23419
-2.06992
-1.91685
-1.77434
-1.64176
-1.51851
-1.40404
-1.29781
-1.19931
-1.10808
-1.02367
-0.945661
-0.873655
-0.807284
-0.746202
-0.690087
-0.638638
-0.591576
-0.548641
-0.509594
-0.474216
-0.442304
-0.413676
-0.388164
-0.365619
-0.345908
-0.328913
-0.314533
-0.30268
-0.293284
-0.286286
-0.281645
-0.279331
-115.557
-111.616
-107.72
-103.874
-100.086
-96.3593
-92.6998
-89.1106
-85.5955
-82.1591
-78.8024
-75.5275
-72.3372
-69.2334
-66.2167
-63.2873
-60.4457
-57.6924
-55.0276
-52.4513
-49.9629
-47.5616
-45.2464
-43.0162
-40.8697
-38.8056
-36.8224
-34.9186
-33.0925
-31.3424
-29.6666
-28.0631
-26.5301
-25.0656
-23.6676
-22.3342
-21.0632
-19.8527
-18.7006
-17.605
-16.5637
-15.5749
-14.6365
-13.7467
-12.9034
-12.1048
-11.3491
-10.6345
-9.95911
-9.32131
-8.71938
-8.15169
-7.61665
-7.11273
-6.63842
-6.19228
-5.77292
-5.37899
-5.00919
-4.66227
-4.33704
-4.03233
-3.74704
-3.48012
-3.23054
-2.99734
-2.7796
-2.57643
-2.38699
-2.21048
-2.04614
-1.89325
-1.75112
-1.61911
-1.49661
-1.38303
-1.27782
-1.18048
-1.09052
-1.00748
-0.930945
-0.860506
-0.795796
-0.736466
-0.682194
-0.632682
-0.587654
-0.546857
-0.510057
-0.477043
-0.447623
-0.421625
-0.398895
-0.379297
-0.362714
-0.349046
-0.33821
-0.33014
-0.324788
-0.32212
-130.878
-126.415
-122.002
-117.647
-113.356
-109.135
-104.991
-100.925
-96.9444
-93.0524
-89.2506
-85.5415
-81.9282
-78.4129
-74.9961
-71.6783
-68.46
-65.3416
-62.3236
-59.4057
-56.5874
-53.8677
-51.2455
-48.7196
-46.2885
-43.9507
-41.7045
-39.5483
-37.4801
-35.498
-33.6
-31.784
-30.0477
-28.389
-26.8057
-25.2954
-23.8559
-22.4849
-21.1801
-19.9391
-18.7598
-17.6399
-16.5771
-15.5693
-14.6142
-13.7098
-12.8539
-12.0445
-11.2796
-10.5572
-9.87545
-9.2325
-8.62652
-8.05578
-7.51859
-7.0133
-6.53834
-6.09218
-5.67334
-5.28043
-4.91207
-4.56696
-4.24385
-3.94154
-3.65887
-3.39475
-3.14814
-2.91803
-2.70347
-2.50356
-2.31743
-2.14427
-1.9833
-1.83379
-1.69504
-1.5664
-1.44724
-1.337
-1.23511
-1.14106
-1.05438
-0.974598
-0.901308
-0.834112
-0.772644
-0.716568
-0.66557
-0.619363
-0.577684
-0.540293
-0.506972
-0.477527
-0.451783
-0.429587
-0.410805
-0.395325
-0.383052
-0.373913
-0.367851
-0.364829
-146.167
-141.183
-136.254
-131.39
-126.598
-121.884
-117.255
-112.715
-108.269
-103.923
-99.6768
-95.5344
-91.4991
-87.573
-83.757
-80.0516
-76.4574
-72.9748
-69.6042
-66.3454
-63.1979
-60.1605
-57.232
-54.411
-51.6959
-49.0849
-46.5764
-44.1683
-41.8585
-39.6449
-37.5251
-35.4969
-33.5578
-31.7054
-29.9371
-28.2504
-26.6427
-25.1115
-23.6543
-22.2684
-20.9513
-19.7006
-18.5137
-17.3881
-16.3214
-15.3113
-14.3554
-13.4515
-12.5972
-11.7905
-11.0291
-10.311
-9.63426
-8.99685
-8.3969
-7.83259
-7.30214
-6.80386
-6.3361
-5.89728
-5.48589
-5.10047
-4.73961
-4.40198
-4.08629
-3.79133
-3.5159
-3.25891
-3.01929
-2.79602
-2.58815
-2.39476
-2.21499
-2.04801
-1.89305
-1.74938
-1.61631
-1.49318
-1.37939
-1.27436
-1.17755
-1.08845
-1.0066
-0.931552
-0.862904
-0.800277
-0.743321
-0.691716
-0.645169
-0.60341
-0.566197
-0.533311
-0.50456
-0.479771
-0.458795
-0.441506
-0.4278
-0.417593
-0.410823
-0.407448
-161.42
-155.915
-150.473
-145.101
-139.809
-134.603
-129.491
-124.478
-119.568
-114.767
-110.078
-105.504
-101.047
-96.7115
-92.4973
-88.4052
-84.4359
-80.5899
-76.8676
-73.2688
-69.7928
-66.4384
-63.2043
-60.0889
-57.0905
-54.2071
-51.4368
-48.7774
-46.2265
-43.7819
-41.441
-39.2011
-37.0597
-35.0139
-33.0611
-31.1984
-29.423
-27.732
-26.1227
-24.5922
-23.1377
-21.7564
-20.4456
-19.2026
-18.0246
-16.9091
-15.8535
-14.8552
-13.9118
-13.0208
-12.18
-11.387
-10.6396
-9.9357
-9.27314
-8.64994
-8.06414
-7.51386
-6.99729
-6.51268
-6.05836
-5.63272
-5.23421
-4.86134
-4.51271
-4.18696
-3.8828
-3.59899
-3.33436
-3.0878
-2.85823
-2.64466
-2.44613
-2.26172
-2.0906
-1.93193
-1.78498
-1.649
-1.52334
-1.40734
-1.30043
-1.20203
-1.11164
-1.02876
-0.952951
-0.883788
-0.820889
-0.763899
-0.712494
-0.666377
-0.625281
-0.588964
-0.557212
-0.529836
-0.506672
-0.487579
-0.472443
-0.461171
-0.453694
-0.449967
-176.633
-170.61
-164.654
-158.776
-152.986
-147.289
-141.695
-136.209
-130.836
-125.584
-120.453
-115.447
-110.571
-105.826
-101.215
-96.737
-92.3936
-88.1852
-84.1121
-80.1741
-76.3705
-72.7
-69.1611
-65.7521
-62.471
-59.3159
-56.2845
-53.3744
-50.5832
-47.9082
-45.3466
-42.8957
-40.5524
-38.3138
-36.177
-34.1387
-32.196
-30.3456
-28.5846
-26.9099
-25.3183
-23.8069
-22.3725
-21.0123
-19.7234
-18.5027
-17.3476
-16.2552
-15.2229
-14.248
-13.3279
-12.4602
-11.6424
-10.8721
-10.1471
-9.46516
-8.82415
-8.22201
-7.65675
-7.12648
-6.62934
-6.16358
-5.72751
-5.3195
-4.93802
-4.58156
-4.24874
-3.93818
-3.64861
-3.37881
-3.12761
-2.89391
-2.67666
-2.47488
-2.28763
-2.11401
-1.9532
-1.80441
-1.6669
-1.53998
-1.42299
-1.31532
-1.21641
-1.12572
-1.04276
-0.967081
-0.898254
-0.835894
-0.779644
-0.729181
-0.684211
-0.644472
-0.609727
-0.579771
-0.554423
-0.533531
-0.516969
-0.504634
-0.496453
-0.492374
-191.803
-185.262
-178.795
-172.412
-166.124
-159.939
-153.864
-147.907
-142.073
-136.369
-130.797
-125.362
-120.067
-114.915
-109.907
-105.045
-100.328
-95.7587
-91.3358
-87.0597
-82.9294
-78.9436
-75.1008
-71.399
-67.8361
-64.41
-61.1183
-57.9583
-54.9274
-52.0226
-49.2411
-46.5796
-44.0351
-41.6043
-39.2839
-37.0706
-34.961
-32.9518
-31.0395
-29.221
-27.4927
-25.8514
-24.2939
-22.8169
-21.4172
-20.0918
-18.8374
-17.6513
-16.5303
-15.4716
-14.4726
-13.5303
-12.6422
-11.8058
-11.0185
-10.278
-9.58198
-8.92813
-8.31433
-7.73851
-7.19868
-6.69292
-6.2194
-5.77635
-5.3621
-4.97504
-4.61362
-4.2764
-3.96196
-3.66899
-3.39621
-3.14244
-2.90654
-2.68743
-2.48409
-2.29557
-2.12095
-1.95938
-1.81006
-1.67224
-1.5452
-1.42828
-1.32087
-1.2224
-1.13232
-1.05014
-0.975398
-0.907682
-0.846601
-0.791804
-0.742973
-0.69982
-0.662092
-0.629563
-0.602039
-0.579352
-0.561367
-0.547973
-0.539089
-0.534661
-206.925
-199.869
-192.892
-186.006
-179.222
-172.549
-165.995
-159.568
-153.274
-147.121
-141.11
-135.246
-129.533
-123.975
-118.573
-113.327
-108.239
-103.309
-98.537
-93.9237
-89.4678
-85.1678
-81.0219
-77.0282
-73.1845
-69.4883
-65.937
-62.5279
-59.258
-56.1242
-53.1233
-50.2521
-47.5069
-44.8845
-42.3812
-39.9933
-37.7174
-35.5498
-33.4868
-31.5248
-29.6603
-27.8896
-26.2093
-24.6159
-23.1058
-21.6759
-20.3226
-19.0429
-17.8336
-16.6915
-15.6136
-14.5971
-13.639
-12.7366
-11.8873
-11.0884
-10.3374
-9.63205
-8.96985
-8.34863
-7.76624
-7.22061
-6.70975
-6.23177
-5.78486
-5.36728
-4.97737
-4.61356
-4.27433
-3.95826
-3.66398
-3.3902
-3.1357
-2.89931
-2.67994
-2.47655
-2.28817
-2.11386
-1.95277
-1.80408
-1.66702
-1.54089
-1.42502
-1.31877
-1.22159
-1.13293
-1.0523
-0.979246
-0.913349
-0.854232
-0.801551
-0.754996
-0.714293
-0.6792
-0.649505
-0.62503
-0.605627
-0.591177
-0.581593
-0.576815
-221.996
-214.426
-206.941
-199.553
-192.275
-185.116
-178.086
-171.19
-164.438
-157.836
-151.387
-145.096
-138.967
-133.004
-127.209
-121.581
-116.122
-110.833
-105.714
-100.765
-95.9841
-91.3709
-86.9231
-82.6385
-78.5148
-74.5494
-70.7394
-67.082
-63.574
-60.2119
-56.9925
-53.9121
-50.9671
-48.1536
-45.4679
-42.9062
-40.4645
-38.139
-35.9257
-33.8209
-31.8206
-29.9209
-28.1182
-26.4087
-24.7887
-23.2546
-21.8028
-20.4299
-19.1325
-17.9072
-16.7508
-15.6602
-14.6324
-13.6643
-12.7531
-11.896
-11.0904
-10.3336
-9.62316
-8.9567
-8.33189
-7.74651
-7.19845
-6.68566
-6.2062
-5.7582
-5.3399
-4.94958
-4.58565
-4.24656
-3.93084
-3.63712
-3.36409
-3.11048
-2.87513
-2.65693
-2.45482
-2.26782
-2.095
-1.93548
-1.78844
-1.65312
-1.52881
-1.41483
-1.31057
-1.21545
-1.12894
-1.05057
-0.979873
-0.91645
-0.859931
-0.809986
-0.766319
-0.728669
-0.696811
-0.670554
-0.649737
-0.634235
-0.623953
-0.618827
-237.013
-228.93
-220.939
-213.052
-205.281
-197.638
-190.132
-182.77
-175.561
-168.512
-161.627
-154.911
-148.367
-142.001
-135.813
-129.805
-123.977
-118.33
-112.865
-107.581
-102.477
-97.5515
-92.8028
-88.2284
-83.8258
-79.5921
-75.5244
-71.6196
-67.8743
-64.2848
-60.8476
-57.5589
-54.4146
-51.4108
-48.5435
-45.8085
-43.2016
-40.7188
-38.3559
-36.1086
-33.973
-31.9449
-30.0202
-28.1951
-26.4655
-24.8276
-23.2776
-21.8118
-20.4266
-19.1185
-17.8839
-16.7195
-15.6221
-14.5886
-13.6157
-12.7007
-11.8405
-11.0326
-10.2741
-9.56255
-8.89548
-8.27051
-7.68537
-7.13789
-6.626
-6.1477
-5.7011
-5.28439
-4.89583
-4.5338
-4.19674
-3.88315
-3.59164
-3.32088
-3.06962
-2.83665
-2.62088
-2.42123
-2.23671
-2.0664
-1.90941
-1.76494
-1.63222
-1.51053
-1.39922
-1.29766
-1.20531
-1.12163
-1.04615
-0.978441
-0.9181
-0.864776
-0.818155
-0.777958
-0.743946
-0.715912
-0.693688
-0.677137
-0.666159
-0.660686
-251.971
-243.378
-234.882
-226.497
-218.237
-210.111
-202.131
-194.305
-186.641
-179.147
-171.828
-164.687
-157.731
-150.963
-144.384
-137.997
-131.801
-125.798
-119.988
-114.37
-108.944
-103.708
-98.6596
-93.7965
-89.116
-84.6152
-80.2908
-76.1395
-72.1578
-68.3419
-64.6877
-61.1914
-57.8487
-54.6554
-51.6071
-48.6995
-45.9281
-43.2886
-40.7765
-38.3874
-36.117
-33.9609
-31.9148
-29.9745
-28.1357
-26.3945
-24.7467
-23.1884
-21.7158
-20.325
-19.0125
-17.7747
-16.608
-15.5092
-14.475
-13.5022
-12.5878
-11.7288
-10.9225
-10.166
-9.45687
-8.79246
-8.17039
-7.58837
-7.04417
-6.53569
-6.0609
-5.61789
-5.20481
-4.81993
-4.46159
-4.12822
-3.81831
-3.53047
-3.26334
-3.01568
-2.78628
-2.57403
-2.37787
-2.19681
-2.02992
-1.87633
-1.73523
-1.60586
-1.48752
-1.37956
-1.28138
-1.19242
-1.11218
-1.04019
-0.976041
-0.919352
-0.869789
-0.827056
-0.790897
-0.761094
-0.737467
-0.719872
-0.708201
-0.702383
-266.866
-257.766
-248.768
-239.887
-231.138
-222.532
-214.08
-205.792
-197.674
-189.738
-181.986
-174.423
-167.056
-159.887
-152.92
-146.155
-139.593
-133.235
-127.081
-121.131
-115.385
-109.839
-104.492
-99.3415
-94.3843
-89.6174
-85.0374
-80.6407
-76.4236
-72.382
-68.5119
-64.8089
-61.2686
-57.8865
-54.658
-51.5784
-48.6432
-45.8477
-43.1871
-40.6568
-38.2522
-35.9686
-33.8015
-31.7465
-29.799
-27.9548
-26.2096
-24.5592
-22.9995
-21.5266
-20.1365
-18.8255
-17.5899
-16.4261
-15.3307
-14.3004
-13.332
-12.4222
-11.5682
-10.767
-10.0159
-9.31224
-8.6534
-8.03697
-7.4606
-6.92206
-6.4192
-5.95
-5.51251
-5.10487
-4.72535
-4.37226
-4.04404
-3.73918
-3.45626
-3.19395
-2.951
-2.7262
-2.51844
-2.32668
-2.14992
-1.98725
-1.83781
-1.70079
-1.57546
-1.46112
-1.35713
-1.26291
-1.17793
-1.10168
-1.03374
-0.973702
-0.921209
-0.875949
-0.837653
-0.806088
-0.781064
-0.762429
-0.750068
-0.743906
-281.696
-272.09
-262.592
-253.218
-243.983
-234.898
-225.977
-217.228
-208.659
-200.282
-192.099
-184.116
-176.339
-168.772
-161.418
-154.277
-147.35
-140.639
-134.143
-127.863
-121.797
-115.943
-110.299
-104.862
-99.6293
-94.5975
-89.7629
-85.1219
-80.6705
-76.4043
-72.3191
-68.4103
-64.6733
-61.1032
-57.6953
-54.4447
-51.3464
-48.3955
-45.587
-42.9161
-40.3778
-37.9674
-35.6799
-33.5106
-31.455
-29.5083
-27.6661
-25.924
-24.2776
-22.7228
-21.2555
-19.8716
-18.5673
-17.3389
-16.1827
-15.0951
-14.0728
-13.1125
-12.2111
-11.3654
-10.5725
-9.82973
-9.13428
-8.48359
-7.87519
-7.30672
-6.77592
-6.28064
-5.81884
-5.38855
-4.98794
-4.61523
-4.26877
-3.94696
-3.64833
-3.37145
-3.11499
-2.8777
-2.65839
-2.45597
-2.26939
-2.09769
-1.93994
-1.79531
-1.66301
-1.54231
-1.43255
-1.33309
-1.24338
-1.16291
-1.09119
-1.02781
-0.972401
-0.924627
-0.884202
-0.850883
-0.824469
-0.804798
-0.79175
-0.785246
-296.457
-286.347
-276.351
-266.486
-256.767
-247.206
-237.818
-228.61
-219.593
-210.776
-202.164
-193.763
-185.579
-177.616
-169.876
-162.361
-155.071
-148.008
-141.172
-134.563
-128.179
-122.018
-116.078
-110.357
-104.85
-99.5542
-94.4663
-89.5822
-84.8975
-80.4078
-76.1085
-71.9949
-68.0621
-64.3049
-60.7185
-57.2975
-54.0368
-50.9313
-47.9757
-45.1648
-42.4936
-39.9568
-37.5495
-35.2665
-33.1032
-31.0545
-29.1158
-27.2824
-25.5497
-23.9135
-22.3692
-20.9129
-19.5402
-18.2474
-17.0306
-15.8861
-14.8102
-13.7996
-12.8509
-11.9609
-11.1265
-10.3448
-9.6129
-8.92812
-8.28784
-7.68958
-7.13097
-6.60974
-6.12374
-5.67091
-5.2493
-4.85706
-4.49245
-4.15378
-3.83949
-3.5481
-3.27821
-3.02848
-2.79769
-2.58466
-2.38831
-2.2076
-2.04159
-1.88938
-1.75015
-1.62313
-1.50761
-1.40294
-1.30854
-1.22384
-1.14837
-1.08167
-1.02335
-0.973076
-0.930533
-0.895468
-0.86767
-0.846968
-0.833237
-0.826392
-311.144
-300.533
-290.042
-279.689
-269.488
-259.454
-249.6
-239.936
-230.472
-221.218
-212.18
-203.363
-194.773
-186.415
-178.292
-170.404
-162.754
-155.341
-148.166
-141.229
-134.529
-128.063
-121.829
-115.824
-110.044
-104.486
-99.1465
-94.0203
-89.1035
-84.3914
-79.8791
-75.5617
-71.434
-67.4908
-63.7266
-60.1362
-56.714
-53.4546
-50.3525
-47.4024
-44.5988
-41.9364
-39.4098
-37.0137
-34.7432
-32.593
-30.5582
-28.634
-26.8155
-25.0982
-23.4775
-21.9489
-20.5083
-19.1515
-17.8744
-16.6731
-15.544
-14.4833
-13.4876
-12.5535
-11.6777
-10.8573
-10.0891
-9.37044
-8.69844
-8.07054
-7.48426
-6.9372
-6.42712
-5.95186
-5.50936
-5.0977
-4.71501
-4.35957
-4.02971
-3.72389
-3.44062
-3.17852
-2.9363
-2.71271
-2.50663
-2.31697
-2.14273
-1.98298
-1.83685
-1.70354
-1.5823
-1.47245
-1.37337
-1.28447
-1.20526
-1.13526
-1.07405
-1.02129
-0.976635
-0.939833
-0.910657
-0.88893
-0.874518
-0.867334
-325.755
-314.646
-303.662
-292.822
-282.142
-271.637
-261.32
-251.203
-241.294
-231.606
-222.144
-212.912
-203.919
-195.169
-186.664
-178.406
-170.396
-162.635
-155.123
-147.861
-140.846
-134.077
-127.55
-121.263
-115.212
-109.393
-103.802
-98.4352
-93.2876
-88.3542
-83.6301
-79.1099
-74.7884
-70.66
-66.719
-62.96
-59.3771
-55.9647
-52.717
-49.6283
-46.6931
-43.9056
-41.2603
-38.7518
-36.3746
-34.1235
-31.9932
-29.9786
-28.0747
-26.2767
-24.5799
-22.9796
-21.4713
-20.0508
-18.7137
-17.456
-16.2739
-15.1634
-14.1209
-13.1429
-12.2261
-11.3671
-10.5629
-9.81045
-9.1069
-8.44951
-7.8357
-7.26296
-6.72892
-6.23134
-5.76807
-5.33707
-4.93642
-4.56428
-4.21894
-3.89875
-3.60218
-3.32778
-3.07418
-2.8401
-2.62434
-2.42577
-2.24335
-2.0761
-1.92311
-1.78354
-1.6566
-1.54159
-1.43786
-1.34479
-1.26185
-1.18857
-1.12449
-1.06924
-1.0225
-0.983965
-0.95342
-0.930672
-0.915584
-0.908062
-340.285
-328.68
-317.207
-305.883
-294.727
-283.753
-272.976
-262.407
-252.057
-241.937
-232.052
-222.409
-213.015
-203.874
-194.99
-186.364
-177.996
-169.889
-162.043
-154.456
-147.128
-140.057
-133.239
-126.672
-120.351
-114.272
-108.432
-102.826
-97.4486
-92.2952
-87.3603
-82.6386
-78.1243
-73.8117
-69.695
-65.7683
-62.0256
-58.4609
-55.0684
-51.842
-48.7758
-45.864
-43.1007
-40.4803
-37.9971
-35.6455
-33.4202
-31.3157
-29.327
-27.4488
-25.6763
-24.0046
-22.4291
-20.9451
-19.5484
-18.2347
-16.9997
-15.8397
-14.7508
-13.7292
-12.7714
-11.8742
-11.0341
-10.248
-9.5131
-8.8264
-8.1852
-7.58692
-7.02906
-6.50929
-6.02535
-5.57513
-5.1566
-4.76787
-4.40712
-4.07265
-3.76285
-3.47621
-3.2113
-2.96678
-2.74139
-2.53397
-2.34342
-2.1687
-2.00889
-1.86309
-1.73049
-1.61036
-1.50199
-1.40477
-1.31814
-1.24158
-1.17465
-1.11694
-1.0681
-1.02786
-0.995947
-0.972185
-0.956423
-0.948566
-354.731
-342.634
-330.673
-318.869
-307.239
-295.799
-284.565
-273.547
-262.758
-252.208
-241.904
-231.851
-222.058
-212.529
-203.268
-194.276
-185.553
-177.102
-168.922
-161.013
-153.375
-146.003
-138.896
-132.049
-125.46
-119.123
-113.035
-107.191
-101.586
-96.2134
-91.069
-86.1468
-81.4409
-76.9452
-72.6538
-68.5603
-64.6587
-60.9428
-57.4062
-54.0428
-50.8465
-47.811
-44.9305
-42.1988
-39.6102
-37.1588
-34.839
-32.6452
-30.572
-28.6141
-26.7663
-25.0237
-23.3812
-21.8343
-20.3783
-19.0088
-17.7214
-16.5122
-15.377
-14.312
-13.3136
-12.3783
-11.5025
-10.6831
-9.91697
-9.20111
-8.53269
-7.90901
-7.32747
-6.78563
-6.28115
-5.81181
-5.37552
-4.97028
-4.59422
-4.24555
-3.9226
-3.62379
-3.34763
-3.09273
-2.85777
-2.64155
-2.4429
-2.26077
-2.09417
-1.94218
-1.80396
-1.67872
-1.56576
-1.46441
-1.3741
-1.29429
-1.22451
-1.16435
-1.11345
-1.07149
-1.03823
-1.01346
-0.997027
-0.988837
-369.089
-356.503
-344.058
-331.776
-319.676
-307.773
-296.084
-284.62
-273.394
-262.417
-251.695
-241.236
-231.046
-221.132
-211.496
-202.139
-193.064
-184.27
-175.759
-167.531
-159.583
-151.913
-144.518
-137.394
-130.538
-123.945
-117.611
-111.53
-105.698
-100.108
-94.7553
-89.6338
-84.7374
-80.0598
-75.5946
-71.3355
-67.276
-63.4096
-59.7299
-56.2303
-52.9046
-49.7463
-46.7492
-43.9069
-41.2135
-38.6629
-36.2492
-33.9666
-31.8095
-29.7723
-27.8498
-26.0366
-24.3277
-22.7181
-21.2032
-19.7782
-18.4388
-17.1805
-15.9994
-14.8913
-13.8525
-12.8793
-11.9681
-11.1155
-10.3184
-9.57355
-8.87808
-8.22914
-7.62407
-7.06029
-6.53539
-6.04706
-5.59311
-5.17147
-4.78018
-4.4174
-4.08138
-3.77047
-3.48313
-3.21791
-2.97345
-2.74847
-2.54178
-2.35228
-2.17894
-2.0208
-1.87698
-1.74667
-1.62913
-1.52369
-1.42972
-1.34668
-1.27408
-1.21148
-1.15852
-1.11486
-1.08025
-1.05448
-1.03738
-1.02886
-383.357
-370.284
-357.358
-344.601
-332.033
-319.67
-307.529
-295.622
-283.962
-272.561
-261.425
-250.561
-239.978
-229.68
-219.672
-209.953
-200.527
-191.393
-182.554
-174.007
-165.752
-157.785
-150.104
-142.705
-135.584
-128.736
-122.157
-115.841
-109.783
-103.978
-98.4182
-93.0987
-88.013
-83.1546
-78.5168
-74.093
-69.8766
-65.8607
-62.0388
-58.404
-54.9497
-51.6693
-48.5563
-45.6042
-42.8067
-40.1575
-37.6504
-35.2796
-33.0391
-30.9232
-28.9263
-27.043
-25.2681
-23.5963
-22.0228
-20.5427
-19.1515
-17.8447
-16.6179
-15.467
-14.388
-13.3772
-12.4307
-11.5452
-10.7172
-9.94362
-9.22127
-8.54725
-7.91879
-7.33322
-6.78803
-6.28082
-5.80932
-5.37138
-4.96497
-4.58816
-4.23915
-3.91622
-3.61778
-3.34231
-3.08839
-2.85472
-2.64004
-2.44321
-2.26317
-2.09892
-1.94954
-1.81419
-1.69211
-1.58259
-1.48499
-1.39874
-1.32333
-1.25832
-1.2033
-1.15796
-1.12201
-1.09524
-1.07749
-1.06864
-397.53
-383.973
-370.57
-357.341
-344.308
-331.488
-318.899
-306.552
-294.46
-282.638
-271.09
-259.824
-248.85
-238.172
-227.793
-217.715
-207.94
-198.469
-189.303
-180.44
-171.88
-163.619
-155.654
-147.981
-140.597
-133.496
-126.673
-120.124
-113.842
-107.822
-102.057
-96.5407
-91.2669
-86.2289
-81.4196
-76.8323
-72.46
-68.2957
-64.3324
-60.5632
-56.9812
-53.5796
-50.3515
-47.2902
-44.3893
-41.6421
-39.0424
-36.5839
-34.2606
-32.0665
-29.9957
-28.0428
-26.2022
-24.4687
-22.837
-21.3022
-19.8596
-18.5044
-17.2322
-16.0388
-14.92
-13.8717
-12.8903
-11.972
-11.1135
-10.3112
-9.56218
-8.86325
-8.21155
-7.60433
-7.03898
-6.51302
-6.02409
-5.56996
-5.14852
-4.75779
-4.39587
-4.06101
-3.75153
-3.46587
-3.20257
-2.96026
-2.73765
-2.53354
-2.34684
-2.17651
-2.02161
-1.88126
-1.75467
-1.6411
-1.53989
-1.45045
-1.37226
-1.30484
-1.24779
-1.20077
-1.1635
-1.13574
-1.11732
-1.10814
-411.605
-397.568
-383.69
-369.993
-356.499
-343.225
-330.19
-317.405
-304.886
-292.645
-280.688
-269.024
-257.661
-246.604
-235.858
-225.424
-215.303
-205.496
-196.005
-186.829
-177.965
-169.412
-161.165
-153.221
-145.575
-138.222
-131.158
-124.377
-117.873
-111.639
-105.67
-99.9588
-94.4983
-89.2819
-84.3024
-79.5526
-75.0255
-70.7137
-66.6101
-62.7075
-58.9987
-55.4766
-52.1342
-48.9646
-45.9609
-43.1165
-40.4247
-37.8792
-35.4736
-33.2018
-31.0578
-29.0357
-27.13
-25.335
-23.6456
-22.0565
-20.5627
-19.1596
-17.8424
-16.6067
-15.4482
-14.3629
-13.3467
-12.3959
-11.507
-10.6763
-9.90074
-9.17706
-8.50229
-7.87357
-7.28821
-6.74362
-6.23738
-5.76717
-5.33081
-4.92624
-4.55151
-4.20479
-3.88436
-3.58859
-3.31596
-3.06507
-2.83457
-2.62325
-2.42993
-2.25358
-2.09319
-1.94787
-1.8168
-1.6992
-1.59441
-1.50181
-1.42084
-1.35104
-1.29197
-1.24329
-1.20469
-1.17595
-1.15688
-1.14738
-425.578
-411.065
-396.716
-382.554
-368.602
-354.877
-341.399
-328.181
-315.236
-302.579
-290.217
-278.157
-266.408
-254.976
-243.865
-233.077
-222.612
-212.473
-202.659
-193.171
-184.007
-175.163
-166.636
-158.422
-150.517
-142.915
-135.611
-128.6
-121.874
-115.429
-109.257
-103.352
-97.7064
-92.3129
-87.1643
-82.2533
-77.5725
-73.1143
-68.8714
-64.8363
-61.0016
-57.3599
-53.9041
-50.6268
-47.5212
-44.5802
-41.7971
-39.1651
-36.6779
-34.3289
-32.1121
-30.0214
-28.051
-26.1951
-24.4483
-22.8052
-21.2608
-19.81
-18.4481
-17.1704
-15.9727
-14.8505
-13.7998
-12.8167
-11.8976
-11.0388
-10.2369
-9.48861
-8.79093
-8.14087
-7.53563
-6.97256
-6.44913
-5.96296
-5.51179
-5.09348
-4.70603
-4.34754
-4.01623
-3.71041
-3.42854
-3.16912
-2.9308
-2.7123
-2.51243
-2.33008
-2.16425
-2.014
-1.87847
-1.75689
-1.64854
-1.55279
-1.46908
-1.3969
-1.33583
-1.28549
-1.24559
-1.21587
-1.19616
-1.18633
-439.447
-424.461
-409.644
-395.02
-380.613
-366.441
-352.524
-338.875
-325.509
-312.44
-299.674
-287.221
-275.089
-263.285
-251.812
-240.672
-229.866
-219.397
-209.264
-199.466
-190.003
-180.871
-172.066
-163.585
-155.422
-147.572
-140.03
-132.79
-125.846
-119.191
-112.818
-106.72
-100.89
-95.3211
-90.0047
-84.9337
-80.1003
-75.4969
-71.1158
-66.9491
-62.9895
-59.2291
-55.6606
-52.2766
-49.0698
-46.033
-43.1591
-40.4414
-37.8731
-35.4476
-33.1586
-30.9997
-28.9651
-27.0487
-25.245
-23.5484
-21.9536
-20.4556
-19.0493
-17.73
-16.4932
-15.3344
-14.2495
-13.2344
-12.2853
-11.3985
-10.5704
-9.79781
-9.0774
-8.40615
-7.78119
-7.19977
-6.65929
-6.15727
-5.6914
-5.25946
-4.85939
-4.48921
-4.1471
-3.83133
-3.54026
-3.2724
-3.02631
-2.80069
-2.5943
-2.40601
-2.23478
-2.07963
-1.93969
-1.81414
-1.70226
-1.60339
-1.51695
-1.44243
-1.37936
-1.32739
-1.28618
-1.25549
-1.23514
-1.22499
-453.206
-437.751
-422.47
-407.389
-392.531
-377.915
-363.562
-349.486
-335.701
-322.223
-309.058
-296.214
-283.703
-271.529
-259.697
-248.208
-237.064
-226.266
-215.816
-205.712
-195.953
-186.535
-177.454
-168.707
-160.288
-152.193
-144.415
-136.948
-129.786
-122.923
-116.35
-110.062
-104.049
-98.3057
-92.8229
-87.5931
-82.6084
-77.8609
-73.3425
-69.0454
-64.9618
-61.0837
-57.4035
-53.9135
-50.6062
-47.4743
-44.5105
-41.7077
-39.059
-36.5576
-34.1968
-31.9704
-29.872
-27.8957
-26.0355
-24.2857
-22.641
-21.0961
-19.6457
-18.2851
-17.0096
-15.8145
-14.6957
-13.6488
-12.67
-11.7554
-10.9014
-10.1046
-9.36163
-8.66937
-8.02484
-7.42521
-6.8678
-6.35007
-5.86961
-5.42415
-5.01154
-4.62978
-4.27696
-3.95129
-3.65112
-3.37486
-3.12107
-2.88838
-2.67553
-2.48135
-2.30475
-2.14475
-2.00042
-1.87095
-1.75556
-1.6536
-1.56445
-1.48759
-1.42255
-1.36895
-1.32645
-1.2948
-1.27381
-1.26335
-466.855
-450.934
-435.193
-419.658
-404.352
-389.296
-374.511
-360.011
-345.811
-331.926
-318.365
-305.135
-292.246
-279.706
-267.517
-255.682
-244.203
-233.08
-222.315
-211.907
-201.854
-192.152
-182.798
-173.788
-165.115
-156.776
-148.764
-141.072
-133.695
-126.625
-119.854
-113.376
-107.183
-101.266
-95.6182
-90.231
-85.0961
-80.2056
-75.5512
-71.1247
-66.9181
-62.9232
-59.1321
-55.5371
-52.1302
-48.904
-45.8509
-42.9637
-40.2352
-37.6585
-35.2266
-32.9332
-30.7716
-28.7357
-26.8195
-25.0171
-23.3229
-21.7314
-20.2373
-18.8358
-17.5218
-16.2908
-15.1382
-14.0598
-13.0515
-12.1094
-11.2297
-10.4089
-9.64355
-8.93044
-8.2665
-7.64882
-7.07462
-6.5413
-6.04637
-5.58749
-5.16247
-4.76921
-4.40576
-4.07029
-3.76107
-3.4765
-3.21506
-2.97537
-2.75611
-2.55608
-2.37416
-2.20934
-2.06067
-1.92729
-1.80843
-1.7034
-1.61157
-1.53239
-1.46539
-1.41018
-1.3664
-1.3338
-1.31217
-1.3014
-480.387
-464.005
-447.808
-431.822
-416.073
-400.581
-385.367
-370.446
-355.835
-341.548
-327.593
-313.98
-300.718
-287.814
-275.272
-263.094
-251.282
-239.837
-228.76
-218.05