/*--------------------------------*- C++ -*----------------------------------*\
| =========                 |                                                 |
| \\      /  F ield         | OpenFOAM: The Open Source CFD Toolbox           |
|  \\    /   O peration     | Version:  2406                                  |
|   \\  /    A nd           | Website:  www.openfoam.com                      |
|    \\/     M anipulation  |                                                 |
\*---------------------------------------------------------------------------*/
FoamFile
{
    version     2.0;
    format      ascii;
    arch        "LSB;label=32;scalar=64";
    class       volScalarField;
    location    "0/fluidRegion";
    object      alphat;
}
// * * * * * * * * * * * * * * * * * * * * * * * * * * * * * * * * * * * * * //

dimensions      [1 -1 -1 0 0 0 0];

internalField   nonuniform List<scalar> 
8595
(
0.581655
0.813002
0.981255
1.13179
1.25999
1.36869
1.46001
1.50875
1.52001
1.50019
1.4586
1.40126
1.34608
1.28102
1.25312
1.23215
1.26088
1.36539
1.52437
1.54923
1.54946
1.53904
1.52272
1.50359
1.4828
1.46096
1.43847
1.41565
1.39274
1.36991
1.34732
1.32505
1.3032
1.28182
1.26097
1.24068
1.22097
1.20186
1.18337
1.16548
1.14821
1.13154
1.11547
1.09998
1.08505
1.07064
1.05672
1.04324
1.03012
1.01726
1.00451
0.991668
0.978358
0.964486
0.948835
0.879585
0.656478
2.20394
2.6444
4.01821
5.49852
6.98947
8.39134
9.27383
9.83258
10.1238
10.1937
10.1128
9.91726
9.68767
9.39166
9.15754
8.83623
8.86627
9.44055
8.48273
7.14725
6.12022
5.3355
4.70439
4.18093
3.74855
3.38787
3.08304
2.82209
2.59606
2.39818
2.22334
2.06764
1.92806
1.80221
1.68822
1.58457
1.49001
1.40352
1.32424
1.25142
1.18443
1.12275
1.06589
1.01346
0.96511
0.920543
0.87953
0.841905
0.807589
0.776613
0.749192
0.725701
0.707418
0.694009
0.700678
0.917175
2.32506
2.34546
3.92936
6.18218
8.50513
10.6556
12.438
13.4934
14.1435
14.4947
14.6014
14.5419
14.3571
14.1273
13.813
13.5197
13.1004
12.8919
13.0638
11.853
10.1481
8.77307
7.67039
6.74687
5.96552
5.30415
4.74317
4.26433
3.85268
3.49621
3.18534
2.91244
2.67147
2.45757
2.26684
2.09609
1.94269
1.80448
1.67962
1.56654
1.46395
1.37068
1.28576
1.20832
1.13759
1.07292
1.0137
0.959415
0.909591
0.863822
0.82176
0.783161
0.747848
0.716284
0.687984
0.672286
0.890703
2.44534
2.36758
4.68435
7.4014
10.1201
12.4516
14.1243
15.0566
15.6507
16.0069
16.1704
16.198
16.1356
16.0142
15.7853
15.4981
15.0034
14.5044
14.1176
12.7489
10.9596
9.55767
8.42587
7.4599
6.63003
5.91579
5.30034
4.76778
4.30486
3.90059
3.54586
3.23319
2.95643
2.71054
2.49133
2.29529
2.1195
1.96147
1.8191
1.69057
1.57434
1.46905
1.37351
1.28669
1.20769
1.1357
1.07
1.00995
0.954992
0.904588
0.858252
0.815542
0.775957
0.739448
0.704677
0.678188
0.887985
2.5155
2.31421
5.01671
7.91568
10.7309
12.9444
14.2142
14.9465
15.4556
15.8022
16.0555
16.2315
16.3458
16.3917
16.3085
16.0812
15.5643
14.8257
13.8814
12.5017
10.7199
9.37682
8.30604
7.38947
6.59723
5.91103
5.3147
4.7941
4.33781
3.93638
3.58196
3.26797
2.98893
2.74025
2.51805
2.31903
2.14039
1.97973
1.83497
1.70431
1.58621
1.4793
1.38238
1.29441
1.21446
1.14173
1.07549
1.01512
0.96004
0.909752
0.863786
0.821713
0.782975
0.747385
0.712864
0.68486
0.892777
2.56583
2.21527
5.07075
7.83228
10.3939
12.1502
13.0141
13.5938
14.0414
14.4182
14.7811
15.1302
15.4497
15.702
15.8109
15.7098
15.2586
14.4291
13.0934
11.7776
10.0338
8.7641
7.77332
6.93075
6.20322
5.57395
5.02598
4.54578
4.12301
3.74938
3.41808
3.12344
2.86073
2.62593
2.41563
2.22692
2.05728
1.90453
1.76677
1.64237
1.52985
1.42797
1.33561
1.25179
1.17565
1.10644
1.04349
0.986242
0.934183
0.886888
0.843981
0.80515
0.769946
0.738308
0.707806
0.683705
0.898042
2.60686
2.13146
4.79194
6.86957
8.9839
10.1668
10.8779
11.3716
11.7906
12.213
12.684
13.1995
13.7254
14.2012
14.5352
14.6264
14.344
13.6092
12.1261
10.9115
9.2054
7.99962
7.08338
6.31364
5.6535
5.08658
4.59444
4.16343
3.78364
3.44744
3.14873
2.88252
2.64467
2.4317
2.24064
2.06894
1.9144
1.7751
1.64935
1.5357
1.43286
1.33968
1.25519
1.1785
1.10885
1.04556
0.98807
0.93587
0.888552
0.845784
0.807303
0.772941
0.742426
0.715948
0.691087
0.673469
0.900257
2.64308
2.10691
3.71145
5.3429
6.88022
7.80145
8.36994
8.77946
9.16883
9.61911
10.1669
10.8068
11.4996
12.1755
12.7349
13.0607
13.0387
12.5723
11.1917
10.0911
8.39481
7.2321
6.37597
5.66555
5.06712
4.5586
4.12013
3.73762
3.40128
3.10379
2.8395
2.60388
2.39325
2.20451
2.03507
1.88269
1.74545
1.62165
1.50983
1.40872
1.31717
1.23419
1.15893
1.0906
1.02854
0.972177
0.921014
0.874638
0.83272
0.795021
0.761384
0.731776
0.706113
0.684866
0.665861
0.655436
0.898494
2.67684
2.37877
3.10801
4.39027
5.30516
5.8187
6.1512
6.44727
6.80194
7.26507
7.85138
8.54862
9.32166
10.1111
10.8309
11.3721
11.6515
11.5701
10.4863
9.47026
7.71042
6.55552
5.73742
5.07237
4.52299
4.06271
3.66987
3.32961
3.03187
2.76941
2.53673
2.3296
2.14459
1.97891
1.83021
1.69649
1.57605
1.4674
1.36926
1.28048
1.20009
1.12721
1.06108
1.00104
0.946512
0.896996
0.852076
0.81141
0.774738
0.741893
0.712801
0.687538
0.666177
0.649451
0.635551
0.631744
0.891528
2.70937
3.419
3.58087
4.12254
4.32418
4.45664
4.64334
4.94533
5.38471
5.95141
6.6147
7.3386
8.09193
8.84626
9.56541
10.1901
10.7004
10.9912
10.2718
9.22317
7.24597
6.04575
5.2316
4.5924
4.07568
3.65005
3.29143
2.98376
2.71644
2.48204
2.27507
2.09136
1.92765
1.78128
1.65009
1.53223
1.42615
1.33051
1.24415
1.16605
1.09534
1.03124
0.973085
0.920283
0.87233
0.828794
0.789312
0.753595
0.721432
0.692698
0.66737
0.645582
0.627509
0.614077
0.603848
0.605131
0.880475
2.74592
2.82491
2.78527
2.75406
2.72142
2.68534
2.64233
2.58651
2.50486
2.36183
0.521757
0.859284
0.884967
0.904644
0.915123
0.916085
0.906428
0.888399
0.866915
0.850472
0.727365
0.562039
0.596601
0.632974
0.666141
0.690513
0.7014
0.697638
0.686177
0.693323
0.822202
0.559749
0.595543
0.636307
0.676854
0.710122
0.728674
0.727173
0.707759
0.695854
0.836403
0.571075
0.607822
0.651847
0.698026
0.738263
0.763049
0.763901
0.739308
0.71395
0.849427
0.58607
0.624187
0.671314
0.722479
0.768787
0.799061
0.802211
0.773358
0.735684
0.862182
0.605392
0.645501
0.696067
0.752161
0.804074
0.839081
0.843844
0.810672
0.761351
0.874824
0.628055
0.670735
0.725202
0.786448
0.84387
0.883183
0.888949
0.851043
0.790055
0.887652
0.653892
0.69968
0.758576
0.825369
0.888449
0.931864
0.938083
0.894768
0.821563
0.90082
0.68285
0.732257
0.796144
0.868995
0.938049
0.985538
0.991729
0.942167
0.855769
0.91444
0.715043
0.768575
0.838056
0.917571
0.993052
1.04471
1.05044
0.993642
0.892707
0.928582
0.750694
0.808873
0.884602
0.97148
1.05395
1.10997
1.11481
1.04965
0.932495
0.943299
0.790121
0.853503
0.936199
1.03124
1.12138
1.18203
1.18553
1.1107
0.975321
0.958628
0.833734
0.902926
0.993386
1.09749
1.1961
1.2617
1.26339
1.17739
1.02143
0.974599
0.882041
0.957709
1.05683
1.17103
1.279
1.34995
1.34928
1.25038
1.07111
0.991235
0.935649
1.01854
1.12733
1.2528
1.37117
1.44791
1.44424
1.33043
1.12472
1.00856
0.99529
1.08625
1.20585
1.34392
1.47387
1.55689
1.54947
1.41843
1.18265
1.02659
1.06184
1.16182
1.29353
1.44571
1.58859
1.67844
1.66638
1.51539
1.24538
1.04535
1.13633
1.24643
1.39174
1.55977
1.7171
1.81437
1.79659
1.62249
1.31345
1.06486
1.22003
1.34149
1.5021
1.68795
1.86146
1.96682
1.94204
1.74112
1.3875
1.08514
1.31444
1.44871
1.62656
1.83251
2.02418
2.13833
2.10498
1.87291
1.46829
1.10619
1.42137
1.57016
1.76754
1.99619
2.20821
2.3319
2.2881
2.0198
1.5567
1.12805
1.543
1.70831
1.92789
2.18228
2.41723
2.55117
2.49459
2.18408
1.65381
1.15073
1.68207
1.86623
2.11113
2.39478
2.6556
2.80058
2.72822
2.36848
1.7609
1.17424
1.84192
2.04774
2.32158
2.63859
2.92866
3.0855
2.99382
2.57607
1.87952
1.1986
2.02674
2.25756
2.56464
2.91977
3.24295
3.41246
3.29714
2.81103
2.01129
1.22383
2.24182
2.50165
2.84705
3.24587
3.60656
3.7895
3.64522
3.07844
2.15827
1.24992
2.49388
2.78759
3.17732
3.62629
4.02949
4.22648
4.04674
3.38452
2.32351
1.27688
2.79155
3.12505
3.56627
4.07288
4.5242
4.73564
4.51246
3.73705
2.51058
1.3047
3.14609
3.52657
4.02775
4.60062
5.10622
5.33212
5.05576
4.14587
2.72403
1.33336
3.57228
4.00851
4.57961
5.22846
5.79491
6.03467
5.69338
4.62355
2.96982
1.36279
4.08983
4.59239
5.2449
5.98039
6.6143
6.86637
6.44618
5.18633
3.2559
1.39289
4.7253
5.30669
6.05351
6.88661
7.59384
7.85532
7.34018
5.85543
3.59317
1.42347
5.51525
6.18976
7.04435
7.98508
8.76939
9.03539
8.40785
6.65917
3.9971
1.45417
6.511
7.29345
8.26805
9.32286
10.1835
10.4464
9.68931
7.63609
4.49079
1.48434
7.77922
8.68143
9.78326
10.9511
11.8796
12.1288
11.2296
8.83682
5.10928
1.51263
9.40058
10.4265
11.6507
12.9168
13.8944
14.1181
13.0765
10.3276
5.9068
1.5361
11.5971
12.7278
14.0379
15.3572
16.34
16.5128
15.3342
12.2382
7.00036
1.54853
14.9117
16.0162
17.3286
18.6158
19.5093
19.5463
18.1947
14.7938
8.68029
1.53422
17.4788
18.6958
20.1399
21.5163
22.4161
22.3585
20.8199
17.1493
10.6339
1.34503
15.9385
17.139
18.5083
19.7625
20.483
20.2113
18.5191
14.9443
9.02991
1.16692
16.6277
17.7622
18.8961
19.7648
20.0104
19.2506
17.1355
13.3563
7.68858
1.01882
17.7966
18.866
19.7389
20.1612
19.8596
18.5778
16.1155
12.2853
6.91457
0.929382
18.6982
19.6385
20.2005
20.1791
19.4
17.7413
15.0927
11.3215
6.27963
0.858094
19.1343
19.9452
20.2256
19.8421
18.7256
16.8314
14.0997
10.438
5.72524
0.794749
18.97
19.681
19.745
19.1001
17.7678
15.7577
13.0396
9.54231
5.17087
0.740045
18.1797
18.7948
18.7059
17.9405
16.5521
14.5629
11.9583
8.68377
4.67028
0.689627
16.7588
17.3545
17.252
16.499
15.165
13.2881
10.8671
7.8604
4.21684
0.640987
14.9012
15.5451
15.5057
14.8396
13.6315
11.9313
9.74691
7.04548
3.78656
0.592675
12.788
13.5148
13.5794
13.0417
12.0009
10.516
8.60062
6.22829
3.36503
0.543824
10.5684
11.3859
11.568
11.1745
10.3196
9.0685
7.43786
5.40598
2.94399
0.493928
8.36603
9.26059
9.5517
9.29903
8.63203
7.61861
6.27552
4.58458
2.52229
0.442895
6.27748
7.21784
7.59204
7.46234
6.97334
6.19056
5.128
3.77027
2.10047
0.390492
4.40322
5.33633
5.74336
5.70619
5.37525
4.80651
4.00865
2.9688
1.67908
0.336914
2.80293
3.64998
4.03127
4.0543
3.85707
3.48076
2.92828
2.18952
1.26529
0.280581
1.69822
2.31813
2.5615
2.56802
2.45349
2.22836
1.88765
1.4231
0.849468
0.222188
1.19768
0.865291
0.822657
0.848431
0.875783
0.884702
0.87077
0.828509
0.748814
0.149687
0.290408
0.271179
0.262417
0.257851
0.257759
0.262066
0.27033
0.281623
0.295154
0.309403
0.318121
0.966721
0.844271
0.761611
0.698693
0.63537
0.575933
0.526545
0.494788
0.48108
0.48667
0.509403
2.04915
1.71244
1.53014
1.41036
1.31137
1.23079
1.17182
1.14601
1.16464
1.24683
1.40696
3.11544
2.72921
2.5262
2.4037
2.31656
2.25886
2.23105
2.24714
2.33519
2.52133
2.84512
3.96666
3.6389
3.47687
3.38695
3.33187
3.30658
3.31194
3.36087
3.49015
3.71548
4.08079
4.54947
4.30391
4.20783
4.16826
4.15413
4.16133
4.19118
4.25189
4.38053
4.58042
4.8849
4.93263
4.7403
4.70279
4.71241
4.73586
4.76731
4.80739
4.85931
4.95648
5.09486
5.2974
5.1983
5.00052
4.99028
5.03299
5.08248
5.12687
5.16455
5.19711
5.24968
5.31802
5.41897
5.43364
5.15835
5.12663
5.17404
5.23218
5.27795
5.30531
5.31421
5.32267
5.32942
5.34845
5.72006
5.29992
5.18793
5.20119
5.24453
5.27871
5.2902
5.27609
5.24844
5.20946
5.17175
6.12619
5.51467
5.26277
5.19436
5.19158
5.19656
5.18502
5.14922
5.09534
5.0281
4.95976
6.73146
5.90615
5.46127
5.25637
5.16492
5.11366
5.06673
5.01018
4.94267
4.86774
4.79686
7.61727
6.58611
5.92388
5.54035
5.3187
5.18037
5.08142
5.00198
4.93208
4.86774
4.81761
8.87428
7.66573
6.7958
6.22278
5.85039
5.60501
5.43953
5.32846
5.25581
5.20675
5.18582
10.4034
9.08133
8.05604
7.32588
6.81648
6.46472
6.22517
6.06949
5.98068
5.93607
5.9362
12.038
10.6818
9.57384
8.74199
8.13194
7.69304
7.38504
7.18034
7.06426
7.01098
7.01668
13.6532
12.3376
11.221
10.3503
9.68791
9.19508
8.83818
8.59253
8.44696
8.37772
8.37735
15.1365
13.9238
12.8653
12.0173
11.3552
10.8511
10.4772
10.212
10.0469
9.96505
9.95652
16.3902
15.3294
14.3837
13.6112
12.9987
12.5268
12.1736
11.9206
11.7543
11.6739
11.6657
17.3314
16.46
15.6692
15.0143
14.4912
14.0888
13.7898
13.5782
13.4409
13.3822
13.3897
17.8905
17.2371
16.6332
16.127
15.7237
15.42
15.2028
15.0584
14.975
14.9578
14.9977
18.0041
17.5912
17.1972
16.8613
16.5987
16.4134
16.2969
16.238
16.226
16.2656
16.3512
17.614
17.4586
17.2896
17.137
17.0264
16.97
16.9642
17.0005
17.0694
17.1741
17.3125
16.6951
16.8022
16.8581
16.8865
16.9242
16.992
17.0914
17.2178
17.364
17.5307
17.7187
15.4353
15.7813
16.0372
16.2258
16.3932
16.5676
16.7558
16.9567
17.1661
17.3831
17.6098
13.9848
14.5362
14.9615
15.2867
15.564
15.8278
16.0889
16.3493
16.6074
16.8619
17.1168
12.3884
13.1089
13.6744
14.1145
14.4848
14.8234
15.1443
15.4522
15.7473
16.0286
16.3029
10.633
11.4783
12.1514
12.6836
13.1295
13.5289
13.8972
14.2413
14.5632
14.8617
15.1471
8.69978
9.60898
10.3468
10.9415
11.4416
11.8842
12.2852
12.6525
12.9896
13.2949
13.5817
6.66907
7.55057
8.28771
8.89827
9.41801
9.877
10.2886
10.6602
10.9957
11.2947
11.5693
4.67859
5.41374
6.05835
6.61478
7.10056
7.5338
7.92239
8.2709
8.58167
8.85579
9.1
2.92458
3.40299
3.85309
4.26508
4.64081
4.98554
5.30035
5.58532
5.83969
6.06217
6.25274
1.61265
1.80864
2.01534
2.21689
2.41162
2.59887
2.77705
2.94422
3.09815
3.2362
3.34909
0.845136
0.867616
0.910417
0.951789
0.993103
1.03377
1.07366
1.11249
1.15001
1.18608
1.21931
0.304329
0.326634
0.341652
0.353666
0.362941
0.370128
0.375572
0.379536
0.382214
0.383762
0.384245
2.49237
2.14794
1.84607
1.60643
1.41369
1.25714
1.1279
1.01952
0.927425
0.844214
0.766281
0.693059
0.628806
0.580798
0.546777
0.524123
0.51019
0.502449
0.498253
0.497114
0.505406
0.531576
0.582748
0.660222
0.755514
0.865728
0.990558
1.1373
1.31011
1.51225
1.74686
2.01611
2.30583
2.52639
2.66278
0.871776
0.851546
0.823661
0.793114
0.761426
0.729747
0.698916
0.669672
0.642644
0.617056
0.592785
0.570495
0.552138
0.539859
0.532581
0.528861
0.527195
0.526217
0.524821
0.522447
0.520224
0.522083
0.529867
0.544196
0.563055
0.585227
0.610009
0.638048
0.669076
0.702439
0.737326
0.77282
0.806904
0.83211
0.8482
0.595355
0.579283
0.562424
0.546271
0.531446
0.518489
0.507691
0.499178
0.492909
0.488568
0.486112
0.485549
0.486606
0.488394
0.490206
0.491582
0.492291
0.492263
0.491538
0.490203
0.488208
0.486154
0.484408
0.483271
0.482941
0.483478
0.484994
0.487748
0.492073
0.498302
0.506724
0.517549
0.530712
0.542969
0.553175
0.59172
0.573834
0.556465
0.541126
0.528124
0.517629
0.509598
0.503863
0.500155
0.498088
0.497495
0.498259
0.500051
0.502101
0.503895
0.505123
0.50565
0.505451
0.504579
0.503128
0.501137
0.499088
0.497311
0.496088
0.495516
0.495567
0.496275
0.497806
0.500408
0.504384
0.510095
0.517974
0.528426
0.539383
0.549651
0.599874
0.580743
0.563231
0.548605
0.536844
0.527876
0.521479
0.517339
0.515075
0.514282
0.514753
0.516321
0.518618
0.520903
0.522749
0.523927
0.524354
0.524037
0.523044
0.521496
0.519482
0.517344
0.515446
0.514071
0.51329
0.513058
0.513388
0.514408
0.516324
0.519404
0.523976
0.530459
0.539324
0.549311
0.559628
0.610997
0.591288
0.573992
0.56002
0.549159
0.54123
0.53592
0.532822
0.531484
0.531491
0.53262
0.534695
0.537342
0.539822
0.54174
0.542912
0.543287
0.54289
0.541798
0.540138
0.538054
0.535779
0.533717
0.53218
0.531234
0.530821
0.53094
0.531702
0.533297
0.535976
0.540057
0.545907
0.553803
0.562819
0.572811
0.626569
0.606596
0.589347
0.575612
0.565181
0.557839
0.5532
0.550776
0.550059
0.550618
0.552224
0.5547
0.557661
0.560347
0.562366
0.563564
0.563912
0.563445
0.562253
0.560468
0.558266
0.555846
0.553609
0.551913
0.550827
0.550283
0.55027
0.550894
0.552344
0.55487
0.5588
0.564514
0.572088
0.580549
0.590113
0.645703
0.62561
0.608105
0.59424
0.583906
0.576859
0.572632
0.570665
0.570397
0.571378
0.573377
0.576216
0.579498
0.582418
0.584573
0.585831
0.586175
0.585653
0.584359
0.582439
0.580077
0.577502
0.575078
0.573221
0.572005
0.571355
0.571254
0.571808
0.57321
0.575715
0.579673
0.585508
0.593165
0.601478
0.610683
0.668283
0.648004
0.629897
0.6156
0.605119
0.598158
0.59417
0.592523
0.592606
0.593943
0.596302
0.599504
0.603127
0.606314
0.60864
0.609986
0.610346
0.609775
0.608378
0.60631
0.60377
0.601008
0.598396
0.596374
0.595033
0.594293
0.594131
0.594658
0.596074
0.598647
0.602747
0.608858
0.61685
0.625349
0.63442
0.694193
0.673533
0.654512
0.639549
0.628737
0.621712
0.617846
0.616433
0.61681
0.618476
0.62119
0.624772
0.628771
0.632263
0.634794
0.636256
0.636649
0.636037
0.634535
0.63231
0.629574
0.626597
0.623786
0.621595
0.62013
0.619308
0.619104
0.619631
0.621105
0.623808
0.628137
0.634631
0.643122
0.652049
0.661255
0.723444
0.702141
0.68194
0.666121
0.654829
0.647625
0.643796
0.642564
0.643209
0.645196
0.64828
0.652272
0.656689
0.660528
0.663302
0.664908
0.665352
0.664707
0.663097
0.660703
0.657757
0.654547
0.651512
0.649147
0.647557
0.646657
0.64642
0.646971
0.648537
0.651419
0.656044
0.663009
0.672123
0.681656
0.691255
0.756131
0.733897
0.712283
0.695441
0.683544
0.676069
0.672217
0.671133
0.672038
0.674357
0.677837
0.68228
0.687165
0.691399
0.694455
0.696235
0.69675
0.696079
0.69436
0.691788
0.688614
0.685152
0.681875
0.67932
0.677601
0.676625
0.676365
0.676956
0.678641
0.681745
0.686726
0.69424
0.704084
0.714366
0.724578
0.792428
0.76897
0.745729
0.727709
0.715094
0.707271
0.703354
0.702404
0.703573
0.706247
0.710161
0.715107
0.720518
0.7252
0.728584
0.730571
0.731178
0.730491
0.728661
0.7259
0.722483
0.718747
0.71521
0.71245
0.710594
0.709542
0.709265
0.709909
0.711739
0.715104
0.720497
0.728636
0.739311
0.750469
0.761481
0.832584
0.807611
0.782534
0.763187
0.749747
0.741513
0.7375
0.73668
0.738131
0.741194
0.745592
0.751102
0.757106
0.762299
0.766061
0.768293
0.769016
0.768324
0.766383
0.763425
0.759746
0.755716
0.751896
0.748916
0.746914
0.745784
0.745495
0.746208
0.748207
0.751871
0.757732
0.766574
0.778184
0.790339
0.802314
0.876922
0.850142
0.823018
0.802192
0.787827
0.779125
0.774996
0.774314
0.776077
0.779575
0.784515
0.790662
0.797339
0.803113
0.807311
0.809832
0.810699
0.810017
0.807967
0.804801
0.800843
0.796497
0.792373
0.789156
0.786998
0.785786
0.785491
0.786286
0.788482
0.792486
0.798873
0.8085
0.821153
0.834431
0.847521
0.925835
0.896952
0.867561
0.845101
0.829711
0.820492
0.816237
0.815713
0.817828
0.821816
0.827371
0.834241
0.841684
0.848121
0.852823
0.855683
0.856728
0.856075
0.853918
0.850536
0.846283
0.841598
0.837147
0.833675
0.83135
0.830054
0.829758
0.830653
0.833074
0.837462
0.84444
0.854944
0.868759
0.883294
0.897647
0.979793
0.948498
0.916608
0.892352
0.875842
0.866062
0.86168
0.861345
0.863865
0.868414
0.874671
0.882365
0.890681
0.897877
0.903161
0.90642
0.907683
0.90708
0.904825
0.90122
0.896653
0.891605
0.886804
0.883061
0.880559
0.879177
0.878888
0.879901
0.882581
0.887404
0.895047
0.906529
0.921638
0.937579
0.953354
1.03934
1.00531
0.970675
0.944456
0.926729
0.916353
0.911856
0.911753
0.914744
0.919941
0.927003
0.93564
0.944955
0.953023
0.95898
0.962707
0.964238
0.963714
0.96137
0.957538
0.952641
0.947208
0.942033
0.938001
0.935312
0.933845
0.933573
0.934728
0.937708
0.943027
0.951419
0.963994
0.980545
0.998062
1.01543
1.10512
1.06801
1.03036
1.002
0.982966
0.971968
0.967379
0.967568
0.971116
0.977064
0.985054
0.994775
1.00524
1.01431
1.02105
1.02532
1.02718
1.02677
1.02435
1.02029
1.01505
1.00921
1.00364
0.999303
0.996421
0.994871
0.994632
0.99596
0.999288
1.00517
1.01441
1.02822
1.04638
1.06567
1.08485
1.17785
1.1373
1.09635
1.06567
1.04524
1.03361
1.02897
1.02953
1.03374
1.04056
1.04963
1.0606
1.07239
1.08261
1.09026
1.09519
1.09744
1.09719
1.09472
1.09043
1.08484
1.07857
1.07258
1.06792
1.06484
1.06322
1.06303
1.06457
1.06831
1.07485
1.08506
1.10025
1.12021
1.14149
1.16274
1.25839
1.21399
1.16943
1.13627
1.11436
1.1021
1.09747
1.09851
1.10351
1.11137
1.12168
1.1341
1.14741
1.15898
1.16768
1.17337
1.17611
1.17608
1.17359
1.16908
1.16312
1.1564
1.14998
1.145
1.14172
1.14004
1.13993
1.14174
1.14596
1.15326
1.16457
1.18134
1.20332
1.22687
1.25049
1.34769
1.29901
1.25055
1.21471
1.19127
1.1784
1.17388
1.17553
1.18149
1.19056
1.20234
1.21645
1.23153
1.24464
1.25458
1.26118
1.2645
1.26475
1.26228
1.25757
1.25124
1.24407
1.2372
1.23188
1.22842
1.2267
1.22672
1.22885
1.23365
1.24185
1.25444
1.273
1.29728
1.32338
1.34973
1.44689
1.39347
1.34077
1.3021
1.27708
1.26368
1.25939
1.26183
1.26895
1.27947
1.29297
1.30904
1.32618
1.34109
1.35247
1.36014
1.36417
1.36479
1.36239
1.3575
1.35081
1.34318
1.33586
1.33022
1.32659
1.32486
1.32507
1.32761
1.33312
1.34237
1.35645
1.37707
1.40396
1.43298
1.46245
1.55727
1.49864
1.44138
1.39972
1.37314
1.3593
1.35544
1.3589
1.36744
1.37969
1.39521
1.41358
1.43312
1.45014
1.4632
1.47214
1.47703
1.47813
1.47586
1.47083
1.4638
1.45571
1.44794
1.442
1.43823
1.43655
1.43702
1.44009
1.44646
1.45696
1.4728
1.49581
1.52568
1.55805
1.59111
1.68034
1.616
1.55387
1.50913
1.48104
1.46695
1.46377
1.46855
1.47883
1.49316
1.51108
1.53215
1.5545
1.57397
1.58902
1.59946
1.60538
1.60708
1.60504
1.59991
1.59256
1.58404
1.57585
1.56964
1.56579
1.56424
1.56507
1.56883
1.57625
1.58828
1.6062
1.632
1.6653
1.70153
1.73877
1.81791
1.74736
1.68007
1.63221
1.60276
1.58869
1.58653
1.59302
1.60546
1.62229
1.64307
1.66734
1.69298
1.71533
1.7327
1.74491
1.75208
1.75454
1.75282
1.74768
1.74005
1.73112
1.72256
1.71614
1.71228
1.71097
1.71233
1.71696
1.7257
1.73958
1.76
1.78911
1.8264
1.86709
1.90922
1.97211
1.89486
1.82222
1.77129
1.74073
1.72708
1.72642
1.73513
1.75024
1.77011
1.79431
1.82237
1.8519
1.87762
1.89773
1.91204
1.9207
1.92409
1.92283
1.91775
1.90991
1.90064
1.89177
1.88523
1.8815
1.88057
1.88265
1.88843
1.89884
1.915
1.93844
1.97149
2.01346
2.05937
2.10724
2.14554
2.06118
1.98307
1.92928
1.89805
1.88538
1.88686
1.89847
1.91692
1.9405
1.96881
2.00137
2.03549
2.06519
2.08852
2.10531
2.11575
2.1203
2.11964
2.11473
2.10676
2.09723
2.08816
2.08163
2.07818
2.07786
2.08094
2.08821
2.10074
2.11974
2.14688
2.18468
2.2322
2.28425
2.33891
2.34147
2.24969
2.16617
2.10994
2.07871
2.06783
2.07232
2.08769
2.11034
2.13848
2.17177
2.20971
2.24928
2.28366
2.31079
2.33051
2.34308
2.34903
2.34914
2.34451
2.33652
2.32683
2.31771
2.31138
2.30845
2.30902
2.31346
2.32271
2.33794
2.36052
2.39224
2.43583
2.48997
2.54932
2.61207
2.56409
2.46477
2.37617
2.31824
2.288
2.28004
2.28871
2.30901
2.33696
2.37073
2.41008
2.4545
2.50057
2.5405
2.57212
2.59529
2.61037
2.61798
2.61905
2.61484
2.60692
2.59721
2.58822
2.58234
2.58024
2.58209
2.58838
2.60023
2.61896
2.64606
2.68352
2.73424
2.79639
2.86448
2.93694
2.81895
2.7123
2.61936
2.56092
2.53313
2.52968
2.54412
2.57089
2.60558
2.64637
2.69315
2.74542
2.79928
2.84583
2.88274
2.90998
2.928
2.93757
2.93977
2.93608
2.92833
2.91873
2.91009
2.90498
2.90412
2.90776
2.91657
2.93185
2.9551
2.98798
3.03266
3.09224
3.16419
3.24284
3.32703
3.11371
3.00046
2.9045
2.8474
2.8242
2.82748
2.84988
2.88519
2.92854
2.97818
3.03416
3.09603
3.15932
3.21379
3.257
3.28901
3.31044
3.32224
3.3257
3.32257
3.31502
3.30563
3.29757
3.29359
3.29448
3.30058
3.31276
3.33255
3.36166
3.40196
3.4558
3.5265
3.61051
3.70203
3.80049
3.45943
3.3411
3.24436
3.19143
3.17595
3.18911
3.22253
3.26924
3.32387
3.38478
3.45233
3.52612
3.60098
3.66505
3.71576
3.75337
3.77869
3.7929
3.79761
3.79491
3.7874
3.77815
3.7708
3.76834
3.77158
3.78095
3.79756
3.82324
3.85993
3.90972
3.97521
4.05991
4.15889
4.2662
4.38207
3.87311
3.75245
3.65863
3.61427
3.61117
3.63887
3.68774
3.74994
3.81956
3.89519
3.97764
4.06659
4.15596
4.23188
4.29166
4.3358
4.36541
4.382
4.38757
4.38471
4.37659
4.36694
4.36007
4.35927
4.36537
4.37885
4.4011
4.43429
4.48063
4.54248
4.62271
4.72499
4.8426
4.96928
5.10641
4.38123
4.26299
4.1783
4.1496
4.16626
4.21569
4.28683
4.37073
4.46091
4.5564
4.65865
4.76749
4.87567
4.96669
5.03767
5.08946
5.12359
5.14205
5.1474
5.1429
5.13252
5.12092
5.1134
5.11379
5.12284
5.141
5.16996
5.21227
5.27048
5.34724
5.44573
5.56981
5.71032
5.86063
6.02346
5.0209
4.91256
4.84761
4.84649
4.89513
4.97817
5.08272
5.19837
5.31792
5.44111
5.57044
5.70604
5.83923
5.95013
6.03531
6.09612
6.13467
6.15364
6.15639
6.14717
6.1311
6.1142
6.10356
6.10401
6.11564
6.13864
6.17489
6.22745
6.29935
6.39361
6.51377
6.66394
6.8322
7.01074
7.20343
5.85657
5.77059
5.74587
5.79446
5.89758
6.03597
6.19428
6.35961
6.5243
6.68968
6.86008
7.03586
7.20555
7.34372
7.44662
7.51657
7.55666
7.5706
7.563
7.53955
7.50714
7.47389
7.45026
7.44364
7.45271
7.47683
7.51741
7.5782
7.66282
7.77476
7.91791
8.09681
8.29733
8.50874
8.73448
7.12497
7.11485
7.19906
7.36483
7.59007
7.84716
8.11584
8.37837
8.63036
8.88136
9.13928
9.40199
9.64582
9.82803
9.95142
10.0221
10.0456
10.0277
9.97536
9.89676
9.80164
9.7012
9.61032
9.54345
9.50475
9.49335
9.50943
9.55459
9.63142
9.74343
9.89484
10.0891
10.3065
10.5414
10.8029
9.48406
9.73161
10.1847
10.7604
11.4036
12.0729
12.7307
13.3113
13.8302
14.311
14.776
15.2287
15.6354
15.9264
16.0911
16.14
16.0847
15.9367
15.7082
15.4134
15.0699
14.7015
14.3545
14.0763
13.858
13.6875
13.5536
13.459
13.4107
13.4151
13.4783
13.6075
13.7922
14.0035
14.2336
10.7385
11.21
12.0278
13.0411
14.1454
15.2588
16.3041
17.2279
18.0402
18.7728
19.4531
20.0793
20.6031
20.9426
21.0973
21.0828
20.9121
20.5972
20.1518
19.5942
18.9505
18.2617
17.6124
17.092
16.6869
16.3714
16.1211
15.935
15.8202
15.7835
15.8308
15.9686
16.1865
16.4425
16.7151
11.2379
11.658
12.4982
13.6105
14.853
16.0828
17.1918
18.1631
18.9955
19.7201
20.3612
20.9087
21.303
21.4653
21.4075
21.1521
20.7163
20.1145
19.365
18.4948
17.5459
16.585
15.7336
15.0953
14.6347
14.3087
14.0827
13.9484
13.9039
13.9462
14.0718
14.2792
14.5431
14.827
15.1208
10.7779
11.1679
12.0429
13.2422
14.5825
15.8841
17.0461
18.0452
18.8808
19.5869
20.1888
20.675
20.9858
21.0462
20.868
20.472
19.8762
19.0995
18.1702
17.1329
16.0572
15.0436
14.2383
13.7285
13.4437
13.319
13.3122
13.4082
13.5959
13.8634
14.2004
14.5982
15.0063
15.3836
15.7323
10.2387
10.6846
11.6727
12.9886
14.4038
15.7448
16.9133
17.8919
18.6887
19.343
19.8808
20.2887
20.5045
20.4577
20.1632
19.6417
18.9122
17.9985
16.9414
15.8085
14.7019
13.7546
13.1188
12.84
12.8058
12.931
13.1696
13.5041
13.918
14.3954
14.9228
15.4872
16.0179
16.4686
16.8553
9.72963
10.3198
11.5028
12.981
14.4865
15.8595
17.0359
17.9935
18.7519
19.3569
19.8348
20.1699
20.2986
20.1533
19.7515
19.1131
18.2582
17.2163
16.0434
14.8324
13.7182
12.861
12.408
12.3554
12.5471
12.8803
13.3089
13.8178
14.3894
15.0067
15.6544
16.3163
16.9092
17.3866
17.777
9.20324
9.97996
11.3888
13.0399
14.6412
16.0462
17.2109
18.1443
18.8726
19.4418
19.8746
20.1532
20.2131
19.9867
19.4943
18.7554
17.7905
16.6344
15.3581
14.0775
12.9556
12.1734
11.8668
11.9866
12.338
12.807
13.3519
13.9636
14.6271
15.3257
16.0429
16.7594
17.3835
17.8678
18.25
8.66159
9.62867
11.2621
13.0822
14.779
16.2242
17.3957
18.3182
19.0259
19.5662
19.965
20.2041
20.216
19.9289
19.3658
18.5453
17.4871
16.228
14.8524
13.4922
12.3309
11.5647
11.3216
11.5205
11.9401
12.4603
13.0447
13.6909
14.3878
15.1197
15.8694
16.6144
17.2555
17.7412
18.115
8.08199
9.21179
11.0538
13.0407
14.84
16.3385
17.5338
18.4637
19.1697
19.7007
20.0826
20.2953
20.2709
19.9428
19.3305
18.4489
17.316
15.9643
14.4924
13.0361
11.7899
10.9617
10.6808
10.8562
11.2542
11.7491
12.3063
12.9284
13.6082
14.333
15.0852
15.8396
16.4895
16.9764
17.3454
7.44231
8.68547
10.7182
12.8791
14.797
16.368
17.607
18.564
19.2866
19.8264
20.2094
20.4146
20.3725
20.0156
19.3636
18.4308
17.2368
15.8197
14.2587
12.6935
11.3216
10.3582
9.94402
10.0029
10.3038
10.7105
11.1832
11.725
12.3338
13.0019
13.7143
14.4448
15.0855
15.5718
15.9443
6.73592
8.02728
10.2338
12.5828
14.6401
16.3045
17.6072
18.6099
19.3666
19.9315
20.3321
20.5469
20.505
20.1374
19.464
18.4988
17.2597
15.7806
14.1345
12.4542
10.9328
9.78843
9.17641
9.05136
9.19931
9.47108
9.81463
10.2273
10.7121
11.2713
11.9001
12.5777
13.1994
13.6873
14.0698
5.98203
7.24606
9.60616
12.1578
14.3737
16.1496
17.533
18.5977
19.4034
20.0075
20.4397
20.6781
20.6505
20.2861
19.6059
18.6251
17.3606
15.8414
14.1304
12.3464
10.6697
9.3166
8.46308
8.1113
8.07621
8.19297
8.39099
8.65423
8.98496
9.39548
9.89673
10.4829
11.0609
11.5395
11.929
5.22443
6.38444
8.87
11.6308
14.0157
15.9138
17.3897
18.5284
19.3946
20.0491
20.5234
20.7958
20.7922
20.44
19.7627
18.7786
17.5051
15.9671
14.2162
12.3535
10.5399
8.9836
7.87935
7.28347
7.05268
7.01097
7.06716
7.18458
7.35452
7.59079
7.92107
8.3651
8.85933
9.30532
9.68975
4.51452
5.5083
8.08497
11.048
13.5978
15.6181
17.191
18.4105
19.3446
20.0566
20.5802
20.8931
20.9188
20.5831
19.9133
18.9326
17.661
16.1211
14.3549
12.4451
10.5299
8.8014
7.46471
6.6275
6.1987
6.00242
5.93175
5.92727
5.95878
6.02521
6.1587
6.40803
6.76329
7.13848
7.4953
3.88071
4.68113
7.32451
10.4687
13.1618
15.2927
16.9595
18.2611
19.266
20.0389
20.6151
20.9713
21.0279
20.7092
20.0472
19.0717
17.8071
16.2759
14.5135
12.5868
10.6105
8.75483
7.22351
6.16429
5.54163
5.19335
5.00857
4.9117
4.84871
4.78764
4.73943
4.76375
4.91951
5.17017
5.46324
3.29347
3.93576
6.65882
9.95125
12.7503
14.9715
16.7238
18.1045
19.1792
20.0127
20.6412
21.0402
21.1263
20.8224
20.1663
19.1946
17.9372
16.419
14.6719
12.7508
10.7496
8.81455
7.13749
5.8902
5.08591
4.58519
4.28688
4.11374
3.99933
3.87877
3.7178
3.5468
3.46958
3.53776
3.71805
2.64731
3.27012
6.13617
9.53077
12.3918
14.6824
16.5111
17.966
19.1067
19.9979
20.676
21.1149
21.2278
20.9363
20.2836
19.3132
18.061
16.5555
14.8279
12.9254
10.9254
8.95162
7.1786
5.78725
4.82523
4.17481
3.7517
3.49119
3.33708
3.21206
3.03466
2.76674
2.48844
2.33916
2.34795
1.83152
2.69045
5.76195
9.19616
12.0866
14.4358
16.3355
17.8602
19.0629
20.0078
20.732
21.2084
21.3469
21.0679
20.4191
19.45
18.2016
16.7068
14.9982
13.1187
11.134
9.14881
7.32014
5.82979
4.74552
3.96192
3.40657
3.02935
2.80242
2.67405
2.55374
2.3307
1.97474
1.6592
1.49533
0.923658
2.2581
5.50568
8.91945
11.8282
14.2325
16.1984
17.7872
19.0469
20.042
20.8108
21.3254
21.4938
21.2346
20.5976
19.6359
18.3946
16.9106
15.2189
13.361
11.3948
9.4104
7.5497
5.99432
4.82499
3.9395
3.2651
2.75288
2.39625
2.18902
2.09643
2.01917
1.77953
1.40811
1.09788
0.393296
2.39704
5.39534
7.75474
9.29605
10.1794
10.5608
10.5543
10.2387
9.6506
8.75229
7.46405
5.75599
3.8805
2.25757
1.24329
0.83605
0.73265
0.728233
0.76029
0.811835
0.874177
0.940099
1.00224
1.06082
1.11811
1.17311
1.22141
1.26082
1.29888
1.3609
1.46387
1.48053
1.17834
0.28852
0.395392
2.54703
5.68004
8.08129
9.61303
10.4598
10.7901
10.7243
10.3446
9.68761
8.71591
7.35607
5.59603
3.70143
2.11221
1.16408
0.80565
0.723919
0.726969