/*--------------------------------*- C++ -*----------------------------------*\
| =========                 |                                                 |
| \\      /  F ield         | OpenFOAM: The Open Source CFD Toolbox           |
|  \\    /   O peration     | Version:  2406                                  |
|   \\  /    A nd           | Website:  www.openfoam.com                      |
|    \\/     M anipulation  |                                                 |
\*---------------------------------------------------------------------------*/
FoamFile
{
    version     2.0;
    format      ascii;
    arch        "LSB;label=32;scalar=64";
    class       surfaceScalarField;
    location    "0/fluidRegion";
    object      alphaPhi;
}
// * * * * * * * * * * * * * * * * * * * * * * * * * * * * * * * * * * * * * //

dimensions      [0 3 -1 0 0 0 0];

oriented        oriented;

internalField   nonuniform List<scalar> 
16957
(
-0.000428479
0.000428479
-0.000890784
0.000462305
-0.0012056
0.000314811
-0.00143326
0.000227666
-0.00156142
0.000128162
-0.00155939
-2.03618e-06
-0.00143446
-0.00012493
-0.00122875
-0.000205703
-0.000979571
-0.000249183
-0.00071885
-0.000260721
-0.000468965
-0.000249885
-0.000244701
-0.000224265
-3.963e-05
-0.000205071
0.000127714
-0.000167344
0.00028956
-0.000161846
0.000461998
-0.000172438
0.000742451
-0.000280453
0.00147093
-0.000728474
0.00183653
-0.000365606
0.00194529
-0.000108762
0.00199508
-4.97909e-05
0.00201548
-2.03947e-05
0.00201836
-2.88074e-06
0.0020131
5.26023e-06
0.00200452
8.5837e-06
0.001995
9.51594e-06
0.0019858
9.20055e-06
0.00197754
8.26113e-06
0.00197048
7.06275e-06
0.00196466
5.81691e-06
0.00196002
4.63685e-06
0.00195644
3.57842e-06
0.00195378
2.66513e-06
0.00195188
1.90216e-06
0.00195059
1.28488e-06
0.00194979
8.04438e-07
0.00194933
4.51777e-07
0.00194911
2.20405e-07
0.00194901
1.06037e-07
0.0019489
1.11792e-07
0.00194864
2.51717e-07
0.00194809
5.50789e-07
0.00194704
1.05261e-06
0.00194521
1.82909e-06
0.00194222
2.9935e-06
0.0019375
4.72212e-06
0.00193021
7.28841e-06
0.00191909
1.11163e-05
0.00190223
1.68665e-05
0.00187666
2.55619e-05
0.00183779
3.88687e-05
0.00177872
5.90737e-05
0.00168627
9.24499e-05
0.00155054
0.000135734
0.0012538
0.000296735
0.000641241
0.000612561
0.000641241
-0.000338281
0.000766761
-0.000713456
0.00083748
-0.000966141
0.000567495
-0.00114562
0.000407142
-0.00123287
0.000215419
-0.00120013
-3.4777e-05
-0.0010577
-0.000267364
-0.000846106
-0.000417296
-0.000600927
-0.000494362
-0.000350208
-0.00051144
-0.000112771
-0.000487321
9.77998e-05
-0.000434836
0.000277486
-0.000384757
0.000432645
-0.000322503
0.000587022
-0.000316224
0.00077425
-0.000359665
0.00105848
-0.000564684
0.00159587
-0.00126587
0.00184972
-0.000619455
0.00197221
-0.000231253
0.00202302
-0.000100602
0.00204732
-4.469e-05
0.00205611
-1.16675e-05
0.00205612
5.24379e-06
0.00205208
1.2631e-05
0.00204651
1.50851e-05
0.00204071
1.49963e-05
0.00203536
1.36098e-05
0.00203078
1.16475e-05
0.00202706
9.53539e-06
0.00202419
7.50533e-06
0.00202209
5.67451e-06
0.00202066
4.09525e-06
0.00201978
2.78282e-06
0.00201934
1.73251e-06
0.00201921
9.30515e-07
0.0020193
3.62366e-07
0.0020195
1.71957e-08
0.00201972
-1.10144e-07
0.00201984
-1.08356e-08
0.00201975
3.43309e-07
0.0020193
1.00358e-06
0.00201829
2.05801e-06
0.00201647
3.65017e-06
0.00201346
6.00532e-06
0.00200871
9.47344e-06
0.0020014
1.45966e-05
0.0019903
2.22141e-05
0.00197353
3.36337e-05
0.00194822
5.08767e-05
0.00190987
7.72175e-05
0.00185176
0.000117187
0.0017623
0.000181912
0.00162945
0.000268579
0.00141793
0.000508251
0.000782939
0.00124756
0.00142418
-0.000248843
0.0010156
-0.000528745
0.00111738
-0.000718687
0.000757438
-0.000850403
0.000538858
-0.000894812
0.000259828
-0.000827691
-0.000101898
-0.000666808
-0.000428247
-0.000451665
-0.000632439
-0.000215764
-0.000730263
1.79996e-05
-0.000745204
0.000231102
-0.000700424
0.000413863
-0.000617596
0.000569766
-0.000540661
0.000710128
-0.000462865
0.00085202
-0.000458115
0.00103088
-0.000538527
0.00129441
-0.000828215
0.00170265
-0.0016741
0.00187777
-0.000794576
0.00198514
-0.000338622
0.00202709
-0.000142557
0.00204694
-6.45396e-05
0.00205495
-1.96754e-05
0.00205531
4.88155e-06
0.002052
1.59421e-05
0.00204732
1.97668e-05
0.0020424
1.99187e-05
0.00203783
1.81766e-05
0.00203391
1.55679e-05
0.00203073
1.27106e-05
0.00202829
9.94518e-06
0.00202652
7.44535e-06
0.00202533
5.2905e-06
0.0020246
3.5059e-06
0.00202425
2.08738e-06
0.00202416
1.01738e-06
0.00202425
2.76526e-07
0.00202441
-1.49603e-07
0.00202457
-2.65883e-07
0.00202462
-5.75671e-08
0.00202444
5.16524e-07
0.00202392
1.5324e-06
0.00202285
3.12052e-06
0.00202101
5.49144e-06
0.00201804
8.97504e-06
0.00201343
1.40832e-05
0.00200642
2.1608e-05
0.00199586
3.27752e-05
0.00198
4.94931e-05
0.00195617
7.47086e-05
0.0019202
0.000113182
0.00186591
0.000171484
0.00178308
0.000264735
0.00166128
0.000390385
0.00148635
0.000683183
0.000849627
0.00188428
0.00227381
-0.000162972
0.00117858
-0.000344953
0.00129936
-0.000466071
0.000878555
-0.000537387
0.000610174
-0.000518132
0.000240573
-0.000397243
-0.000222788
-0.000209585
-0.000615905
1.09647e-05
-0.000852989
0.000233981
-0.000953279
0.000438578
-0.000949801
0.000619231
-0.000881077
0.000773724
-0.000772089
0.00090376
-0.000670697
0.00102222
-0.000581326
0.00114271
-0.0005786
0.00129608
-0.000691901
0.00151314
-0.00104528
0.00180698
-0.00196794
0.00192496
-0.000912554
0.00200677
-0.000420439
0.00203737
-0.000173149
0.0020505
-7.7672e-05
0.00205494
-2.41143e-05
0.00205336
6.4591e-06
0.00204896
2.03416e-05
0.00204366
2.50621e-05
0.00203839
2.51961e-05
0.00203361
2.29591e-05
0.00202954
1.96329e-05
0.00202625
1.59979e-05
0.00202371
1.24859e-05
0.00202184
9.31707e-06
0.00202054
6.59185e-06
0.0020197
4.34182e-06
0.00201923
2.5613e-06
0.00201902
1.22793e-06
0.00201898
3.16142e-07
0.00201902
-1.93056e-07
0.00201906
-3.03038e-07
0.002019
5.55145e-09
0.00201873
7.84133e-07
0.00201813
2.13238e-06
0.00201703
4.22017e-06
0.0020152
7.31979e-06
0.00201232
1.18576e-05
0.00200791
1.84948e-05
0.00200126
2.82532e-05
0.00199132
4.2713e-05
0.00197649
6.43317e-05
0.00195429
9.6901e-05
0.00192095
0.000146529
0.00187078
0.000221655
0.00179468
0.000340826
0.00168282
0.000502251
0.00152286
0.000843145
0.000885273
0.00252186
0.00315908
-8.14103e-05
0.00125999
-0.000161669
0.00137962
-0.000204479
0.000921365
-0.000194151
0.000599846
-8.09736e-05
0.000127396
0.00011309
-0.000416851
0.00032998
-0.000832795
0.000545839
-0.00106885
0.000745947
-0.00115339
0.000921
-0.00112485
0.00106811
-0.00102818
0.00118966
-0.000893643
0.00128839
-0.000769421
0.00137743
-0.000670373
0.00146747
-0.000668634
0.00158223
-0.000806662
0.00173652
-0.00119957
0.00191734
-0.00214876
0.00198559
-0.000980811
0.00203704
-0.00047188
0.00205394
-0.000190058
0.00205895
-8.26723e-05
0.00205821
-2.33832e-05
0.0020535
1.11764e-05
0.00204715
2.66894e-05
0.00204058
3.16353e-05
0.00203443
3.13467e-05
0.00202902
2.83619e-05
0.0020245
2.41601e-05
0.00202085
1.96478e-05
0.00201801
1.53249e-05
0.00201588
1.14444e-05
0.00201435
8.11924e-06
0.00201331
5.382e-06
0.00201265
3.22203e-06
0.00201227
1.60997e-06
0.00201207
5.12735e-07
0.00201197
-9.45369e-08
0.00201189
-2.14854e-07
0.00201172
1.74599e-07
0.00201137
1.13368e-06
0.00201072
2.78352e-06
0.00200961
5.32961e-06
0.00200783
9.1001e-06
0.00200507
1.4609e-05
0.00200092
2.26525e-05
0.00199471
3.44601e-05
0.00198549
5.19306e-05
0.00197181
7.80143e-05
0.00195145
0.000117259
0.001921
0.000176976
0.00187535
0.000267311
0.00180621
0.000409967
0.00170388
0.000604581
0.00155061
0.000996415
0.000911278
0.00316119
0.00407036
-6.50163e-06
0.00126649
2.12809e-05
0.00135184
7.58631e-05
0.000866783
0.000210518
0.000465192
0.000445136
-0.000107222
0.000706083
-0.000677799
0.00094365
-0.00107036
0.00115188
-0.00127708
0.00132693
-0.00132844
0.00146819
-0.00126611
0.00157725
-0.00113724
0.00166006
-0.000976453
0.0017212
-0.000830558
0.00177339
-0.000722564
0.00182425
-0.000719501
0.0018898
-0.000872212
0.00196922
-0.00127898
0.00203329
-0.00221283
0.00205418
-0.00100171
0.00207289
-0.000490587
0.00207499
-0.000192156
0.00207127
-7.89505e-05
0.00206453
-1.66483e-05
0.00205603
1.96804e-05
0.00204725
3.54686e-05
0.002039
3.98856e-05
0.00203165
3.86987e-05
0.00202536
3.46519e-05
0.00202015
2.93678e-05
0.00201596
2.38391e-05
0.00201267
1.86087e-05
0.00201017
1.39473e-05
0.00200832
9.97059e-06
0.00200699
6.70597e-06
0.00200608
4.13375e-06
0.00200548
2.21453e-06
0.00200508
9.06241e-07
0.00200481
1.77215e-07
0.00200458
2.13439e-08
0.00200429
4.63466e-07
0.00200385
1.57171e-06
0.00200315
3.48476e-06
0.00200204
6.43874e-06
0.00200033
1.08111e-05
0.00199774
1.71931e-05
0.0019939
2.64994e-05
0.00198822
4.01416e-05
0.00197985
6.02965e-05
0.00196752
9.03433e-05
0.00194929
0.000135486
0.00192217
0.000204096
0.00188164
0.000307845
0.00182006
0.000471545
0.00172783
0.000696811
0.00157922
0.00114503
0.00093805
0.00380236
0.00500841
6.66757e-05
0.00119981
0.000217662
0.00120085
0.000410671
0.000673773
0.00072223
0.000153633
0.00108478
-0.00046977
0.00139253
-0.000985548
0.0016392
-0.00131703
0.00183028
-0.00146816
0.00197246
-0.00147062
0.00207286
-0.00136651
0.00213784
-0.00120223
0.00217601
-0.00101463
0.00219351
-0.000848053
0.00220199
-0.000731045
0.00220564
-0.000723156
0.00221323
-0.000879797
0.0022083
-0.00127405
0.00215183
-0.00215636
0.00212682
-0.00097669
0.00211125
-0.000475017
0.00209843
-0.000179343
0.00208589
-6.64063e-05
0.00207272
-3.47365e-06
0.00206009
3.23018e-05
0.00204864
4.69254e-05
0.0020385
5.00235e-05
0.00202977
4.74239e-05
0.00202246
4.19685e-05
0.00201645
3.53706e-05
0.00201163
2.86672e-05
0.00200782
2.24175e-05
0.00200487
1.68934e-05
0.00200264
1.22034e-05
0.00200098
8.36272e-06
0.00199978
5.33824e-06
0.00199891
3.0773e-06
0.00199829
1.52675e-06
0.00199782
6.46826e-07
0.00199742
4.25727e-07
0.001997
8.88091e-07
0.00199646
2.10904e-06
0.0019957
4.24107e-06
0.0019946
7.54547e-06
0.00199296
1.24415e-05
0.00199057
1.95854e-05
0.00198708
2.99924e-05
0.00198199
4.52269e-05
0.00197459
6.76983e-05
0.00196379
0.000101142
0.00194797
0.000151308
0.00192461
0.000227459
0.00188988
0.000342572
0.00183681
0.000524611
0.00175636
0.000777266
0.001614
0.00128739
0.000972285
0.00444407
0.00598069
0.000154201
0.00104561
0.000485942
0.000869113
0.000918871
0.000240845
0.00142757
-0.000355067
0.00186319
-0.000905392
0.00218469
-0.00130704
0.00241275
-0.0015451
0.00256678
-0.00162219
0.00266264
-0.00156648
0.00271326
-0.00141713
0.00272834
-0.00121731
0.00271755
-0.00100383
0.00268726
-0.000817765
0.00264715
-0.000690928
0.00259734
-0.000673352
0.00254053
-0.000822988
0.00244448
-0.00117799
0.00226746
-0.00197935
0.00219991
-0.000909137
0.00214864
-0.000423744
0.00212201
-0.000152719
0.00210104
-4.54367e-05
0.00208139
1.61786e-05
0.00206458
4.91171e-05
0.00205037
6.11279e-05
0.00203829
6.21029e-05
0.00202816
5.75602e-05
0.00201979
5.03384e-05
0.00201297
4.21882e-05
0.00200749
3.41477e-05
0.00200314
2.67642e-05
0.00199974
2.02944e-05
0.00199712
1.48284e-05
0.00199512
1.03626e-05
0.00199361
6.84526e-06
0.00199248
4.20754e-06
0.00199162
2.38275e-06
0.00199095
1.32104e-06
0.00199037
1.00337e-06
0.00198981
1.45213e-06
0.00198917
2.74649e-06
0.00198836
5.04912e-06
0.00198727
8.64098e-06
0.00198573
1.39745e-05
0.00198356
2.17581e-05
0.00198047
3.30869e-05
0.00197605
4.96464e-05
0.00196972
7.40287e-05
0.00196061
0.000110247
0.00194745
0.00016447
0.00192824
0.000246666
0.0019
0.000370812
0.00185658
0.000568034
0.00179051
0.000843333
0.00165823
0.00141967
0.00101882
0.00508348
0.00699951
0.000358811
0.0006868
0.00108999
0.000137937
0.00181742
-0.000486587
0.00239272
-0.000930365
0.0027938
-0.00130648
0.0030609
-0.00157414
0.00322498
-0.00170918
0.00331305
-0.00171026
0.00334598
-0.00159941
0.00333897
-0.00141012
0.00330196
-0.0011803
0.00324297
-0.000944841
0.00316623
-0.000741027
0.00307786
-0.000602559
0.00297305
-0.000568543
0.0028504
-0.000700336
0.00266148
-0.000989081
0.00237204
-0.0016899
0.00227009
-0.000807187
0.00218085
-0.000334507
0.00214315
-0.000115012
0.00211442
-1.67051e-05
0.00208866
4.19379e-05
0.002068
6.97731e-05
0.00205128
7.78519e-05
0.00203742
7.59581e-05
0.002026
6.89816e-05
0.00201667
5.96649e-05
0.00200912
4.97448e-05
0.00200304
4.02194e-05
0.00199821
3.15991e-05
0.00199439
2.41092e-05
0.00199141
1.78117e-05
0.0019891
1.26768e-05
0.00198731
8.63044e-06
0.00198594
5.58427e-06
0.00198486
3.45592e-06
0.001984
2.18353e-06
0.00198326
1.73929e-06
0.00198257
2.14126e-06
0.00198185
3.46966e-06
0.00198101
5.89353e-06
0.00197994
9.70761e-06
0.00197853
1.53885e-05
0.0019766
2.36831e-05
0.00197394
3.57451e-05
0.00197024
5.33477e-05
0.00196506
7.92129e-05
0.00195776
0.000117548
0.00194742
0.000174802
0.00193265
0.000261437
0.00191145
0.000392014
0.00187879
0.000600692
0.0018307
0.000891426
0.00171502
0.00153535
0.00108322
0.00571528
0.00808273
0.00139367
-0.000706869
0.00245931
-0.000927709
0.00311431
-0.00114158
0.00352989
-0.00134595
0.00378237
-0.00155895
0.0039179
-0.00170968
0.00396953
-0.00176081
0.00396456
-0.00170528
0.00392291
-0.00155776
0.00385739
-0.0013446
0.0037745
-0.0010974
0.00367754
-0.000847881
0.00356584
-0.000629331
0.00343967
-0.000476384
0.00328872
-0.00041759
0.00310807
-0.000519691
0.00283998
-0.000720989
0.00245879
-0.00130872
0.00232878
-0.000677168
0.00220661
-0.000212344
0.00216041
-6.88099e-05
0.00212361
2.00914e-05
0.0020924
7.31499e-05
0.00206845
9.37226e-05
0.0020496
9.67028e-05
0.00203434
9.12182e-05
0.00202197
8.13505e-05
0.00201198
6.96575e-05
0.00200393
5.77936e-05
0.00199748
4.66744e-05
0.00199233
3.67477e-05
0.00198824
2.8192e-05
0.00198503
2.1031e-05
0.0019825
1.52032e-05
0.00198052
1.06079e-05
0.00197897
7.13497e-06
0.00197774
4.68459e-06
0.00197674
3.18135e-06
0.0019759
2.5873e-06
0.00197512
2.91432e-06
0.00197435
4.24081e-06
0.00197351
6.7382e-06
0.00197251
1.07089e-05
0.00197125
1.66442e-05
0.00196962
2.53147e-05
0.00196745
3.79095e-05
0.00196455
5.62539e-05
0.00196062
8.31427e-05
0.00195528
0.000122886
0.00194802
0.000182065
0.00193807
0.000271387
0.00192459
0.000405495
0.00190409
0.000621191
0.0018786
0.000916912
0.00178722
0.00162674
0.00118631
0.00631618
0.00926905
-0.00723625
-0.00145467
0.00869092
-0.00601929
-0.00121697
-0.00495536
-0.00106393
-0.00400239
-0.000952966
-0.00313487
-0.000867528
-0.00233838
-0.000796485
-0.00160908
-0.000729305
-0.00095507
-0.000654006
-0.000401501
-0.000553569
-0.000401501
-0.0049132
-0.00206487
0.0055234
-0.00427244
-0.00185773
-0.00364381
-0.00169255
-0.00303946
-0.00155731
-0.00246383
-0.00144316
-0.00191754
-0.00134278
-0.00139866
-0.00124818
-0.00090402
-0.00114865
-0.000432676
-0.00102491
-0.000834177
-0.00123288
-0.00214558
0.00131359
-0.00112505
-0.00196556
-0.00100432
-0.00181329
-0.000880711
-0.00168092
-0.000758882
-0.00156499
-0.000639866
-0.00146179
-0.000520159
-0.00136789
-0.000389902
-0.00127891
-0.000228876
-0.00118594
-0.00106305
-0.000658044
-0.00214673
0.000659199
-0.00062503
-0.00199857
-0.000571902
-0.00186642
-0.00050595
-0.00174687
-0.00043183
-0.00163911
-0.000352232
-0.00154139
-0.000268285
-0.00145184
-0.000180082
-0.00136711
-8.76944e-05
-0.00127833
-0.00115075
-0.000407454
-0.00214993
0.000410649
-0.000388053
-0.00201797
-0.000356965
-0.0018975
-0.000317231
-0.00178661
-0.000271404
-0.00168494
-0.000221335
-0.00159146
-0.000168248
-0.00150492
-0.00011281
-0.00142255
-5.56131e-05
-0.00133552
-0.00120636
-0.00024095
-0.00214991
0.00024093
-0.00023098
-0.00202794
-0.000213473
-0.00191501
-0.000190141
-0.00180994
-0.000162621
-0.00171246
-0.000132239
-0.00162184
-0.000100028
-0.00153713
-6.66406e-05
-0.00145594
-3.25589e-05
-0.0013696
-0.00123892
-0.000143495
-0.00214945
0.000143032
-0.000137973
-0.00203346
-0.000127841
-0.00192514
-0.000114064
-0.00182372
-9.76278e-05
-0.00172889
-7.93657e-05
-0.0016401
-5.99674e-05
-0.00155653
-3.98827e-05
-0.00147602
-1.94473e-05
-0.00139004
-0.00125837
-8.40455e-05
-0.0021486
8.31968e-05
-8.12142e-05
-0.00203629
-7.5513e-05
-0.00193084
-6.75245e-05
-0.0018317
-5.7857e-05
-0.00173856
-4.7033e-05
-0.00165093
-3.55008e-05
-0.00156806
-2.35653e-05
-0.00148796
-1.14557e-05
-0.00140215
-0.00126982
-4.84386e-05
-0.0021476
4.744e-05
-4.71465e-05
-0.00203759
-4.40539e-05
-0.00193394
-3.95201e-05
-0.00183624
-3.39213e-05
-0.00174416
-2.75835e-05
-0.00165726
-2.07947e-05
-0.00157485
-1.37657e-05
-0.00149499
-6.66369e-06
-0.00140925
-0.00127649
-2.73167e-05
-0.00214659
2.6305e-05
-2.6884e-05
-0.00203802
-2.53089e-05
-0.00193551
-2.28149e-05
-0.00183873
-1.96359e-05
-0.00174734
-1.59766e-05
-0.00166092
-1.20234e-05
-0.00157881
-7.92742e-06
-0.00149908
-3.81492e-06
-0.00141336
-0.0012803
-1.50736e-05
-0.00214566
1.41433e-05
-1.5081e-05
-0.00203801
-1.43548e-05
-0.00193624
-1.30339e-05
-0.00184005
-1.12641e-05
-0.00174911
-9.17446e-06
-0.00166301
-6.88771e-06
-0.00158109
-4.51645e-06
-0.00150145
-2.15741e-06
-0.00141572
-0.00128246
-8.21567e-06
-0.00214486
7.4166e-06
-8.41539e-06
-0.00203781
-8.13674e-06
-0.00193652
-7.46537e-06
-0.00184072
-6.49224e-06
-0.00175008
-5.29928e-06
-0.00166421
-3.96879e-06
-0.00158242
-2.58756e-06
-0.00150283
-1.22854e-06
-0.00141708
-0.00128369
-4.57568e-06
-0.0021442
3.9233e-06
-4.82984e-06
-0.00203756
-4.76533e-06
-0.00193658
-4.43408e-06
-0.00184106
-3.89268e-06
-0.00175062
-3.19341e-06
-0.00166491
-2.39264e-06
-0.00158322
-1.55881e-06
-0.00150367
-7.4372e-07
-0.0014179
-0.00128443
-2.80054e-06
-0.00214369
2.28514e-06
-3.04235e-06
-0.00203732
-3.06497e-06
-0.00193656
-2.89898e-06
-0.00184122
-2.57928e-06
-0.00175094
-2.13922e-06
-0.00166535
-1.61811e-06
-0.00158374
-1.07028e-06
-0.00150422
-5.27201e-07
-0.00141844
-0.00128496
-2.04206e-06
-0.00214328
1.63673e-06
-2.25024e-06
-0.00203711
-2.30056e-06
-0.00193651
-2.20989e-06
-0.00184131
-1.99921e-06
-0.00175115
-1.68957e-06
-0.00166566
-1.30843e-06
-0.00158413
-8.98374e-07
-0.00150463
-4.70062e-07
-0.00141887
-0.00128543
-1.76175e-06
-0.00214295
1.42789e-06
-1.94463e-06
-0.00203693
-2.00666e-06
-0.00193645
-1.9557e-06
-0.00184136
-1.8035e-06
-0.00175131
-1.56263e-06
-0.0016659
-1.25182e-06
-0.00158444
-9.02833e-07
-0.00150497
-5.04287e-07
-0.00141927
-0.00128593
-1.60577e-06
-0.00214264
1.2956e-06
-1.79233e-06
-0.00203674
-1.87956e-06
-0.00193636
-1.86901e-06
-0.00184137
-1.76578e-06
-0.00175141
-1.5762e-06
-0.00166609
-1.31181e-06
-0.0015847
-9.93747e-07
-0.00150529
-5.86605e-07
-0.00141967
-0.00128652
-1.32519e-06
-0.0021423
9.82214e-07
-1.56095e-06
-0.0020365
-1.709e-06
-0.00193621
-1.76582e-06
-0.00184132
-1.73118e-06
-0.00175144
-1.60629e-06
-0.00166621
-1.39613e-06
-0.00158491
-1.11081e-06
-0.00150558
-6.88368e-07
-0.0014201
-0.00128721
-7.32304e-07
-0.00214186
2.91031e-07
-1.0754e-06
-0.00203616
-1.33646e-06
-0.00193595
-1.50798e-06
-0.00184115
-1.58423e-06
-0.00175137
-1.56107e-06
-0.00166623
-1.437e-06
-0.00158504
-1.21022e-06
-0.0015058
-7.89158e-07
-0.00142052
-0.001288
3.32445e-07
-0.00214124
-9.48974e-07
-1.89253e-07
-0.00203564
-6.30252e-07
-0.00193551
-9.79958e-07
-0.0018408
-1.22744e-06
-0.00175112
-1.36318e-06
-0.0016661
-1.37779e-06
-0.00158502
-1.25581e-06
-0.00150593
-8.72481e-07
-0.0014209
-0.00128887
2.04558e-06
-0.00214035
-2.93087e-06
1.25233e-06
-0.00203484
5.42311e-07
-0.0019348
-6.9246e-08
-0.00184018
-5.67364e-07
-0.00175062
-9.37921e-07
-0.00166573
-1.16347e-06
-0.0015848
-1.21276e-06
-0.00150588
-9.22725e-07
-0.00142119
-0.00128979
4.61176e-06
-0.00213909
-5.87596e-06
3.43425e-06
-0.00203367
2.34208e-06
-0.00193371
1.35643e-06
-0.0018392
5.0061e-07
-0.00174977
-2.04395e-07
-0.00166502
-7.34388e-07
-0.00158427
-1.04268e-06
-0.00150557
-9.2279e-07
-0.00142131
-0.00129071
8.26816e-06
-0.00213731
-1.00424e-05
6.5719e-06
-0.00203197
4.96079e-06
-0.00193209
3.46261e-06
-0.0018377
2.1119e-06
-0.00174842
9.39961e-07
-0.00166385
-1.8153e-08
-0.00158331
-6.99414e-07
-0.00150489
-8.51693e-07
-0.00142116
-0.00129157
1.33168e-05
-0.00213487
-1.57625e-05
1.09337e-05
-0.00202959
8.63328e-06
-0.00192979
6.45206e-06
-0.00183552
4.43661e-06
-0.0017464
2.6303e-06
-0.00166204
1.08243e-06
-0.00158176
-1.23401e-07
-0.00150368
-6.82619e-07
-0.0014206
-0.00129225
2.01502e-05
-0.00213155
-2.34652e-05
1.68711e-05
-0.00202631
1.36663e-05
-0.00192659
1.05843e-05
-0.00183244
7.68808e-06
-0.0017435
5.03637e-06
-0.00165939
2.69409e-06
-0.00157942
7.68063e-07
-0.00150176
-3.80474e-07
-0.00141945
-0.00129263
2.92813e-05
-0.00212713
-3.371e-05
2.48445e-05
-0.00202187
2.04642e-05
-0.00192221
1.62044e-05
-0.00182818
1.215e-05
-0.00173945
8.38013e-06
-0.00165562
4.9802e-06
-0.00157602
2.08373e-06
-0.00149886
1.0538e-07
-0.00141747
-0.00129252
4.13869e-05
-0.00212128
-4.72325e-05
3.54636e-05
-0.00201595
2.95634e-05
-0.00191631
2.37719e-05
-0.00182239
1.82024e-05
-0.00173388
1.29615e-05
-0.00165038
8.1605e-06
-0.00157122
3.96626e-06
-0.00149467
8.53471e-07
-0.00141436
-0.00129167
5.73676e-05
-0.00211364
-6.50081e-05
4.95418e-05
-0.00200812
4.16816e-05
-0.00190845
3.39026e-05
-0.00181461
2.63557e-05
-0.00172633
1.91836e-05
-0.00164321
1.25318e-05
-0.00156456
6.60768e-06
-0.00148874
1.95848e-06
-0.00140971
-0.00128971
7.84294e-05
-0.00210373
-8.83384e-05
6.8172e-05
-0.00199787
5.77858e-05
-0.00189806
4.74288e-05
-0.00180425
3.7301e-05
-0.0017162
2.7594e-05
-0.0016335
1.84978e-05
-0.00155547
1.02702e-05
-0.00148051
3.54075e-06
-0.00140298
-0.00128617
0.000106198
-0.00209096
-0.00011897
9.28342e-05
-0.0019845
7.9191e-05
-0.00188442
6.54857e-05
-0.00179054
5.19838e-05
-0.0017027
3.89431e-05
-0.00162046
2.66131e-05
-0.00154314
1.53157e-05
-0.00146922
5.77514e-06
-0.00139344
-0.0012804
0.000142886
-0.00207458
-0.000159261
0.000125556
-0.00196717
0.000107709
-0.00186657
8.96461e-05
-0.00177248
7.17196e-05
-0.00168478
5.42778e-05
-0.00160302
3.7653e-05
-0.00152651
2.22507e-05
-0.00145381
8.90713e-06
-0.0013801
-0.00127149
0.000191551
-0.00205367
-0.000212464
0.000169147
-0.00194477
0.000145856
-0.00184328
0.000122099
-0.00174872
9.83482e-05
-0.00166103
7.50736e-05
-0.00157975
5.27197e-05
-0.00150416
3.1803e-05
-0.0014329
1.32933e-05
-0.00136159
-0.0012582
0.000256382
-0.00202699
-0.000283058
0.000227438
-0.00191582
0.000197062
-0.0018129
0.000165838
-0.0017175
0.000134393
-0.00162958
0.000103358
-0.00154871
7.33311e-05
-0.00147413
4.4976e-05
-0.00140454
1.94255e-05
-0.00133604
-0.00123877
0.000342897
-0.0019932
-0.000376692
0.000305748
-0.00187868
0.000266278
-0.00177343
0.000225277
-0.0016765
0.000183585
-0.00158789
0.000142079
-0.0015072
0.000101607
-0.00143366
6.30857e-05
-0.00136602
2.78982e-05
-0.00130085
-0.00121087
0.00045946
-0.00195154
-0.000501118
0.000412525
-0.00183174
0.000361557
-0.00172247
0.000307743
-0.00162269
0.000252295
-0.00153244
0.000196462
-0.00145137
0.000141484
-0.00137868
8.86963e-05
-0.00131323
3.99194e-05
-0.00125207
-0.00117095
0.0006205
-0.00189807
-0.000673968
0.000559048
-0.00177029
0.000492102
-0.00165552
0.000421307
-0.00155189
0.00034806
-0.00145919
0.000273761
-0.00137707
0.000199803
-0.00130472
0.000127642
-0.00124107
5.91383e-05
-0.00118357
-0.00111181
0.000832678
-0.0018208
-0.000909951
0.000751002
-0.00168861
0.000664118
-0.00156864
0.000572152
-0.00145992
0.000476234
-0.00136328
0.000377927
-0.00127877
0.000279021
-0.00120582
0.000181344
-0.00114339
8.64637e-05
-0.00108869
-0.00102535
0.00110964
-0.001779
-0.00115145
0.00103623
-0.0016152
0.000937081
-0.00146949
0.000819675
-0.00134252
0.000688481
-0.00123208
0.000547135
-0.00113742
0.000399687
-0.00105837
0.000251911
-0.000995619
0.000112583
-0.000949361
-0.000912768
0.00168663
-0.00164061
-0.00182502
0.00154373
-0.00147229
0.00139648
-0.00132224
0.00124268
-0.00118872
0.00108056
-0.00106996
0.000907354
-0.000964213
0.000719031
-0.000870047
0.000509661
-0.000786248
0.000270537
-0.000710237
-0.000642231
0.00396546
-0.00140612
-0.00419995
0.00368322
-0.00119005
0.00336063
-0.000999658
0.00300216
-0.00083024
0.0026108
-0.000678608
0.00218708
-0.00054049
0.00172795
-0.000410913
0.00122391
-0.000282215
0.000659403
-0.000145729
1.71723e-05
0.00306903
-0.00120008
-0.00327508
0.00282115
-0.000942166
0.00253942
-0.000717927
0.00223105
-0.000521869
0.00190081
-0.00034837
0.00155028
-0.00018996
0.00118081
-4.14443e-05
0.000797631
0.000100967
0.000405843
0.000246059
0.000423015
0.00225601
-0.000981199
-0.00247489
0.002018
-0.000704158
0.00176429
-0.000464214
0.00149739
-0.000254972
0.00121933
-7.03094e-05
0.000936945
9.24231e-05
0.000660467
0.000235034
0.000401984
0.000359449
0.000174291
0.000473753
0.000597306
0.00151934
-0.000792275
-0.00170826
0.00132402
-0.000508841
0.00112489
-0.000265079
0.000924204
-5.42883e-05
0.000727397
0.000126498
0.000542477
0.000277343
0.0003751
0.000402411
0.000226513
0.000508036
9.84331e-05
0.000601833
0.000695739
0.000923407
-0.000635267
-0.00108042
0.00077046
-0.000355894
0.000625599
-0.000120217
0.000492794
7.85163e-05
0.000376353
0.000242939
0.000275296
0.000378401
0.000187313
0.000490394
0.000111402
0.000583947
4.75748e-05
0.00066566
0.000743314
0.000463742
-0.0005175
-0.00058151
0.000357269
-0.000249421
0.00026518
-2.8128e-05
0.000189408
0.000154289
0.000129134
0.000303213
8.20477e-05
0.000425487
4.62132e-05
0.000526228
2.03477e-05
0.000609812
4.04977e-06
0.000681958
0.000747364
0.000133705
-0.000431288
-0.000219916
6.39787e-05
-0.000179695
1.28811e-05
2.29695e-05
-2.07642e-05
0.000187934
-4.05469e-05
0.000322995
-4.91739e-05
0.000434114
-4.86239e-05
0.000525678
-4.02473e-05
0.000601436
-2.46077e-05
0.000666319
0.000722756
-8.52391e-05
-0.000370046
2.39967e-05
-0.000126865
-0.000138069
-0.000149525
4.56305e-05
-0.000156022
0.00019443
-0.00014994
0.000316914
-0.000134015
0.000418188
-0.00011017
0.000501834
-7.97314e-05
0.000570997
-4.32927e-05
0.00062988
0.000679463
-0.000208705
-0.00032807
0.000166729
-0.000231453
-0.000115321
-0.000237244
5.14211e-05
-0.000229069
0.000186256
-0.000209479
0.000297324
-0.000180625
0.000389333
-0.000144263
0.000465472
-0.000101725
0.00052846
-5.37134e-05
0.000581868
0.00062575
-0.000273098
-0.000297697
0.000242726
-0.000286333
-0.000102086
-0.00028393
4.90183e-05
-0.00026826
0.000170586
-0.000241581
0.000270645
-0.000205889
0.000353641
-0.000162868
0.000422451
-0.000113825
0.000479416
-5.94994e-05
0.000527543
0.000566251
-0.000308355
-0.000274101
0.000284759
-0.000315887
-9.45539e-05
-0.000308478
4.16089e-05
-0.000288362
0.00015047
-0.000257695
0.000239978
-0.000218357
0.000314304
-0.000171935
0.000376029
-0.000119664
0.000427145
-6.22704e-05
0.000470149
0.00050398
-0.000326859
-0.00025328
0.000306038
-0.000331646
-8.97667e-05
-0.000321546
3.15091e-05
-0.000298919
0.000127843
-0.000265998
0.000207057
-0.000224662
0.000272967
-0.00017645
0.000327817
-0.000122536
0.000373232
-6.36255e-05
0.000411238
0.000440355
-0.000338346
-0.000232133
0.000317198
-0.000342186
-8.59265e-05
-0.000330479
1.98015e-05
-0.000306142
0.000103506
-0.000271639
0.000172554
-0.00022889
0.000230218
-0.00017942
0.000278347
-0.000124372
0.000318184
-6.44645e-05
0.00035133
0.00037589
-0.00034569
-0.000208339
0.000321896
-0.000350013
-8.16026e-05
-0.000337846
7.63461e-06
-0.000312713
7.83722e-05
-0.000277292
0.000137133
-0.000233549
0.000186476
-0.000183016
0.000227813
-0.000126805
0.000261973
-6.56848e-05
0.00029021
0.000310205
-0.000357564
-0.000178124
0.000327349
-0.000364876
-7.42906e-05
-0.000353798
-3.44336e-06
-0.000328606
5.31804e-05
-0.000292221
0.000100748
-0.000246671
0.000140925
-0.000193591
0.000174733
-0.000134198
0.000202581
-6.95106e-05
0.000225522
0.000240695
-0.000363961
-0.000140724
0.000326561
-0.000374391
-6.38606e-05
-0.000364932
-1.29017e-05
-0.000340713
2.89606e-05
-0.000304592
6.46282e-05
-0.00025839
9.47234e-05
-0.000203624
0.000119967
-0.000141419
0.000140376
-7.29667e-05
0.000157069
0.000167728
-0.000412894
-6.35825e-05
0.000335753
-0.000446542
-3.02134e-05
-0.000450514
-8.92928e-06
-0.000430954
9.40073e-06
-0.000391781
2.54554e-05
-0.000336207
3.91491e-05
-0.0002669
5.06596e-05
-0.000186275
5.97517e-05
-9.58948e-05
6.66891e-05
7.18334e-05
-0.000283796
0.000220214
-0.00031401
-0.000322939
-0.000313538
-0.000288083
-0.000248934
-0.000198274
-0.000138523
-7.18334e-05
-0.000920169
-0.000300567
0.00122074
-0.000767418
-0.000152751
-0.000685225
-8.2193e-05
-0.000635068
-5.01568e-05
-0.000607459
-2.76096e-05
-0.000598548
-8.91064e-06
-0.000606513
7.96473e-06
-0.000632479
2.59667e-05
-0.000682428
4.99484e-05
-0.000742483
6.00554e-05
0.000226296
-0.000968779
-0.00118311
-0.000569507
0.00145205
-0.00102935
-0.000306517
-0.0009404
-0.000171141
-0.000885555
-0.000105002
-0.000854358
-5.88069e-05
-0.000841771
-2.14972e-05
-0.000846045
1.22386e-05
-0.000869008
4.89294e-05
-0.00091321
9.41505e-05
-0.000979571
0.000126417
0.000401955
-0.00115523
-0.00155919
-0.000831169
0.00182085
-0.00139457
-0.000471141
-0.00129155
-0.000274159
-0.00122672
-0.000169828
-0.00118844
-9.70938e-05
-0.00117063
-3.9306e-05
-0.00117126
1.28719e-05
-0.00119176
6.94264e-05
-0.00123253
0.000134922
-0.00130711
0.000200999
0.000547574
-0.00145273
-0.00199087
-0.00107694
0.00223664
-0.00181782
-0.000644184
-0.00170051
-0.000391477
-0.0016242
-0.000246133
-0.00157748
-0.000143814
-0.00155394
-6.28505e-05
-0.00155124
1.01741e-05
-0.00156956
8.77488e-05
-0.00160852
0.000173878
-0.00168727
0.000279751
0.000658512
-0.00179821
-0.0020285
-0.00126162
0.00221318
-0.00188167
-0.000791018
-0.00177482
-0.000498328
-0.00170251
-0.000318439
-0.00165674
-0.000189585
-0.00163238
-8.72105e-05
-0.00162719
4.98618e-06
-0.00164026
0.000100816
-0.00167187
0.000205484
-0.0017357
0.000343584
0.000720462
-0.00179765
-0.00205117
-0.00140292
0.00219247
-0.00192639
-0.000915796
-0.00182992
-0.000594801
-0.00176216
-0.0003862
-0.001718
-0.000233741
-0.00169351
-0.000111702
-0.0016865
-2.02131e-06
-0.00169549
0.000109805
-0.00172089
0.000230887
-0.00176974
0.00039243
0.000752904
-0.00180218
-0.00207225
-0.00151242
0.00218174
-0.00196617
-0.00102188
-0.00187957
-0.000681394
-0.00181654
-0.00044923
-0.00177431
-0.000275969
-0.00174999
-0.000136024
-0.00174147
-1.05412e-05
-0.00174701
0.000115339
-0.00176669
0.000250568
-0.00180235
0.000428092
0.000766989
-0.00181643
-0.00208803
-0.00159722
0.00217283
-0.00199851
-0.0011114
-0.00192157
-0.000758329
-0.00186354
-0.00050726
-0.00182354
-0.000315972
-0.0017996
-0.00015996
-0.00178983
-2.03155e-05
-0.00179235
0.000117862