/*--------------------------------*- C++ -*----------------------------------*\
| =========                 |                                                 |
| \\      /  F ield         | OpenFOAM: The Open Source CFD Toolbox           |
|  \\    /   O peration     | Version:  2406                                  |
|   \\  /    A nd           | Website:  www.openfoam.com                      |
|    \\/     M anipulation  |                                                 |
\*---------------------------------------------------------------------------*/
FoamFile
{
    version     2.0;
    format      ascii;
    arch        "LSB;label=32;scalar=64";
    class       surfaceScalarField;
    location    "0/fluidRegion";
    object      alphaRhoPhi;
}
// * * * * * * * * * * * * * * * * * * * * * * * * * * * * * * * * * * * * * //

dimensions      [1 0 -1 0 0 0 0];

oriented        oriented;

internalField   nonuniform List<scalar> 
16957
(
-1.76748
1.76748
-3.67449
1.90701
-4.97308
1.29859
-5.9122
0.939121
-6.44087
0.528667
-6.43247
-0.00839925
-5.91713
-0.515335
-5.06861
-0.848524
-4.04073
-1.02788
-2.96526
-1.07547
-1.93448
-1.03078
-1.00939
-0.925091
-0.163474
-0.845917
0.526821
-0.690295
1.19444
-0.667616
1.90574
-0.711305
3.06261
-1.15687
6.06757
-3.00496
7.57569
-1.50812
8.02433
-0.448643
8.22972
-0.205387
8.31385
-0.0841282
8.32573
-0.0118831
8.30403
0.0216984
8.26863
0.0354078
8.22937
0.0392533
8.19142
0.0379523
8.15734
0.0340771
8.12821
0.0291338
8.10422
0.0239947
8.08509
0.019127
8.07033
0.014761
8.05933
0.0109937
8.05149
0.0078464
8.04619
0.00530015
8.04287
0.00331831
8.04101
0.00186358
8.0401
0.000909169
8.03966
0.000437402
8.0392
0.000461143
8.03816
0.00103833
8.03589
0.002272
8.03155
0.00434201
8.024
0.00754501
8.01165
0.0123482
7.99217
0.0194788
7.96211
0.0300647
7.91625
0.0458546
7.84668
0.0695744
7.74124
0.105443
7.5809
0.160333
7.33723
0.243679
6.95587
0.381356
6.39597
0.559904
5.17193
1.22403
2.64512
2.52681
2.64512
-1.39541
3.16289
-2.94301
3.45461
-3.98533
2.34092
-4.72567
1.67946
-5.08561
0.888601
-4.95055
-0.143455
-4.36301
-1.10288
-3.49019
-1.72135
-2.47883
-2.03924
-1.44461
-2.10969
-0.465182
-2.0102
0.403424
-1.7937
1.14463
-1.58712
1.78466
-1.33033
2.42147
-1.30442
3.19378
-1.48362
4.36623
-2.32932
6.58298
-5.22171
7.63011
-2.55525
8.13538
-0.953919
8.34498
-0.414982
8.4452
-0.184346
8.48144
-0.0481285
8.48151
0.0216307
8.46481
0.0521029
8.44184
0.0622262
8.41793
0.0618598
8.39587
0.0561403
8.37696
0.048046
8.36162
0.0393335
8.34979
0.0309595
8.34114
0.0234074
8.33524
0.0168929
8.33161
0.0114791
8.32976
0.00714661
8.32924
0.00383837
8.32961
0.00149476
8.33045
7.09321e-05
8.33134
-0.000454344
8.33185
-4.46968e-05
8.33147
0.00141615
8.3296
0.00413975
8.32545
0.00848931
8.31794
0.0150569
8.30552
0.024772
8.28592
0.0390779
8.25577
0.0602108
8.20999
0.0916333
8.14083
0.138739
8.03641
0.209867
7.87822
0.318522
7.6385
0.483396
7.26947
0.750387
6.72148
1.10789
5.84898
2.09654
3.22962
5.14617
5.87474
-1.02648
4.18937
-2.18107
4.6092
-2.96459
3.12443
-3.50791
2.22279
-3.6911
1.07179
-3.41423
-0.420331
-2.75058
-1.76652
-1.86312
-2.60881
-0.890026
-3.01233
0.0742481
-3.07397
0.953297
-2.88925
1.70718
-2.54758
2.35029
-2.23023
2.92928
-1.90932
3.51458
-1.88972
4.25239
-2.22142
5.33945
-3.41639
7.02341
-6.90567
7.74579
-3.27763
8.18868
-1.39681
8.36175
-0.588048
8.44363
-0.266226
8.47666
-0.081161
8.47816
0.0201364
8.4645
0.0657613
8.44519
0.0815381
8.42488
0.0821648
8.40604
0.0749784
8.38987
0.0642177
8.37677
0.0524314
8.36671
0.0410239
8.3594
0.0307121
8.35447
0.0218233
8.35149
0.0144618
8.35003
0.00861045
8.34967
0.0041967
8.35002
0.00114067
8.35071
-0.000617113
8.35135
-0.00109677
8.35155
-0.000237464
8.35083
0.00213066
8.34865
0.00632116
8.34427
0.0128721
8.33667
0.0226522
8.32442
0.037022
8.30541
0.0580932
8.27649
0.089133
8.23292
0.135198
8.1675
0.204159
8.06919
0.308173
7.92084
0.466875
7.69687
0.707373
7.35522
1.09203
6.85277
1.61034
6.13118
2.81813
3.50471
7.77264
9.37945
-0.672259
4.86163
-1.42293
5.35987
-1.92254
3.62404
-2.21672
2.51697
-2.1373
0.992365
-1.63863
-0.918999
-0.864538
-2.54061
0.0452294
-3.51858
0.965172
-3.93228
1.80913
-3.91793
2.55433
-3.63444
3.19161
-3.18487
3.72801
-2.76663
4.21666
-2.39797
4.71366
-2.38672
5.34633
-2.85409
6.24171
-4.31176
7.45379
-8.11775
7.94045
-3.76429
8.27794
-1.73431
8.40413
-0.714239
8.45831
-0.320397
8.47662
-0.0994715
8.47011
0.0266438
8.45196
0.0839092
8.43012
0.103381
8.40835
0.103934
8.38862
0.0947063
8.37185
0.0809856
8.35829
0.0659912
8.34781
0.0515042
8.34009
0.0384329
8.33472
0.0271914
8.33128
0.01791
8.32932
0.0105654
8.32845
0.00506522
8.32829
0.00130409
8.32847
-0.000796358
8.32862
-0.00125003
8.32836
2.28997e-05
8.32726
0.00323455
8.32478
0.00879607
8.32025
0.0174082
8.3127
0.0301941
8.30081
0.0489127
8.28262
0.076291
8.2552
0.116545
8.21421
0.176191
8.153
0.265368
8.06146
0.399717
7.9239
0.60443
7.71695
0.914328
7.40307
1.40591
6.94162
2.07179
6.28178
3.47797
3.65175
10.4027
13.0312
-0.335818
5.19744
-0.666885
5.69094
-0.843475
3.80063
-0.800874
2.47437
-0.334016
0.525507
0.466495
-1.71951
1.36117
-3.43528
2.25158
-4.409
3.07703
-4.75773
3.79912
-4.64002
4.40594
-4.24126
4.90735
-3.68628
5.31459
-3.17386
5.68191
-2.76529
6.0533
-2.75812
6.52669
-3.32748
7.16313
-4.94821
7.90902
-8.86363
8.19058
-4.04584
8.40277
-1.9465
8.47252
-0.78399
8.49315
-0.341023
8.49013
-0.0964556
8.47067
0.0461025
8.44449
0.110094
8.41738
0.130495
8.392
0.129305
8.36972
0.116993
8.35104
0.0996603
8.33599
0.081047
8.32428
0.0632151
8.3155
0.0472082
8.3092
0.0334919
8.30491
0.0222007
8.30218
0.0132909
8.30061
0.00664114
8.2998
0.00211503
8.29939
-0.000389965
8.29903
-0.000886274
8.29833
0.00072022
8.29689
0.00467644
8.2942
0.011482
8.28963
0.0219846
8.28228
0.0375379
8.27093
0.0602621
8.25378
0.0934415
8.22818
0.142148
8.19016
0.214214
8.13371
0.321809
8.04974
0.483691
7.92414
0.730026
7.73581
1.10266
7.4506
1.69111
7.02849
2.4939
6.39626
4.11021
3.75902
13.0399
16.7902
-0.0268192
5.22426
0.0877838
5.57634
0.312935
3.57548
0.868385
1.91892
1.83618
-0.442292
2.91259
-2.79592
3.89255
-4.41524
4.75151
-5.26795
5.4736
-5.47982
6.05628
-5.2227
6.50616
-4.69113
6.84774
-4.02787
7.09994
-3.42605
7.31523
-2.98058
7.52505
-2.96794
7.79544
-3.59787
8.12303
-5.2758
8.38731
-9.12791
8.4735
-4.13204
8.55067
-2.02367
8.55932
-0.792645
8.54397
-0.325671
8.51619
-0.0686742
8.48111
0.0811817
8.4449
0.146308
8.41086
0.164528
8.38054
0.159632
8.35459
0.142939
8.33311
0.121142
8.31582
0.0983361
8.30227
0.076761
8.29195
0.0575326
8.28431
0.0411287
8.27885
0.0276621
8.27509
0.0170517
8.2726
0.00913492
8.27097
0.00373824
8.26985
0.000731012
8.26888
8.80435e-05
8.26769
0.0019118
8.26588
0.00648331
8.26299
0.0143746
8.25841
0.0265598
8.25135
0.044596
8.24069
0.0709213
8.22483
0.10931
8.20139
0.165584
8.16688
0.248723
8.11602
0.372666
8.04083
0.558881
7.92896
0.841895
7.76176
1.26986
7.50776
1.94512
7.12731
2.87434
6.51428
4.72324
3.86946
15.6847
20.6597
0.275037
4.94922
0.897854
4.95352
1.69402
2.77931
2.9792
0.633735
4.47471
-1.9378
5.74417
-4.06538
6.7617
-5.43276
7.5499
-6.05615
8.1364
-6.06632
8.55054
-5.63684
8.81859
-4.95918
8.97606
-4.18533
9.04822
-3.49822
9.08321
-3.01556
9.09828
-2.98302
9.12957
-3.62916
9.10924
-5.25546
8.87632
-8.89499
8.77312
-4.02884
8.7089
-1.95944
8.65604
-0.73979
8.6043
-0.273926
8.54995
-0.0143288
8.49789
0.133245
8.45063
0.193567
8.40881
0.206347
8.37282
0.195624
8.34264
0.17312
8.31788
0.145904
8.29796
0.118252
8.28225
0.0924721
8.2701
0.0696852
8.26089
0.0503388
8.25405
0.0344962
8.24908
0.0220202
8.24552
0.0126939
8.24296
0.00629784
8.24103
0.00266816
8.23936
0.00175613
8.23761
0.00366337
8.23539
0.0086998
8.23227
0.0174944
8.22771
0.0311251
8.22098
0.0513211
8.21111
0.0807898
8.1967
0.123719
8.17573
0.186561
8.14519
0.279255
8.10065
0.417212
8.03538
0.624146
7.93901
0.938268
7.79576
1.41311
7.57686
2.16402
7.24498
3.20622
6.65775
5.31047
4.01068
18.3318
24.6704
0.636079
4.31315
2.00451
3.58509
3.79034
0.993484
5.88873
-1.46465
7.68567
-3.73474
9.01184
-5.39156
9.95261
-6.37353
10.588
-6.69152
10.9834
-6.46173
11.1922
-5.84567
11.2544
-5.02139
11.2099
-4.14081
11.085
-3.37328
10.9195
-2.85008
10.714
-2.77758
10.4797
-3.39482
10.0835
-4.85922
9.35328
-8.16481
9.07463
-3.75019
8.86313
-1.74794
8.7533
-0.629966
8.6668
-0.187427
8.58574
0.0667368
8.51638
0.202608
8.45779
0.252153
8.40796
0.256174
8.36615
0.237436
8.33163
0.207646
8.3035
0.174026
8.2809
0.140859
8.26297
0.110402
8.24894
0.0837142
8.23811
0.0611673
8.22986
0.0427456
8.22364
0.0282367
8.21898
0.0173561
8.21545
0.00982884
8.21267
0.00544927
8.21029
0.0041389
8.20796
0.00599005
8.20533
0.0113293
8.202
0.0208276
8.19748
0.035644
8.19115
0.0576447
8.18219
0.089752
8.16943
0.136483
8.1512
0.204791
8.12508
0.305368
8.08753
0.45477
8.03323
0.678437
7.95401
1.0175
7.83752
1.5296
7.6584
2.34314
7.38587
3.47875
6.84018
5.85616
4.20264
20.9693
28.873
1.48009
2.83305
4.4962
0.568989
7.49685
-2.00717
9.86996
-3.83776
11.5244
-5.38922
12.6262
-6.49332
13.303
-7.05037
13.6663
-7.05481
13.8022
-6.59756
13.7732
-5.81676
13.6206
-4.86872
13.3772
-3.89747
13.0607
-3.05674
12.6962
-2.48556
12.2638
-2.34524
11.7579
-2.88888
10.9786
-4.07996
9.78467
-6.97085
9.36412
-3.32965
8.99602
-1.37984
8.84048
-0.474424
8.72196
-0.0689083
8.61571
0.172994
8.5305
0.287814
8.46151
0.321139
8.40436
0.313327
8.35725
0.284549
8.31877
0.246118
8.2876
0.205197
8.26256
0.165905
8.24261
0.130346
8.22688
0.0994506
8.21457
0.0734731
8.20503
0.0522918
8.19766
0.0356006
8.19198
0.0230351
8.18756
0.0142557
8.184
0.00900707
8.18096
0.00717458
8.17812
0.00883271
8.17514
0.0143124
8.17165
0.0243108
8.16725
0.0400439
8.16142
0.0634777
8.15348
0.0976928
8.14251
0.147448
8.12725
0.220059
8.10586
0.326753
8.07575
0.484886
8.03312
0.72106
7.97219
1.07843
7.88474
1.61706
7.75002
2.47786
7.55164
3.67713
7.07447
6.33333
4.46828
23.5755
33.3413
5.74889
-2.91584
10.1447
-3.8268
12.8465
-4.70901
14.5608
-5.55204
15.6023
-6.43068
16.1614
-7.05241
16.3743
-7.26335
16.3538
-7.03428
16.182
-6.42577
15.9117
-5.54649
15.5698
-4.52679
15.1699
-3.49751
14.7091
-2.59599
14.1886
-1.96508
13.566
-1.72256
12.8208
-2.14373
11.7149
-2.97408
10.1425
-5.39847
9.6062
-2.79332
9.10227
-0.875918
8.91169
-0.283841
8.75991
0.0828769
8.63116
0.301743
8.53236
0.386606
8.4546
0.398899
8.39166
0.376275
8.34063
0.335571
8.29942
0.287337
8.26621
0.238398
8.23959
0.192532
8.21835
0.151584
8.20151
0.116292
8.18823
0.0867528
8.17781
0.0627132
8.16965
0.0437575
8.16325
0.0294318
8.15819
0.0193239
8.15407
0.0131231
8.15057
0.0106726
8.14738
0.0120216
8.1442
0.0174934
8.14072
0.0277951
8.13659
0.0441743
8.13141
0.0686575
8.12468
0.104423
8.11575
0.156377
8.10376
0.232047
8.08755
0.342964
8.06553
0.506903
8.03557
0.751019
7.99453
1.11947
7.93892
1.67267
7.85437
2.56241
7.74924
3.78226
7.37227
6.7103
4.89354
26.0543
38.2348
-29.8495
-6.00052
35.8501
-24.8296
-5.01998
-20.4409
-4.3887
-16.5099
-3.93098
-12.9313
-3.57855
-9.64582
-3.2855
-6.63744
-3.00838
-3.93966
-2.69777
-1.65619
-2.28347
-1.65619
-20.267
-8.51759
22.784
-17.6238
-7.66314
-15.0307
-6.98178
-12.5378
-6.42391
-10.1633
-5.95304
-7.90985
-5.53895
-5.76949
-5.14875
-3.72908
-4.73818
-1.78479
-4.22776
-3.44098
-5.08563
-8.85051
5.41854
-4.64085
-8.10792
-4.14282
-7.47981
-3.63293
-6.9338
-3.13039
-6.45558
-2.63945
-6.02989
-2.14566
-5.64254
-1.60834
-5.27549
-0.944113
-4.892
-4.3851
-2.71443
-8.85527
2.7192
-2.57825
-8.2441
-2.35909
-7.69896
-2.08704
-7.20585
-1.7813
-6.76133
-1.45296
-6.35823
-1.10668
-5.98882
-0.742837
-5.63933
-0.361739
-5.27309
-4.74683
-1.68075
-8.86845
1.69393
-1.60072
-8.32413
-1.47248
-7.8272
-1.30858
-7.36976
-1.11954
-6.95037
-0.913005
-6.56477
-0.694023
-6.20781
-0.465343
-5.86801
-0.229404
-5.50903
-4.97624
-0.99392
-8.86837
0.993837
-0.952793
-8.36526
-0.880575
-7.89942
-0.784332
-7.466
-0.670813
-7.06389
-0.545486
-6.69009
-0.412617
-6.34067
-0.274893
-6.00574
-0.134305
-5.64962
-5.11054
-0.591915
-8.86646
0.590006
-0.569137
-8.38804
-0.527344
-7.94121
-0.470514
-7.52283
-0.402715
-7.13169
-0.327384
-6.76542
-0.247365
-6.42069
-0.164516
-6.08859
-0.08022
-5.73392
-5.19076
-0.346688
-8.86296
0.343187
-0.335009
-8.39971
-0.311491
-7.96473
-0.278539
-7.55578
-0.23866
-7.17156
-0.194011
-6.81007
-0.146441
-6.46826
-0.097207
-6.13782
-0.0472546
-5.78387
-5.23802
-0.199809
-8.85884
0.19569
-0.194479
-8.40504
-0.181722
-7.97748
-0.16302
-7.57448
-0.139925
-7.19466
-0.113782
-6.83621
-0.0857782
-6.49627
-0.0567835
-6.16681
-0.0274877
-5.81316
-5.26551
-0.112681
-8.85467
0.108508
-0.110897
-8.40683
-0.104399
-7.98398
-0.0941114
-7.58477
-0.0809982
-7.20777
-0.0659034
-6.85131
-0.0495964
-6.51257
-0.0327006
-6.18371
-0.0157366
-5.83013
-5.28124
-0.0621785
-8.85083
0.0583411
-0.0622092
-8.4068
-0.0592135
-7.98698
-0.0537647
-7.59022
-0.0464643
-7.21507
-0.0378446
-6.85993
-0.0284118
-6.52201
-0.0186304
-6.19349
-0.00889933
-5.83986
-5.29014
-0.0338896
-8.84753
0.0305935
-0.0347135
-8.40597
-0.0335641
-7.98813
-0.0307947
-7.59299
-0.0267805
-7.21909
-0.0218595
-6.86485
-0.0163713
-6.52749
-0.0106737
-6.19919
-0.00506774
-5.84546
-5.29521
-0.0188747
-8.84484
0.0161836
-0.0199231
-8.40493
-0.019657
-7.98839
-0.0182906
-7.59436
-0.0160573
-7.22132
-0.0131728
-6.86773
-0.00986965
-6.5308
-0.00643008
-6.20263
-0.00306785
-5.84883
-5.29828
-0.0115522
-8.84272
0.0094262
-0.0125497
-8.40393
-0.012643
-7.9883
-0.0119583
-7.59504
-0.0106395
-7.22264
-0.00882429
-6.86955
-0.00667469
-6.53295
-0.00441492
-6.20489
-0.0021747
-5.85107
-5.30045
-0.0084235
-8.84104
0.00675149
-0.00928226
-8.40307
-0.00948983
-7.98809
-0.00911578
-7.59541
-0.00824675
-7.22351
-0.00696946
-6.87083
-0.00539727
-6.53452
-0.00370579
-6.20658
-0.001939
-5.85283
-5.30239
-0.00726722
-8.83967
0.00589006
-0.00802158
-8.40232
-0.00827747
-7.98784
-0.00806727
-7.59562
-0.00743944
-7.22414
-0.00644586
-6.87182
-0.00516374
-6.5358
-0.00372419
-6.20802
-0.00208018
-5.85448
-5.30447
-0.00662379
-8.83839
0.00534434
-0.00739334
-8.40155
-0.0077532
-7.98748
-0.00770968
-7.59567
-0.00728383
-7.22456
-0.00650184
-6.8726
-0.00541121
-6.53689
-0.00409921
-6.20933
-0.00241974
-5.85616
-5.30689
-0.00546643
-8.83697
0.00405163
-0.00643891
-8.40057
-0.00704964
-7.98687
-0.00728401
-7.59543
-0.00714113
-7.2247
-0.00662595
-6.87312
-0.00575904
-6.53776
-0.00458209
-6.21051
-0.00283952
-5.8579
-5.30973
-0.00302076
-8.83515
0.0012005
-0.00443604
-8.39916
-0.00551289
-7.98579
-0.00622041
-7.59473
-0.00653494
-7.22439
-0.00643942
-6.87321
-0.00592763
-6.53827
-0.00499214
-6.21144
-0.00325528
-5.85964
-5.31299
0.00137134
-8.83261
-0.00391452
-0.000780667
-8.39701
-0.00259979
-7.98397
-0.00404233
-7.59328
-0.0050632
-7.22337
-0.00562311
-6.87265
-0.00568338
-6.53821
-0.00518021
-6.21195
-0.00359899
-5.86122
-5.31659
0.00843803
-8.82896
-0.0120898
0.00516585
-8.39373
0.00223703
-7.98104
-0.00028564
-7.59076
-0.00234038
-7.22131
-0.00386893
-6.87113
-0.00479929
-6.53728
-0.00500265
-6.21174
-0.00380624
-5.86241
-5.32039
0.0190235
-8.82374
-0.0242383
0.0141663
-8.38888
0.00966107
-7.97654
0.00559528
-7.58669
0.00206502
-7.21778
-0.000843129
-6.86822
-0.00302935
-6.53509
-0.00430106
-6.21047
-0.00380651
-5.86291
-5.3242
0.0341062
-8.81642
-0.041425
0.0271091
-8.38188
0.0204633
-7.96989
0.0142833
-7.58051
0.00871158
-7.21221
0.00387734
-6.86338
-7.48813e-05
-6.53114
-0.00288508
-6.20766
-0.00351323
-5.86228
-5.32771
0.054932
-8.80634
-0.0650204
0.0451015
-8.37205
0.0356123
-7.9604
0.0266148
-7.57152
0.018301
-7.2039
0.01085
-6.85593
0.00446503
-6.52476
-0.000509028
-6.20269
-0.0028158
-5.85997
-5.33053
0.0831197
-8.79266
-0.096794
0.0695931
-8.35852
0.0563737
-7.94718
0.0436603
-7.5588
0.0317133
-7.19195
0.020775
-6.84499
0.0111131
-6.51509
0.00316826
-6.19474
-0.00156946
-5.85524
-5.3321
0.120785
-8.77439
-0.139054
0.102484
-8.34022
0.0844148
-7.92911
0.0668433
-7.54123
0.0501186
-7.17523
0.0345681
-6.82944
0.0205433
-6.50107
0.0085954
-6.1828
0.000434694
-5.84708
-5.33166
0.170721
-8.75028
-0.194834
0.146288
-8.31579
0.121949
-7.90477
0.0980591
-7.51734
0.0750849
-7.15225
0.053466
-6.80782
0.0336621
-6.48127
0.0163608
-6.16549
0.00352057
-5.83424
-5.32814
0.236641
-8.71876
-0.268158
0.20436
-8.28351
0.171936
-7.87235
0.139848
-7.48525
0.108717
-7.12112
0.0791325
-6.77824
0.0516938
-6.45383
0.0272567
-6.14106
0.00807872
-5.81506
-5.32006
0.323521
-8.67789
-0.364396
0.28121
-8.24119
0.238367
-7.82951
0.195644
-7.44253
0.153866
-7.07934
0.113825
-6.7382
0.0763035
-6.41631
0.0423644
-6.10712
0.0146056
-5.7873
-5.30546
0.438067
-8.62521
-0.490749
0.382941
-8.18607
0.326663
-7.77323
0.270129
-7.386
0.214433
-7.02365
0.16064
-6.68441
0.109779
-6.36544
0.0631771
-6.06052
0.0238225
-5.74794
-5.28163
0.589404
-8.55766
-0.656952
0.51792
-8.11459
0.444302
-7.69961
0.36979
-7.31149
0.295843
-6.9497
0.223896
-6.61246
0.155319
-6.29687
0.0917841
-5.99698
0.0367419
-5.6929
-5.24489
0.790149
-8.47139
-0.876415
0.697732
-8.02217
0.601655
-7.60353
0.503658
-7.21349
0.405686
-6.85173
0.309679
-6.51645
0.217469
-6.20466
0.131187
-5.9107
0.0548348
-5.61655
-5.19006
1.05758
-8.36135
-1.16762
0.938183
-7.90278
0.812879
-7.47823
0.684081
-7.08469
0.554371
-6.72202
0.426353
-6.38843
0.302491
-6.08079
0.185526
-5.79373
0.0801302
-5.51115
-5.10993
1.41445
-8.22195
-1.55385
1.26121
-7.74954
1.0984
-7.31542
0.929266
-6.91556
0.757288
-6.55004
0.586076
-6.21722
0.419129
-5.91385
0.260229
-5.63483
0.11508
-5.366
-4.99485
1.89527
-8.05011
-2.06711
1.70167
-7.55593
1.49142
-7.10517
1.26944
-6.69358
1.04072
-6.32132
0.810405
-5.98691
0.583621
-5.68706
0.365872
-5.41709
0.164668
-5.1648
-4.83018
2.55956
-7.82955
-2.78012
2.30607
-7.30244
2.02992
-6.82902
1.73789
-6.40155
1.43575
-6.01917
1.12926
-5.68042
0.824188
-5.38199
0.526521
-5.11942
0.243946
-4.88222
-4.58623
3.4348
-7.5108
-3.75355
3.09789
-6.96553
2.73949
-6.47062
2.36013
-6.02219
1.96447
-5.62351
1.55895
-5.27491
1.15096
-4.974
0.748043
-4.7165
0.356663
-4.49084
-4.22957
4.57727
-7.33835
-4.74972
4.27445
-6.6627
3.86546
-6.06163
3.38116
-5.53789
2.83998
-5.08234
2.25693
-4.69186
1.64871
-4.36577
1.03913
-4.10693
0.464403
-3.91611
-3.76517
6.95737
-6.76751
-7.52821
6.36787
-6.07321
5.76049
-5.45425
5.12605
-4.90345
4.45731
-4.4136
3.74283
-3.97738
2.966
-3.58895
2.10235
-3.24327
1.11596
-2.92973
-2.6492
16.3575
-5.80025
-17.3248
15.1933
-4.90895
13.8626
-4.12359
12.3839
-3.42474
10.7696
-2.79926
9.0217
-2.22952
7.12777
-1.69501
5.04864
-1.16413
2.72004
-0.601132
0.0708358
12.6598
-4.95032
-13.5097
11.6372
-3.88644
10.4751
-2.96145
9.20308
-2.15271
7.84084
-1.43703
6.39491
-0.783584
4.87085
-0.170958
3.29023
0.416488
1.6741
1.01499
1.74494
9.30603
-4.04744
-10.2089
8.32424
-2.90465
7.27768
-1.91488
6.17673
-1.05176
5.02973
-0.290026
3.8649
0.381245
2.72443
0.969516
1.65819
1.48273
0.718949
1.95423
2.46389
6.26728
-3.26814
-7.04659
5.4616
-2.09897
4.64016
-1.09345
3.81234
-0.223939
3.00051
0.521805
2.23772
1.14404
1.54729
1.65995
0.934367
2.09565
0.406036
2.48256
2.86992
3.80906
-2.62048
-4.45671
3.17815
-1.46806
2.58059
-0.495894
2.03278
0.32388
1.55246
1.00212
1.13559
1.5609
0.772666
2.02287
0.459535
2.40878
0.196246
2.74585
3.06617
1.91294
-2.13469
-2.39873
1.47373
-1.02886
1.09387
-0.116028
0.781307
0.63644
0.532677
1.25075
0.338447
1.75513
0.190629
2.17069
0.0839344
2.51548
0.0167053
2.81308
3.08288
0.551532
-1.77906
-0.907154
0.263912
-0.741241
0.0531346
0.0947493
-0.0856524
0.775228
-0.167256
1.33236
-0.202842
1.79072
-0.200574
2.16842
-0.16602
2.48092
-0.101507
2.74856
2.98137
-0.351611
-1.52644
0.0989862
-0.523316
-0.569536
-0.616793
0.188226
-0.64359
0.802025
-0.618503
1.30727
-0.55281
1.72503
-0.454451
2.07006
-0.328892
2.35536
-0.178582
2.59825
2.80279
-0.860908
-1.35329
0.687757
-0.954745
-0.475698
-0.978632
0.212112
-0.944911
0.768304
-0.864102
1.22646
-0.745076
1.606
-0.595085
1.92007
-0.419617
2.1799
-0.221568
2.40021
2.58122
-1.12653
-1.228
1.00124
-1.18112
-0.421106
-1.17121
0.2022
-1.10657
0.703667
-0.996523
1.11641
-0.849293
1.45877
-0.67183
1.74261
-0.469526
1.97759
-0.245435
2.17611
2.33578
-1.27196
-1.13067
1.17463
-1.30304
-0.390035
-1.27247
0.171637
-1.18949
0.620689
-1.06299
0.989907
-0.900724
1.2965
-0.709234
1.55112
-0.493614
1.76197
-0.256865
1.93937
2.07892
-1.34829
-1.04478
1.26241
-1.36804
-0.370288
-1.32638
0.129975
-1.23304
0.527351
-1.09724
0.854111
-0.926731
1.12599
-0.727854
1.35224
-0.505463
1.53958
-0.262455
1.69636
1.81646
-1.39568
-0.957547
1.30844
-1.41152
-0.354447
-1.36322
0.0816813
-1.26284
0.426962
-1.12051
0.711787
-0.944171
0.94965
-0.740109
1.14818
-0.513036
1.31251
-0.265916
1.44924
1.55055
-1.42597
-0.859397
1.32782
-1.44381
-0.336611
-1.39362
0.0314927
-1.28994
0.323285
-1.14383
0.565676
-0.963392
0.769213
-0.754939
0.93973
-0.523072
1.08064
-0.27095
1.19712
1.2796
-1.47495
-0.734761
1.35032
-1.50511
-0.306449
-1.45942
-0.0142039
-1.3555
0.219369
-1.20541
0.415587
-1.01752
0.581318
-0.798562
0.720775
-0.553569
0.835647
-0.286731
0.930278
0.992866
-1.50134
-0.580488
1.34706
-1.54436
-0.263425
-1.50535
-0.0532193
-1.40544
0.119462
-1.25644
0.266591
-1.06586
0.390734
-0.839949
0.494864
-0.583355
0.579052
-0.300988
0.647911
0.691879
-1.70319
-0.262278
1.38498
-1.84198
-0.12463
-1.85837
-0.0368333
-1.77769
0.038778
-1.6161
0.105003
-1.38685
0.16149
-1.10096
0.208971
-0.768385
0.246476
-0.395566
0.275093
0.296313
-1.17066
0.908382
-1.29529
-1.33212
-1.29335
-1.18834
-1.02685
-0.817881
-0.571405
-0.296313
-3.7957
-1.23984
5.03553
-3.1656
-0.630097
-2.82655
-0.339046
-2.61966
-0.206897
-2.50577
-0.11389
-2.46901
-0.0367564
-2.50186
0.0328545
-2.60898
0.107112
-2.81501
0.206037
-3.06274
0.247728
0.933472
-3.99622
-4.88034
-2.34922
5.98972
-4.24606
-1.26438
-3.87915
-0.705955
-3.65291
-0.433132
-3.52422
-0.242579
-3.47231
-0.088676
-3.48993
0.0504841
-3.58466
0.201834
-3.76699
0.388371
-4.04073
0.521469
1.65807
-4.76532
-6.43167
-3.42857
7.51103
-5.75259
-1.94346
-5.32764
-1.1309
-5.06024
-0.700539
-4.9023
-0.400512
-4.82884
-0.162137
-4.83146
0.0530967
-4.91601
0.286384
-5.08419
0.556553
-5.39184
0.829119
2.25874
-5.99251
-8.21233
-4.44239
9.22615
-7.49853
-2.65726
-7.01459
-1.61484
-6.69983
-1.0153
-6.50711
-0.593232
-6.40999
-0.259258
-6.39886
0.041968
-6.47444
0.361964
-6.63513
0.717248
-6.95999
1.15397
2.71636
-7.41761
-8.36757
-5.20418
9.12936
-7.76188
-3.26295
-7.32112
-2.0556
-7.02286
-1.31356
-6.83405
-0.782038
-6.73357
-0.359743
-6.71217
0.020568
-6.76607
0.415865
-6.89644
0.847621
-7.15975
1.41728
2.9719
-7.4153
-8.46108
-5.78705
9.04395
-7.94637
-3.77766
-7.54842
-2.45355
-7.2689
-1.59307
-7.08676
-0.964182
-6.98573
-0.460773
-6.95682
-0.00833791
-6.9939
0.452945
-7.09869
0.952411
-7.30018
1.61878
3.10573
-7.434
-8.54802
-6.23871
8.99968
-8.11043
-4.21524
-7.75324
-2.81075
-7.49324
-1.85307
-7.31905
-1.13837
-7.21872
-0.561098
-7.18358
-0.0434825
-7.20641
0.475774
-7.28759
1.03359
-7.43469
1.76588
3.16383
-7.49279
-8.6131
-6.58853
8.96292
-8.24383
-4.58451
-7.92648
-3.12811
-7.6871
-2.09245
-7.52209
-1.30338
-7.42335
-0.659836
-7.38303
-0.0838013
-7.39344
0.486179
-7.45259
1.09275
-7.55385
1.86713
3.17245
-7.56246
-8.67518
-6.85654
8.9432
-8.36745
-4.89224
-8.0888
-3.40676
-7.87066
-2.31059
-7.71562
-1.45843
-7.61911
-0.756345
-7.57439
-0.128516
-7.57369
0.485474
-7.61275
1.1318
-7.67634
1.93073
3.14754
-7.65144
-8.88432
-7.05961
9.08739
-8.62956
-5.147
-8.3855
-3.65082
-8.18649
-2.50961
-8.04008
-1.60484
-7.94496
-0.851464
-7.89578
-0.177702
-7.88484
0.474541
-7.90585
1.15281
-7.9388
1.96368
3.09805
-7.8893
-9.8543
-7.21585
10.0105
-9.63556
-5.36574
-9.41236
-3.87402
-9.22187
-2.7001
-9.0761
-1.7506
-8.97679
-0.950773
-8.91984
-0.234659
-8.89731
0.452017
-8.90052
1.15602
-8.90584
1.969
3.02251
-8.8303
-11.3501
-7.32304
11.4573
-11.1705
-5.54532
-10.972
-4.07257
-10.7929
-2.8792
-10.649
-1.89449
-10.5449
-1.05484
-10.478
-0.30159
-10.4403
0.414397
-10.4214
1.13703
-10.3944
1.94208
2.91428
-10.2862
-13.6691
-7.37052
13.7166
-13.5375
-5.67696
-13.3722
-4.23783
-13.2116
-3.03982
-13.0742
-2.03185
-12.9669
-1.16213
-12.888
-0.380513
-12.8299
0.356256
-12.7804
1.08755
-12.7108
1.87244
2.75961
-12.5561
-14.5941
-7.34416
14.5677
-14.5372
-5.73388
-14.4364
-4.33856
-14.324
-3.15226
-14.2177
-2.13816
-14.1251
-1.25477
-14.0456
-0.459915
-13.9735
0.284069
-13.8974
1.01146
-13.7912
1.76631
2.57409
-13.6057
-14.4942
-7.25654
14.4066
-14.5072
-5.72089
-14.4723
-4.37348
-14.4136
-3.2109
-14.3462
-2.20559
-14.2771
-1.32388
-14.2068
-0.530172
-14.1309
0.208207
-14.0401
0.92063
-13.9133
1.63948
2.37692
-13.7161
-14.3374
-7.12206
14.2029
-14.4058
-5.65242
-14.4253
-4.35401
-14.4132
-3.22301
-14.3813
-2.23746
-14.3358
-1.36941
-14.2776
-0.5884
-14.2033
0.133909
-14.1052
0.822559
-13.9671
1.50138
2.17548
-13.7657
-14.1709
-6.95085
13.9997
-14.284
-5.53934
-14.3485
-4.28943
-14.3764
-3.19515
-14.3764
-2.23747
-14.3534
-1.39235
-14.3086
-0.633251
-14.2393
0.0646023
-14.1394
0.722692
-13.9969
1.35885
1.97481
-13.7962
-13.9988
-6.74957
13.7975
-14.1489
-5.3893
-14.2516
-4.1867
-14.314
-3.13275
-14.3423
-2.2091
-14.3405
-1.39422
-14.3094
-0.664369
-14.2472
0.00239839
-14.1492
0.624783
-14.007
1.21656
1.77807
-13.8102
-13.7956
-6.5227
13.5688
-13.9772
-5.20773
-14.1128
-4.05113
-14.2053
-3.04025
-14.2588
-2.15554
-14.2763
-1.37678
-14.2586
-0.682058
-14.2047
-0.0515024
-14.1113
0.531375
-13.9724
1.07765
1.58743
-13.7817
-13.595
-6.27205
13.3444
-13.805
-4.99776
-13.97
-3.88616
-14.0894
-2.92084
-14.1656
-2.07933
-14.2007
-1.34169
-14.1957
-0.686988
-14.1504
-0.0968012
-14.0627
0.443637
-13.9287
0.943666
1.40365
-13.7449
-13.4058
-5.99711
13.1309
-13.6429
-4.76064
-13.8355
-3.69363
-13.9797
-2.77663
-14.0767
-1.98232
-14.1281
-1.29031
-14.1352
-0.679881
-14.0984
-0.13359
-14.0168
0.362072
-13.8884
0.815299
1.22685
-13.7116
-13.1928
-5.696
12.8917
-13.4566
-4.4968
-13.6755
-3.47474
-13.8429
-2.60926
-13.9591
-1.8661
-14.0256
-1.22385
-14.044
-0.66142
-14.0156
-0.161982
-13.9407
0.287093
-13.8185
0.693174
1.05726
-13.649
-12.9636
-5.36382
12.6314
-13.2549
-4.20548
-13.4998
-3.22983
-13.6892
-2.41985
-13.8233
-1.73195
-13.9038
-1.14342
-13.9329
-0.632323
-13.9126
-0.182205
-13.8444
0.21889
-13.7289
0.577673
0.894894
-13.5666
-11.067
-5.04688
10.7501
-11.3464
-3.92605
-11.5817
-2.99462
-11.7645
-2.237
-11.8954
-1.60105
-11.9763
-1.06254
-12.01
-0.598662
-11.9989
-0.193227
-11.9453
0.165227
-11.8505
0.48285
0.759792
-11.7154
-9.23992
-4.75427
8.94732
-9.49971
-3.66625
-9.71676
-2.77758
-9.88569
-2.06806
-10.0071
-1.4796
-10.0836
-0.986103
-10.118
-0.564208
-10.1133
-0.19794
-10.0718
0.123711
-9.99539
0.406442
0.649612
-9.88521
-8.05251
-4.47347
7.77171
-8.30234
-3.41642
-8.50864
-2.57127
-8.66897
-1.90774
-8.7843
-1.36427
-8.85773
-0.912675
-8.89257
-0.529368
-8.89185
-0.198661
-8.85817
0.0900291
-8.7937
0.34198
0.555559
-8.69965
-7.42211
-4.18697
7.13561
-7.675
-3.16353
-7.88118
-2.36509
-8.0407
-1.74823
-8.15528
-1.24968
-8.22881
-0.839148
-8.26501
-0.493167
-8.26721
-0.19646
-8.23829
0.06111
-8.18073
0.28442
0.470474
-8.09564
-7.31564
-3.86954
6.99822
-7.5895
-2.88967
-7.81003
-2.14456
-7.97929
-1.57897
-8.10056
-1.12841
-8.1788
-0.760901
-8.21848
-0.453487
-8.22345
-0.191489
-8.19703
0.0346817
-8.14217
0.229561
0.388153
-8.05985
-7.21602
-3.51209
6.85856
-7.51574
-2.58994
-7.75315
-1.90716
-7.93341
-1.39871
-8.06203
-0.999792
-8.14535
-0.677576
-8.18872
-0.410123
-8.19655
-0.183651
-8.17265
0.0107756
-8.1205
0.177416
0.30865
-8.041
-7.10667
-3.10269
6.69727
-7.43895
-2.25766
-7.69667
-1.64944
-7.8897
-1.20569
-8.02668
-0.862811
-8.1157
-0.588559
-8.16315
-0.36267
-8.17414
-0.172666
-8.15293
-0.0104275
-8.1037
0.128179
0.232331
-8.02738
-6.97594
-2.62435
6.49761
-7.35067
-1.88293
-7.63417
-1.36594
-7.84315
-0.996711
-7.99052
-0.715441
-8.0866
-0.49248
-8.1391
-0.310164
-8.15394
-0.15783
-8.13593
-0.0284355
-8.08996
0.082208
0.159917
-8.01755
-6.76475
-2.05659
6.19698
-7.19456
-1.45311
-7.51133
-1.04917
-7.74109
-0.766947
-7.9023
-0.554232
-8.00803
-0.386751
-8.06762
-0.250576
-8.08799
-0.13746
-8.07453
-0.0418914
-8.03287
0.0405427
0.0932257
-7.96617
-6.46511
-1.36778
5.77629
-6.96972
-0.948495
-7.33411
-0.684791
-7.59611
-0.504943
-7.78043
-0.369913
-7.90326
-0.263921
-7.9759
-0.177935
-8.00662
-0.106742
-8.00155
-0.0469551
-7.96668
0.00567035
0.0355876
-7.90904
-5.69622
-0.559904
4.88835
-6.26521
-0.37951
-6.67423
-0.275772
-6.97189
-0.207277
-7.18617
-0.15563
-7.33488
-0.115219
-7.43037
-0.0824405
-7.48177
-0.0553446
-7.49589
-0.0328324
-7.47786
-0.012359
-0.00209712
-7.44018
-2.7745
2.21459
-3.15401
-3.42978
-3.63706
-3.79269
-3.9079
-3.99035
-4.04569
-4.07852
-4.09088
-4.09298
37.9661
-1.74997
2.01866
36.9952
-3.87096
4.84189
35.8646
-4.77252
5.90307
34.5457
-5.31959
6.63849
33.0554
-5.75646
7.24682
31.4386
-6.06845
7.68519
29.7291
-6.30103
8.01056
27.9581
-6.46966
8.24069
26.1513
-6.59626
8.40307
24.2069
-7.15113
9.09552
22.0316
-8.15186
10.3272
19.5422
-9.63275
12.1222
16.8081
-11.0442
13.7783
14.2158
-10.9408
13.533
11.754
-10.8021
13.264
9.40333
-10.6485
12.9992
7.12886
-10.5276
12.8021
4.88597
-10.4449
12.6878
2.62298
-10.3853
12.6483
0.25825
-10.3583
12.723
-2.2847
-10.5369
13.0799
-5.11458
-10.8381
13.668
-8.08086
-10.415
13.3813
-10.8307
-8.87743
11.6273
-13.4449
-7.87205
10.4863
-15.9754
-7.20476
9.73526
-18.5851
-7.09315
9.70286
-21.2797
-7.03858
9.73312
-24.0087
-6.89761
9.62664
-26.7042
-6.63256
9.32808
-29.3029
-6.23396
8.83269
-31.7377
-5.64101
8.07574
-33.4471
-3.90303
5.61249
-34.644
-2.53478
3.73168
-1.59112
2.79716
26.9796
-2.6753
27.4869
-4.37832
27.3954
-4.68099
26.8842
-4.80843
26.0614
-4.93361
25.0163
-5.0234
23.8166
-5.10127
22.5149
-5.16794
21.1502
-5.23163
19.6397
-5.64064
17.8941
-6.4062
15.825
-7.56363
13.4912
-8.71041
11.2712
-8.72083
9.17124
-8.70214
7.18015
-8.65744
5.26634
-8.61382
3.38796
-8.56655
1.49679
-8.4941
-0.444727
-8.41676
-2.55688
-8.42476
-4.92093
-8.47405
-7.38876
-7.94719
-9.62851
-6.63768
-11.702
-5.79858
-13.6523
-5.2544
-15.6066
-5.13888
-17.5487
-5.09644
-19.4099
-5.03645
-21.0975
-4.94501
-22.5005
-4.83093
-23.4703
-4.67124
-23.7389
-3.6344
-23.4899
-2.7838
-2.29695
6.6441
-2.6091
6.57081
-4.30503
6.42125
-4.53143
6.20579
-4.59297
5.93731
-4.66513
5.62653
-4.71262
5.28332
-4.75805
4.91629
-4.80091
4.53257
-4.84791
4.12773
-5.2358
3.69589
-5.97436
3.2315
-7.09924
2.74249