/*--------------------------------*- C++ -*----------------------------------*\
| =========                 |                                                 |
| \\      /  F ield         | OpenFOAM: The Open Source CFD Toolbox           |
|  \\    /   O peration     | Version:  2406                                  |
|   \\  /    A nd           | Website:  www.openfoam.com                      |
|    \\/     M anipulation  |                                                 |
\*---------------------------------------------------------------------------*/
FoamFile
{
    version     2.0;
    format      ascii;
    arch        "LSB;label=32;scalar=64";
    class       volScalarField;
    location    "0/fluidRegion";
    object      dgdt;
}
// * * * * * * * * * * * * * * * * * * * * * * * * * * * * * * * * * * * * * //

dimensions      [0 0 -1 0 0 0 0];

internalField   nonuniform List<scalar> 
8595
(
4.85008e-16
-2.19468e-16
1.22515e-15
-1.43484e-15
1.51534e-15
-4.33362e-16
-9.44255e-16
8.09875e-16
4.21596e-16
-1.01733e-15
-4.27293e-16
-5.03958e-16
7.91421e-17
-2.83376e-16
2.24793e-16
2.36807e-16
7.82503e-16
8.03558e-16
-2.55038e-15
1.58978e-15
-7.42901e-16
1.34511e-15
2.25134e-16
-1.92656e-15
-1.47401e-15
5.99137e-15
-1.94277e-15
-4.37172e-15
6.8898e-15
-2.69309e-15
2.15709e-16
-2.29815e-15
1.07397e-15
2.51643e-15
-5.20822e-15
4.62311e-15
-1.41288e-15
2.68005e-15
3.77075e-17
-5.7786e-15
-1.38426e-15
-4.88523e-17
1.66688e-15
5.58534e-15
-1.62658e-15
-3.50058e-15
1.92486e-15
6.24622e-16
-1.60832e-15
-9.99711e-16
1.74317e-15
1.70951e-15
-2.75715e-15
8.32292e-16
1.14688e-15
-2.76242e-15
7.03485e-17
5.33437e-16
7.49399e-16
-1.92027e-15
1.15396e-15
8.9607e-16
5.10827e-16
-1.28383e-15
-3.44445e-15
2.35369e-16
-1.57742e-15
9.01668e-16
7.33227e-16
-1.10992e-15
7.28997e-17
-1.52741e-15
-1.19998e-15
1.87101e-16
5.25376e-15
1.55453e-15
2.12728e-16
-2.29771e-15
7.05672e-16
1.20857e-14
-1.27512e-15
2.13326e-15
-2.74188e-15
-6.26328e-15
-4.12275e-15
1.88613e-15
6.70765e-15
-4.24518e-15
1.11186e-14
-8.23933e-15
2.7634e-15
-7.61738e-15
4.92802e-15
-3.12338e-15
3.70617e-15
2.40249e-15
-4.6815e-15
1.52235e-15
-2.69299e-15
-9.20071e-16
1.66472e-15
-4.57381e-16
6.41846e-15
-2.73483e-15
1.75724e-15
1.72701e-15
-1.386e-15
2.57444e-15
-2.78387e-15
9.54912e-16
-2.02701e-15
2.31189e-15
8.85744e-16
-1.48785e-15
-1.21658e-15
7.35743e-16
4.48344e-16
1.53247e-15
-1.74089e-15
-7.79603e-16
5.03324e-16
-2.63208e-15
3.51877e-16
9.14681e-17
-5.19319e-16
-2.49663e-15
-1.04713e-15
2.34693e-15
5.19319e-16
-2.59559e-15
2.66757e-15
-1.48748e-15
-2.49663e-15
3.04369e-15
-1.03276e-15
-4.27869e-15
3.40687e-15
-7.19417e-15
3.32556e-15
9.92107e-16
-5.13046e-15
2.28239e-15
1.29983e-15
4.8475e-15
-4.00697e-15
1.07576e-14
-6.01339e-15
4.72014e-15
-3.61331e-15
4.2231e-15
-5.72758e-15
-7.51517e-15
6.27152e-15
-4.81233e-15
5.13295e-15
-1.05152e-15
2.30056e-15
9.00666e-15
-2.0614e-15
-2.44282e-15
-3.48432e-15
-1.69238e-15
3.07296e-15
-3.86971e-15
2.35324e-15
1.93045e-15
2.53412e-15
-1.85485e-15
2.78253e-15
-1.12291e-14
5.94393e-15
8.66559e-16
-4.4081e-16
-8.68567e-16
-9.27308e-16
-1.53003e-16
1.1014e-15
-7.53595e-16
-1.17633e-15
-9.12749e-16
1.26118e-15
5.22144e-16
1.6071e-15
-2.58562e-15
-1.28277e-15
1.3159e-15
5.14614e-16
-3.73635e-15
1.34553e-16
-1.03776e-15
-2.55951e-15
-2.67273e-15
-5.03192e-16
-3.94517e-15
-1.90698e-15
-5.13531e-15
4.39555e-15
2.96234e-15
4.08387e-15
1.57572e-15
3.50403e-15
9.9311e-16
-2.75475e-16
1.06461e-14
-5.82632e-15
4.80489e-17
-2.32493e-15
1.90364e-15
9.9588e-15
-8.88444e-15
9.86049e-15
-3.00158e-15
-8.10748e-16
-3.07061e-15
-2.69419e-16
-2.47589e-15
1.45504e-16
6.00912e-15
-7.722e-15
6.78612e-15
-8.45146e-15
-2.68214e-15
-1.00412e-17
-5.01535e-15
8.03299e-17
6.45652e-16
-9.15761e-16
-6.65132e-15
-1.46051e-15
-4.54996e-15
8.26074e-16
-4.49852e-16
1.47891e-16
6.79065e-16
-1.55885e-15
-2.63759e-15
1.51094e-15
6.33424e-16
-1.5654e-15
-1.32031e-15
1.02427e-15
2.28507e-15
-2.67289e-16
-3.82828e-15
-9.99559e-16
-8.61376e-16
3.97806e-15
-6.24346e-15
1.71519e-15
2.46151e-15
4.83169e-15
3.1505e-15
-1.23668e-16
4.61719e-15
-1.24309e-14
-3.25569e-15
8.75297e-15
3.50667e-15
-1.76245e-15
6.06028e-15
-6.38288e-15
2.11559e-15
-5.93027e-17
-8.84495e-15
-3.39402e-15
2.16243e-15
-6.36873e-15
2.41078e-15
2.84615e-15
7.29098e-15
-2.59421e-15
-2.82617e-15
1.24312e-14
1.50741e-15
-7.87704e-15
-3.41865e-15
-3.57625e-16
-5.86012e-15
5.09362e-16
3.17973e-15
8.37925e-16
-2.04753e-15
-2.41972e-15
-6.7034e-15
-5.18843e-15
3.19966e-15
-3.71841e-15
8.91608e-17
5.44337e-16
2.71725e-16
-3.17635e-16
-3.96563e-15
-6.80864e-16
-4.33848e-15
-2.381e-16
4.52592e-15
1.34552e-15
-2.29386e-15
1.96204e-15
1.29182e-15
-8.4956e-16
5.46616e-15
-5.32938e-15
2.12567e-15
-3.74374e-16
-2.54336e-15
-7.17529e-16
5.36484e-15
-3.61047e-15
3.72981e-16
-3.80896e-16
9.97834e-16
1.75139e-15
6.80503e-15
-5.74289e-15
1.27345e-16
5.83079e-15
-7.03035e-16
-5.11463e-16
3.25831e-15
2.28465e-15
-5.50618e-15
-9.72856e-17
-5.43881e-15
8.02049e-15
-7.61128e-15
1.05043e-14
-4.02651e-15
4.37846e-15
-1.1579e-14
7.50105e-15
4.71127e-15
-5.80606e-15
5.81749e-15
-1.29878e-15
1.47065e-15
4.68601e-17
-2.87746e-15
-4.09836e-16
-4.83596e-15
3.3415e-15
-7.59488e-15
1.74448e-15
4.0976e-15
2.93377e-15
-4.20727e-16
1.4249e-15
3.15513e-16
5.16017e-16
3.29355e-15
5.54693e-15
-5.23752e-15
-1.4249e-15
4.08437e-15
-7.668e-15
9.03539e-15
-5.78916e-15
5.15508e-15
-4.67571e-15
1.41676e-15
-2.60248e-15
1.01799e-14
-3.51467e-15
-5.64979e-15
1.76568e-15
-3.25841e-15
1.05223e-15
-5.18355e-15
6.36892e-15
-6.14806e-15
4.21955e-15
-1.07041e-14
1.34068e-15
3.19267e-15
4.56452e-15
3.28886e-15
2.99447e-15
6.8429e-16
5.65704e-15
5.90122e-15
-8.79405e-15
5.46654e-16
-6.08444e-15
4.05466e-15
-1.40222e-15
-6.10687e-15
-8.81084e-15
5.54941e-15
4.13024e-15
-2.46024e-15
2.65438e-15
6.08496e-15
-6.66853e-15
-3.29203e-15
-7.08277e-15
3.32918e-15
-1.91649e-15
2.62996e-15
8.17485e-15
-1.10524e-15
6.51283e-16
-1.81659e-15
-1.12927e-15
6.52305e-16
-4.45367e-15
1.80253e-15
-1.4089e-15
2.15118e-15
-3.08772e-16
6.75821e-16
-1.824e-15
2.75798e-15
-4.62186e-15
6.42695e-15
-3.83102e-15
-3.8852e-16
-3.11225e-15
6.46733e-15
-3.18382e-15
7.20169e-15
-4.05582e-16
1.23342e-15
-2.43592e-16
1.53645e-15
-7.62344e-16
5.49248e-15
-3.36696e-15
2.80278e-15
4.94351e-15
2.68418e-16
-4.66031e-15
8.52338e-15
-8.11763e-15
-4.52038e-15
3.73045e-15
2.6888e-15
3.86428e-16
-2.66708e-15
-4.06147e-15
1.0218e-15
-7.71669e-15
2.10227e-15
-4.73477e-16
-3.17889e-15
-2.61357e-17
-5.96114e-15
-2.79281e-15
-9.87149e-16
8.97815e-16
-5.16681e-15
-2.23374e-15
-2.46455e-15
2.95582e-15
2.77076e-15
-7.77859e-15
-1.04492e-14
-1.18784e-15
-7.81496e-16
1.87446e-16
1.38556e-15
-3.2251e-15
9.46988e-16
-4.48946e-15
3.35759e-15
-1.58482e-15
-7.97031e-16
8.68003e-15
-4.88181e-15
-8.00728e-15
-4.15976e-16
-1.81746e-15
4.60655e-15
-3.09979e-15
1.88679e-15
5.4272e-15
-3.58458e-16
2.63291e-15
2.00384e-15
2.92515e-15
7.19729e-15
-1.06101e-14
2.85817e-15
2.32767e-16
2.87643e-15
-6.51924e-15
9.22594e-15
-1.08638e-15
3.48985e-15
7.85075e-16
4.23687e-15
3.22507e-15
-9.4706e-15
5.53687e-15
-1.91161e-16
3.7299e-15
-7.51138e-16
-5.78768e-16
-1.03683e-15
3.68546e-15
-1.91025e-15
-5.51666e-16
3.92199e-15
4.38958e-16
3.03046e-15
1.02254e-15
6.89391e-15
-4.62504e-15
7.27368e-15
-4.96809e-15
-2.0958e-15
-4.26247e-16
1.71115e-14
-6.97607e-15
-8.49191e-16
-6.36635e-16
-7.51168e-16
-7.48382e-15
3.59075e-16
-1.37748e-15
1.74378e-15
1.27141e-14
-1.60511e-14
9.42984e-15
-2.7137e-15
-7.16705e-15
2.0946e-15
-2.50785e-15
-4.43994e-15
8.59303e-15
1.89752e-15
2.24938e-16
6.37719e-15
6.44219e-15
7.5091e-16
-9.94259e-16
1.50195e-15
-6.25156e-16
6.40311e-16
6.27736e-15
-3.00454e-15
4.01102e-15
7.08992e-16
-5.08531e-15
5.7609e-15
7.35255e-15
-2.40059e-15
-3.6135e-15
4.43411e-15
6.69046e-15
7.11979e-16
2.35045e-15
7.70252e-15
-5.70512e-15
-5.06885e-15
7.29096e-16
-5.20969e-15
4.31219e-15
-2.42267e-15
-3.53222e-15
6.77231e-16
1.5084e-16
4.79308e-15
3.97278e-15
3.73108e-15
-4.91277e-15
1.58385e-15
-4.14638e-15
-1.94189e-15
3.71457e-16
-1.6567e-14
4.49077e-15
-8.07834e-15
7.75612e-15
2.82084e-15
-5.34356e-15
3.85059e-15
-3.73305e-15
-7.54669e-16
1.48949e-15
-5.5575e-16
-8.36847e-15
6.98436e-15
4.20274e-15
-2.06959e-15
-5.37644e-15
1.05411e-14
-7.70237e-15
-5.92818e-15
-2.40957e-16
-2.23732e-15
-2.51935e-15
2.51465e-15
-3.20431e-16
-1.0761e-15
-3.20543e-16
4.39944e-15
8.02303e-16
4.19913e-15
5.14758e-15
1.6307e-15
4.24746e-15
-6.12631e-15
7.92058e-15
-7.12076e-15
-7.72005e-15
-2.88933e-16
2.83013e-15
-6.29119e-15
2.85419e-15
-1.95925e-16
2.89606e-15
2.76874e-15
2.53586e-16
-1.11963e-15
1.0518e-14
-3.8154e-15
8.42548e-16
5.26221e-15
-1.93339e-15
-8.89199e-16
-3.43082e-15
1.2543e-14
1.52045e-15
-7.00243e-15
-2.51151e-15
6.07501e-16
1.32549e-15
1.76863e-15
-9.69134e-15
-2.02858e-15
1.64201e-15
-6.84421e-15
5.79003e-15
-2.64559e-15
4.48526e-16
-3.00293e-15
1.53969e-15
-6.75518e-15
3.61435e-16
3.86877e-15
4.44958e-16
2.93208e-15
2.20694e-16
-3.00838e-15
-5.47037e-15
1.42738e-15
2.52245e-15
1.2869e-15
-4.13069e-16
-1.14692e-15
-3.53536e-17
-1.57897e-15
6.23248e-15
4.04317e-15
-3.46022e-15
-2.13613e-15
5.61872e-15
3.44719e-15
1.52176e-15
-7.11359e-15
3.40512e-15
-3.62779e-15
-9.5864e-15
-3.32652e-16
3.09389e-15
-2.93996e-15
3.15728e-15
4.04219e-15
1.57052e-15
-1.8206e-15
1.33398e-15
-1.1571e-14
2.98467e-15
5.9721e-15
-5.87193e-15
5.50949e-15
1.08661e-15
-3.37486e-15
1.46152e-15
-4.77455e-15
-5.77854e-15
3.14785e-15
7.74551e-15
-1.60968e-15
4.79523e-15
-9.28415e-15
2.48221e-15
-4.66448e-15
3.41212e-15
1.45738e-15
-2.46614e-16
1.34101e-15
4.60699e-15
-2.75945e-15
1.99371e-15
1.28168e-15
-3.17027e-15
-3.26159e-15
8.17101e-15
1.19062e-15
4.14167e-15
-6.06985e-16
1.98412e-16
2.45359e-15
4.41598e-15
-9.7052e-16
8.39952e-15
-8.39143e-15
-3.25578e-16
4.85292e-16
-4.12058e-15
-1.33819e-14
-1.23928e-15
-8.6735e-16
-4.90091e-15
-3.74008e-15
-3.66099e-16
5.90498e-15
-1.01403e-15
2.0753e-15
2.90533e-15
2.85747e-15
3.07062e-15
-2.01154e-15
3.40974e-15
6.54422e-16
-1.80973e-15
-1.8587e-15
2.75953e-15
-3.69093e-15
-1.28418e-15
-2.41786e-15
1.86635e-15
4.17043e-15
3.21835e-15
-1.34959e-15
-6.13801e-15
3.86205e-16
6.51013e-15
5.50098e-16
-3.49863e-15
1.21941e-14
8.57311e-16
-6.07703e-15
-2.20975e-15
-8.19879e-16
3.37928e-15
5.01384e-15
-8.58552e-15
-3.15289e-15
6.83758e-15
-2.15974e-15
-3.44834e-16
1.84186e-15
5.69229e-15
-5.02917e-15
-1.00742e-15
-1.93785e-15
3.7377e-15
5.87776e-16
-1.84741e-15
-4.55138e-15
4.19106e-16
3.64466e-15
-2.12052e-15
-2.96465e-15
-2.20439e-15
7.51121e-15
4.54806e-15
-1.63824e-15
-6.43754e-16
8.81439e-15
1.30082e-15
4.43164e-15
1.308e-15
-1.87807e-15
4.19067e-15
-9.15292e-15
3.41786e-15
-1.9065e-15
5.17617e-15
-2.83932e-15
1.50984e-15
-2.32075e-15
-2.84027e-15
2.62263e-15
-2.88725e-15
1.60214e-15
-1.20478e-15
4.09785e-15
-6.23398e-15
2.42996e-15
2.41066e-15
3.44484e-15
-4.41481e-16
-2.29048e-15
3.11444e-15
-4.17593e-16
2.40383e-15
-2.22752e-15
7.93041e-15
-9.90132e-16
3.18945e-15
-2.43796e-15
-4.43829e-15
2.04229e-15
2.41729e-15
1.24323e-15
-4.07188e-15
8.38409e-15
-5.79113e-16
2.96636e-15
2.30455e-15
1.77377e-15
-7.59676e-15
6.80352e-15
-3.31696e-15
-2.86583e-16
-2.22024e-15
-3.37444e-15
-3.33775e-15
4.60179e-15
-1.4674e-15
2.10531e-15
-2.36944e-15
-2.1349e-15
-1.74481e-15
4.75865e-15
-2.54582e-15
5.20257e-15
6.29862e-15
4.92848e-15
7.5227e-16
3.80317e-15
-1.71544e-15
-4.85383e-15
3.22349e-15
-6.07284e-15
4.0561e-15
3.24633e-15
-1.11653e-15
-3.93633e-15
-5.55555e-15
3.74289e-15
2.23558e-15
-2.98811e-15
6.16397e-15
-1.71677e-15
-2.45546e-15
6.90712e-15
-3.68401e-15
5.47698e-15
7.68185e-16
-4.33117e-15
-7.06839e-16
-1.81756e-15
-1.22942e-15
9.04784e-16
-1.81148e-15
-8.69456e-15
-3.82525e-15
-6.44291e-15
-1.08649e-15
2.77061e-15
4.15767e-15
1.05942e-15
3.66619e-15
9.29622e-15
-7.61165e-15
2.70075e-15
2.13858e-16
-5.8077e-15
-1.47907e-15
3.21266e-15
-2.12404e-15
-3.44991e-15
-1.66692e-15
1.70176e-15
-2.34359e-15
-1.81608e-15
-3.84273e-15
3.5189e-16
-3.80167e-15
-1.77489e-15
6.46723e-15
-3.55487e-15
9.46406e-16
5.27586e-15
-3.57563e-15
5.81446e-15
5.52605e-15
6.30175e-16
-4.3343e-15
5.19182e-15
-3.19604e-15
1.05201e-15
9.86651e-17
-4.34242e-15
-5.34264e-15
1.62919e-15
-9.36328e-15
-3.35455e-15
-1.35599e-15
-8.29397e-16
3.38038e-15
-2.21269e-15
2.47572e-15
-2.35954e-15
3.86678e-15
-2.18984e-15
3.42699e-15
2.40072e-15
-6.9073e-16
1.19107e-15
3.63752e-15
2.90045e-15
-3.17027e-15
3.5741e-15
2.33499e-15
-1.59001e-15
1.75924e-15
-4.749e-16
-6.81181e-15
-1.07833e-15
-1.73774e-15
1.94968e-15
3.11055e-15
-3.46902e-15
-1.67809e-16
3.96975e-15
4.65218e-15
-2.72135e-15
4.35022e-16
-1.58512e-16
-3.72323e-15
1.44467e-15
6.49111e-18
1.51616e-15
-7.68767e-16
5.57633e-17
2.2406e-15
1.60115e-15
2.56875e-15
1.52372e-15
2.20271e-15
5.74903e-15
-1.81751e-17
-1.52844e-16
3.76495e-16
5.42562e-16
7.0015e-15
-2.16478e-15
-2.44355e-15
1.0147e-15
3.78077e-16
1.42923e-15
-2.1596e-15
1.36605e-15
6.52591e-16
-3.95015e-15
4.04629e-15
-1.60115e-15
-5.5078e-15
4.36857e-15
-5.5737e-15
1.89165e-15
1.6098e-16
-3.65052e-16
3.31208e-15
5.47837e-16
-4.85287e-15
-5.42455e-16
1.20215e-15
-2.32521e-15
-1.15595e-15
1.14863e-15
2.81658e-15
-6.40292e-16
-6.81276e-16
-2.98409e-16
-3.31444e-16
3.01022e-15
1.57032e-16
-6.17024e-16
2.37766e-16
1.29325e-15
-1.17733e-15
3.82793e-16
-6.94185e-16
-1.82361e-16
-2.55384e-15
3.57939e-17
2.5279e-15
-2.58447e-15
6.2729e-16
4.91742e-16
3.68371e-16
-7.96974e-16
2.49921e-15
-3.26969e-15
2.85463e-16
1.55275e-16
-7.59166e-16
6.7535e-16
3.39183e-16
-1.52369e-15
1.7526e-17
7.30105e-16
-1.06136e-16
9.32152e-16
-4.09515e-16
5.44976e-16
-5.49348e-16
4.34652e-16
2.92364e-16
-5.60271e-16
-6.23148e-16
-2.08114e-16
-3.06574e-15
-8.59057e-16
-1.20579e-15
2.10731e-16
-2.74044e-17
-5.0735e-16
7.4588e-16
9.23908e-16
1.90515e-15
2.31109e-15
-2.44901e-15
1.55233e-15
-2.30517e-16
-4.96956e-16
3.10484e-16
4.3814e-17
6.05862e-16
1.03102e-15
-2.23295e-16
-3.66417e-16
-4.8765e-16
1.68646e-15
2.60676e-16
-6.43031e-16
2.74409e-16
-5.9135e-16
-3.45494e-16
-2.04044e-16
1.72339e-15
-2.25855e-16
-1.97427e-15
-1.03011e-15
1.9901e-16
1.19229e-16
-2.08227e-16
1.28093e-16
8.78265e-16
-3.44498e-16
-5.51746e-17
-2.26571e-15
6.59762e-16
2.68644e-15
7.71612e-16
-9.80553e-16
6.43249e-16
9.65583e-17
-1.15023e-15
1.18228e-16
-5.91666e-16
8.54973e-16
3.55698e-16
4.05415e-16
2.03799e-16
-2.77277e-18
6.84629e-16
7.69955e-16
-6.64863e-17
-1.31934e-15
1.40922e-15
1.08288e-15
2.60319e-16
-4.6683e-16
-5.74518e-16
-9.02411e-17
-5.51205e-16
-7.59071e-17
-8.3218e-16
2.02963e-16
9.83081e-16
-5.93978e-16
8.83508e-16
1.51503e-15
5.98226e-16
-1.95606e-16
2.80112e-16
6.91257e-16
6.07623e-17
2.77203e-16
-5.22536e-16
1.51139e-16
7.46177e-16
-1.76483e-15
-1.76498e-16
-5.89844e-16
-4.13801e-17
-1.70233e-17
-5.33065e-16
9.56938e-17
2.94535e-16
-1.335e-15
-2.07969e-16
2.05345e-16
-3.52757e-16
2.26863e-16
5.18313e-16
4.89489e-16
6.04541e-16
-3.60241e-16
7.20515e-16
4.98109e-17
1.5759e-16
8.53217e-16
3.69282e-16
1.03963e-16
3.84192e-16
6.16048e-17
-2.78274e-16
1.34666e-16
1.45888e-16
-1.26105e-16
1.85648e-16
-2.41233e-16
1.66799e-16
3.13575e-16
-5.11416e-16
-1.03256e-16
7.89617e-17
2.17935e-16
-4.77909e-16
-1.26233e-17
-9.84265e-17
-7.78049e-17
2.6201e-15
1.53282e-15
-6.82827e-15
9.4909e-15
-9.34185e-15
2.33261e-15
-1.0941e-15
2.52593e-15
4.0236e-15
-2.3616e-15
-5.44407e-16
-3.77596e-15
-9.17448e-15
-1.10467e-14
1.38716e-14
4.01934e-16
-3.05189e-16
3.35613e-15
5.76487e-15
1.09116e-15
-7.96476e-15
2.28904e-14
6.87774e-15
1.13675e-14
-1.36974e-14
8.58491e-15
8.85941e-15
9.23866e-15
7.43643e-15
4.28698e-15
-1.72375e-14
-3.02087e-14
2.59884e-15
-2.6053e-14
-6.93683e-16
1.6202e-14
1.56514e-14
8.16077e-15
-6.29748e-15
6.11287e-16
6.37967e-15
-2.82812e-15
-1.84774e-15
-1.18662e-15
1.16103e-15
-1.15174e-14
1.72132e-15
-1.5439e-14
9.29012e-15
-1.28894e-15
1.91291e-14
-6.88557e-15
4.0878e-16
6.92378e-15
1.29468e-14
2.65086e-14
-2.48623e-14
1.76901e-14
-3.26691e-15
1.63981e-15
5.88896e-15
-6.77941e-15
2.808e-15
-1.98384e-15
1.26015e-14
1.57384e-14
-8.01913e-15
8.94589e-15
6.9097e-15
-1.36337e-14
-2.99802e-14
7.61828e-15
-2.12406e-15
2.1586e-14
1.70967e-15
-1.57163e-14
2.37465e-14
4.45263e-15
-1.11608e-14
-9.96923e-15
4.26751e-15
-1.53859e-14
-6.76548e-15
1.4357e-14
-7.34146e-15
4.74815e-15
1.84532e-15
-1.21581e-14
-5.6667e-14
4.02214e-14
9.40153e-16
1.00179e-14
-2.02457e-14
-1.209e-14
5.27492e-15
-8.27957e-15
-5.17944e-15
-3.24272e-15
1.51666e-14
2.5466e-14
2.12001e-14
1.86791e-14
-6.01541e-15
4.64021e-15
1.35985e-14
-1.395e-14
-2.2873e-15
-6.79398e-15
1.42134e-14
-2.64684e-15
-1.63881e-14
2.1051e-14
-1.8294e-14
9.6483e-15
1.43028e-15
-1.48303e-14
-2.34283e-14
2.09575e-14
5.72014e-15
7.31732e-15
-4.45769e-14
-2.23585e-14
-1.77942e-14
-4.26707e-16
2.28248e-14
-2.30894e-15
7.04229e-15
-2.27677e-15
1.95051e-16
-6.56304e-15
-2.54398e-14
1.45944e-14
-2.81843e-15
1.74649e-14
3.23592e-14
1.0247e-14
3.41949e-15
3.94667e-15
-2.66741e-15
3.268e-15
7.3854e-15
3.13328e-15
7.69883e-15
1.53922e-14
4.75591e-15
-6.4422e-15
-2.63041e-14
-3.47021e-15
9.90485e-15
7.73114e-15
-1.9002e-14
6.70902e-15
-5.65634e-15
7.37091e-15
1.56031e-15
5.11001e-15
-1.45037e-14
-3.14998e-14
1.91719e-14
1.03055e-14
1.3578e-16
2.37524e-14
-8.93687e-15
-9.05047e-15
-2.70123e-15
5.83964e-15
-2.68865e-14
1.3432e-14
-2.11608e-14
-8.09707e-17
-2.99317e-15
-5.61815e-15
-1.74185e-15
2.41483e-15
1.31592e-14
-8.54243e-15
4.20238e-15
4.04723e-14
9.70625e-15
5.16385e-14
-1.79993e-15
-2.59456e-15
1.41669e-14
7.42686e-15
7.25018e-16
1.15319e-14
-1.12865e-14
-2.51337e-14
4.14259e-14
-2.18428e-15
-1.47412e-14
2.12561e-14
-2.96595e-15
-1.18408e-16
1.12414e-14
6.97286e-15
2.30743e-14
-5.3254e-15
-1.41072e-14
3.3223e-14
-1.62415e-14
1.12785e-14
1.22688e-14
-7.3459e-15
-1.01807e-14
1.82017e-14
7.38834e-15
-6.74303e-15
5.8386e-15
-4.84662e-15
2.60555e-14
-4.14945e-14
3.71008e-15
-1.06347e-14
-3.72759e-15
-6.83782e-15
-3.70395e-15
1.00803e-14
-2.02633e-14
2.39513e-14
8.49157e-15
-8.109e-15
-6.73721e-15
-1.68419e-14
-1.91844e-14
2.15038e-15
-9.89183e-15
1.24647e-14
1.6352e-15
-1.517e-14
-1.32293e-14
-2.91387e-14
1.86388e-14
-5.5964e-15
1.15789e-14
-2.2764e-14
-8.32724e-15
4.26578e-15
6.27697e-15
-5.5562e-15
-1.10312e-14
-3.24819e-15
7.87209e-16
-1.53094e-14
-1.40392e-14
1.26044e-14
-9.43077e-15
-7.03939e-15
1.6046e-15
2.08825e-14
1.41226e-15
-2.07588e-14
3.10665e-15
2.00171e-15
-6.89694e-15
-1.4855e-15
-5.26477e-15
-1.02713e-14
1.28273e-14
4.5327e-15
-1.55664e-14
-1.0077e-14
-7.90537e-15
-1.31514e-15
-1.93266e-14
1.39003e-14
-3.27296e-15
-5.57461e-15
-1.95107e-14
2.2269e-14
2.77107e-16
1.47302e-14
1.5142e-15
5.50475e-15
-1.88616e-14
-8.21175e-15
1.15348e-14
-5.83117e-15
8.79569e-15
5.477e-16
-1.6804e-14
-3.66382e-16
1.99398e-14
-3.29595e-14
1.07506e-14
-6.19698e-14
9.58955e-15
1.82651e-14
2.3336e-14
-2.42674e-15
1.58139e-14
-2.28246e-14
-1.04407e-15
-2.72096e-14
-3.66236e-15
1.2438e-14
7.21535e-15
-4.05678e-15
-2.71182e-14
6.38038e-15
-1.69578e-14
-8.27974e-15
-5.40692e-15
2.24514e-14
2.04869e-14
-3.07383e-14
-5.66661e-15
1.34307e-14
8.52115e-15
1.88784e-15
1.34663e-14
5.31172e-15
-1.96267e-14
3.09739e-14
-1.04263e-14
4.12105e-15
-2.05324e-14
-1.00445e-14
8.88711e-15
-2.27476e-15
1.8405e-14
-1.91666e-14
-2.16491e-14
-4.10357e-15
1.96867e-14
2.60805e-14
1.73757e-14
2.05713e-15
3.22259e-14
-3.09709e-14
3.80807e-15
-1.98624e-15
2.74635e-14
-1.76817e-14
-5.23486e-15
-1.11296e-14
7.83176e-15
1.13639e-14
1.1045e-14
-1.90469e-14
1.39658e-14
1.36222e-14
-2.08504e-14
-2.16919e-15
1.28394e-14
1.7145e-14
-3.51711e-14
2.30317e-14
3.40287e-14
-3.01898e-14
2.90418e-15
-2.00421e-14
1.39271e-14
-1.06229e-14
1.46487e-14
-2.83684e-14
-5.71995e-15
-1.5732e-14
3.72011e-15
4.19856e-14
-3.47867e-14
1.79338e-14
-1.83931e-14
3.49564e-15
-2.48263e-15
-1.84871e-15
6.40101e-15
-1.51799e-14
1.51446e-14
-2.15827e-15
-1.21667e-14
-9.67178e-15
-2.16181e-15
1.705e-14
-1.58134e-14
9.63391e-15
-1.46316e-14
1.1834e-15
4.88008e-15
-8.34945e-15
-3.28733e-15
-1.9294e-15
2.23486e-14
-1.98102e-14
2.01386e-14
-1.46857e-15
-1.60901e-14
3.94236e-15
-2.78028e-14
3.28854e-14
-4.09315e-15
-2.8041e-14
-3.33019e-15
4.6081e-15
-3.10987e-15
4.15963e-15
9.27337e-15
-5.87772e-15
1.24591e-14
2.55092e-15
-7.15773e-15
6.44011e-16
-2.50621e-15
-6.59322e-16
4.4116e-15
4.01184e-16
2.91793e-15
8.01944e-15
6.1608e-15
-4.45242e-15
3.27188e-14
-9.78733e-15
4.33858e-15
1.27623e-14
-1.89325e-14
1.69598e-15
1.16367e-14
-5.68938e-14
5.80463e-14
-4.58824e-15
5.78652e-14
2.8369e-14
-2.49145e-14
1.36808e-14
1.56587e-14
2.59145e-14
8.26676e-15
-7.38956e-15
2.43729e-14
-1.08898e-14
5.92856e-15
-2.87203e-15
-4.69023e-15
-7.9147e-15
7.34777e-16
-3.31751e-15
-3.14772e-15
7.12046e-16
1.15381e-15
-3.32821e-15
-2.53055e-15
-1.51981e-15
4.75207e-16
-7.5045e-15
3.1826e-15
-5.72956e-15
-2.49403e-14
-1.45513e-14
-2.10791e-14
3.26764e-14
-2.49583e-14
-4.22666e-16
-1.7546e-14
7.26606e-15
-7.2505e-15
2.03945e-14
4.58353e-15
8.54455e-16
-5.65922e-16
3.05985e-15
-4.59427e-15
1.11586e-15
5.5215e-15
-4.77348e-16
-1.12254e-14
-1.85598e-15
-1.61815e-15
-2.52657e-16
7.02608e-15
-3.77786e-15
7.34126e-16
7.4388e-15
4.12003e-15
-1.17501e-15
8.71675e-15
1.38871e-15
1.12375e-15
4.35649e-15
2.00389e-15
-7.88934e-15
6.62828e-15
1.21126e-15
-1.52094e-14
-3.21601e-15
9.05362e-15
2.52594e-14
9.89657e-17
8.3229e-15
4.5865e-16
-3.58263e-15
-2.27559e-15
-1.01209e-14
-3.03415e-15
3.4551e-15
-2.32794e-15
-4.78313e-15
4.27778e-15
8.33299e-15
-1.44708e-15
-2.45979e-15
4.70368e-15
7.66842e-16
2.98595e-16
-1.35825e-15
6.88449e-15
-5.97058e-16
-1.60303e-15
-5.56286e-16
-4.36683e-15
8.65761e-16
1.38515e-15
-3.35097e-15
-7.39781e-16
8.36508e-15
1.52593e-15
-2.96199e-15
-6.4675e-15
1.15269e-14
-3.48876e-15
-1.00914e-14
-6.68559e-15
-1.06099e-14
1.26393e-14
-7.86938e-15
-4.70837e-16
5.29388e-15
-2.99898e-15
-1.18623e-16
-2.59877e-15
5.05257e-15
5.54791e-15
7.78103e-15
7.08323e-15
3.10464e-15
1.86592e-15
-3.36221e-15
-4.62349e-15
6.35547e-15
3.13779e-15
3.97773e-15
-3.61836e-15
4.88025e-15
-3.59888e-15
5.18038e-17
-2.96038e-15
8.60885e-15
1.2836e-15
4.00458e-15
-6.01478e-15
-2.45367e-15
3.92618e-15
-3.11931e-16
-1.53292e-14
-2.68679e-16
1.9386e-15
1.01718e-14
-3.01227e-15
-3.42009e-15
-3.30096e-15
-1.11606e-15
-2.32919e-15
1.46795e-15
4.56512e-15
2.94131e-15
-1.41725e-15
-1.23785e-15
-4.20089e-15
8.56978e-16
-3.85261e-16
-5.91052e-15
6.84256e-15
1.82669e-15
-2.88259e-15
-5.97516e-15
5.77655e-16
1.06983e-15
-3.19672e-16
-2.08695e-15
-4.3892e-15
7.9326e-15
-3.75665e-15
-4.30293e-15
-4.99866e-15
7.83693e-15
-1.25728e-15
4.58484e-15
-2.35973e-15
1.01538e-14
-7.48028e-15
-1.82216e-15
-1.02148e-14
8.65331e-15
4.44689e-15
-6.81728e-15
-1.83491e-15
-3.39348e-15
5.41117e-15
-5.78286e-15
3.1647e-17
2.00017e-15
-8.59954e-15
-7.93293e-16
-5.77709e-15
1.04678e-14
1.05701e-14
-4.54513e-15
-2.12498e-15
2.70228e-15
3.50613e-15
-4.32086e-16
-3.14094e-15
3.85007e-16
2.81305e-15
5.25102e-16
3.38972e-15
-4.09968e-15
3.30087e-15
-3.33415e-15
-2.33011e-17
8.96035e-15
-9.26292e-15
9.16549e-15
-6.6399e-15
6.51751e-15
-3.67701e-16
-1.29247e-15
-4.31532e-15
-7.00292e-15
3.24507e-15
6.11701e-15
2.40422e-16
1.35518e-15
3.18613e-15
-1.50416e-15
-1.27199e-15
5.34409e-15
-7.67038e-16
1.50347e-15
-1.02461e-14
-3.23638e-15
-1.63059e-15
-4.87558e-15
5.63885e-16
2.81665e-15
-3.02576e-15
4.71955e-15
-5.14509e-16
2.22046e-15
8.09435e-15
-6.50385e-15
2.05933e-15
1.78822e-15
2.57125e-15
-3.99691e-15
-2.19218e-15
1.78553e-16
1.79866e-15
-2.56537e-15
3.05928e-15
5.64013e-15
-1.83116e-15
-1.49067e-15
4.79691e-15
4.34484e-15
-5.75855e-15
-7.78999e-15
1.16882e-14
1.23257e-15
7.53943e-15
1.81207e-15
-1.35753e-15
1.32591e-15
-2.02405e-15
2.07101e-15
-3.81618e-15
1.30105e-15
1.92964e-15
-5.04051e-15
4.70094e-15
-4.53806e-15
1.07796e-15
-1.59836e-15
-1.02005e-15
1.39399e-15
2.12301e-15
-1.58931e-15
-2.62328e-15
1.11738e-16
5.45556e-15
3.51035e-16
4.60468e-15
-1.0796e-15
-6.96691e-15
-7.28895e-15
-1.3176e-15
-6.69993e-15
5.86784e-15
2.55215e-15
-9.37684e-15
2.90834e-15
1.1577e-15
-4.37328e-15
1.04036e-14
-5.95708e-16
-1.3949e-15
-1.14997e-15
3.34946e-15
-3.302e-15
-3.3076e-16
6.8347e-16
1.43939e-15
3.50292e-15
-2.36349e-15
-1.79681e-15
-2.001e-15
1.3881e-15
-1.21802e-15
2.96178e-15
-3.62038e-15
-7.20048e-15
8.91033e-15
-1.53889e-16
-4.24989e-15
-3.27302e-15
2.4071e-15
-5.72361e-15
4.57768e-15
-6.55256e-15
1.12438e-14
1.4994e-15
1.75947e-15
-1.81643e-15
6.69423e-15
3.41932e-16
1.02964e-14
4.57568e-15
4.77658e-15
-1.12321e-14
-4.72098e-15
8.65063e-15
-3.18439e-15
-7.00649e-15
5.43693e-15
-2.41493e-15
-4.59805e-15
6.4353e-16
2.03127e-15
-3.88058e-15
1.59998e-15
-8.82657e-16
-5.32009e-16
-5.31776e-15
4.57091e-15
2.10983e-15
-6.75341e-16
-1.87298e-15
-8.46987e-16
-4.13045e-15
2.89865e-15
-1.95935e-15
-1.7895e-15
-6.58295e-16
6.50381e-15
-7.78967e-15
8.07104e-15
5.87857e-16
-7.40799e-15
4.13304e-16
-7.46169e-15
-3.14473e-15
1.03826e-15
3.66415e-15
7.5344e-15
-9.89247e-15
-4.31135e-15
7.88898e-15
6.07442e-15
2.9017e-15
4.90503e-15
-4.50668e-15
-7.22495e-15
1.07345e-14
3.19267e-16
-8.47181e-16
5.41263e-15
5.78473e-16
5.96527e-15
2.18298e-15
3.22597e-16
-7.32349e-15
4.70383e-15
4.77176e-17
3.73615e-15
-5.69789e-15
1.04111e-14
-1.89464e-15
5.24205e-15
1.01559e-15
-5.75422e-15
6.87193e-15
-3.8098e-15
3.57513e-15
2.4372e-15
3.80235e-15
-4.04184e-15
-5.11319e-15
-5.8871e-15
1.45684e-15
-1.53953e-15
5.63734e-15
-7.29063e-15
1.02416e-14
-1.18962e-15
-1.14075e-15
2.3368e-16
5.28348e-15
-2.40347e-15
-3.46829e-15
-4.41087e-15
3.63923e-16
-4.39663e-15
-4.79508e-16
-3.32366e-15
2.06744e-15
2.21171e-15
3.72104e-15
4.62861e-16
-1.88028e-15
-8.57479e-16
-1.1663e-14
6.64415e-15
2.73446e-16
-9.50588e-16
-3.01247e-16
-5.87301e-15
4.33621e-15
9.75843e-15
-1.66613e-16
2.86204e-15
2.81533e-15
2.12705e-15
-1.35652e-14
-1.53283e-15
1.12738e-14
-2.70786e-15
-7.81793e-15
1.02209e-15
1.39071e-15
5.73193e-16
-2.18043e-15
-2.34251e-15
6.32743e-15
-7.78643e-16
-2.85118e-15
2.39842e-15
-4.99485e-16
4.60841e-16
-5.96104e-16
2.35472e-16
-4.68363e-16
4.25398e-15
-4.97933e-15
2.65345e-15
1.4602e-16
5.5109e-15
4.39438e-15
-3.19628e-15
-3.96078e-15
-8.15605e-15
6.70442e-15
-8.23409e-16
-2.90712e-15
-3.03907e-15
3.41275e-15
1.32532e-15
-5.25713e-15
1.56735e-15
2.99893e-15
8.26358e-15
-1.13734e-14
4.68029e-15
8.66059e-15
-7.3219e-15
-1.46587e-16
-4.82997e-15
4.54046e-15
-5.22931e-15
4.15736e-16
2.74758e-15
-3.43589e-15
1.95264e-15
4.83475e-15
7.00335e-15
-2.55958e-15
3.50444e-15
-2.25518e-17
-1.07484e-15
1.12508e-15
-6.5243e-15
-4.56525e-15
2.06328e-16
4.23537e-15
2.81114e-15
-1.45128e-15
-7.14975e-17
-7.96167e-15
4.02667e-15
-1.5628e-15
1.50746e-15
3.75507e-15
-4.7671e-15
6.5064e-15
-3.42338e-15
-3.34899e-15
-7.4401e-15
8.2667e-15
-1.11417e-14
5.17758e-15
-8.19948e-15
5.29206e-15
-1.6881e-15
4.75019e-15
-2.80449e-15
-1.91191e-15
-2.45619e-15
2.49742e-15
-2.11637e-15
-3.77806e-15
7.51156e-16
1.95624e-15
-8.08422e-15
4.37451e-15
-3.33929e-17
4.47691e-15
1.39877e-15
-4.69792e-15
-1.14685e-14
1.57416e-15
9.7091e-16
-4.78624e-15
6.69788e-16
4.64314e-15
-1.90249e-15
-5.95094e-16
7.96935e-15
-2.15155e-15
1.50236e-15
-6.59839e-16
-1.25657e-15
5.59637e-15
-1.29077e-14
8.30426e-15
-5.37679e-15
8.05477e-15
-7.80104e-15
2.63319e-15
-4.43211e-15
1.5504e-15
4.82295e-16
7.93582e-15
-4.38036e-15
2.15604e-15
2.97232e-15
-4.2385e-16
-2.68244e-15
4.41184e-15
-8.47584e-15
-7.35928e-16
6.47459e-15
-8.44276e-15
1.28578e-14
1.11404e-15
-9.73946e-15
7.03044e-15
2.70669e-15
-7.65648e-15
9.22855e-15
2.93187e-15
-1.25496e-14
-4.80719e-15
-2.36747e-15
-6.98234e-15
1.26593e-14
-3.57238e-15
-1.32413e-15
1.28067e-14
-4.60223e-15
7.50984e-15
-4.00671e-15
6.3322e-15
-1.03214e-15
-9.767e-17
4.53405e-15
-2.71305e-15
-1.43027e-15
1.0919e-16
-1.62986e-15
6.66841e-15
-3.55563e-15
-4.96748e-17
2.90799e-16
8.56531e-16
-3.51139e-15
4.35264e-15
3.70736e-16
4.5531e-15
-3.57707e-15
-4.12328e-15
-1.22534e-15
-1.03978e-15
3.83848e-15
-8.99557e-15
-3.2186e-15
1.04552e-14
-3.88102e-15
-1.72737e-15
2.8174e-15
-7.63634e-16
-6.79665e-15
1.0012e-14
-3.12268e-16
-1.04854e-14
-1.05243e-15
-4.69454e-15
4.7878e-15
3.3591e-15
-1.80822e-15
-3.85072e-15
-3.79045e-15
-1.73296e-17
8.5377e-16
-1.49803e-15
-8.18033e-15
7.26902e-15
-4.51923e-15
4.39166e-16
3.23287e-16
-1.02491e-15
1.95729e-16
-3.54259e-15
4.3547e-15
9.39235e-15
-3.7597e-15
9.98185e-15
3.963e-16
-1.54031e-15
8.74609e-15
5.66097e-15
-6.74001e-15
2.14686e-15
-1.71052e-15
6.56183e-15
2.26125e-16
9.68025e-16
-9.20934e-15
1.77264e-15
-2.40426e-15
-6.64158e-15
-1.31552e-16
-7.18258e-15
5.41094e-15
-2.44043e-15
2.05571e-15
2.10184e-15
5.63213e-15
3.587e-15
3.30989e-15
-1.34446e-15
5.0391e-16
1.2738e-15
-1.01246e-15
4.6465e-15
4.95628e-15
3.74371e-16
1.70682e-15
-3.97578e-15
8.24388e-16
3.68048e-15
-1.35866e-14
5.24791e-15
5.22312e-16
-9.5605e-15
-1.0113e-15
5.15858e-15
-4.13097e-15
-1.57117e-15
-2.48673e-15
-7.16185e-15
5.03931e-15
4.29273e-15
-5.44693e-15
8.09422e-15
8.14881e-15
1.67823e-15
-3.86538e-16
-7.74723e-15
1.44261e-15
-1.59633e-16
-5.17632e-15
5.37912e-15
-9.06042e-17
-2.0032e-15
-5.74673e-15
4.63409e-15
-8.03076e-16
2.51156e-15
1.86934e-15
-1.00423e-14
-4.07613e-15
-5.4697e-15
6.97348e-15
3.31376e-15
-1.33245e-15
2.64812e-15
1.17174e-14
-2.07286e-15
2.23704e-15
5.81338e-15
-3.66755e-15
6.2817e-15
-7.90331e-15
-6.40127e-15
-3.94792e-16
1.32042e-14
-5.67459e-15
1.95588e-15
-3.56888e-15
-6.97234e-16
-5.64736e-15
7.78171e-15
-3.3591e-15
2.09991e-15
2.7976e-15
4.7205e-15
-1.88778e-15
7.9569e-16
-1.42102e-15
2.50621e-16
-1.6848e-15
-2.61384e-15
9.0492e-15
-3.63489e-15
3.06316e-15
2.36118e-15
8.16694e-16
3.00762e-15
-4.33259e-15
4.36092e-15
-9.05368e-15
5.85258e-15
-9.26233e-15
8.37909e-15
-6.95254e-15
3.39631e-15
0
1.39812e-15
-1.02604e-14
6.80042e-15
-6.72964e-15
3.26843e-15
-1.03703e-14
8.65309e-15
-1.22345e-15
7.17337e-15
-4.64373e-15
2.54459e-15
-1.78974e-15
1.32186e-15
-5.05661e-15
2.97146e-15
-3.05034e-15
4.77175e-15
-6.83002e-15
-6.89933e-16
4.44353e-15
-3.69731e-15
-2.83323e-15
2.26815e-15
-8.16625e-15
6.62669e-16
-6.82667e-15
4.49059e-15
-3.26409e-15
-3.11424e-16
-9.45809e-15
-1.03233e-15
-4.72149e-15
-1.16242e-16
-1.48116e-15
-1.6334e-15
-6.77317e-15
-8.11771e-15
8.0126e-15
2.95061e-15
-3.20325e-15
6.7708e-15
-8.14861e-15
-6.32021e-15
3.1535e-15
7.59372e-15
-6.83168e-15
3.87644e-15
-2.48063e-16
7.38982e-16
-1.2304e-15
-3.81002e-16
2.16887e-15
1.99092e-17
3.84879e-15