/*--------------------------------*- C++ -*----------------------------------*\
| =========                 |                                                 |
| \\      /  F ield         | OpenFOAM: The Open Source CFD Toolbox           |
|  \\    /   O peration     | Version:  2406                                  |
|   \\  /    A nd           | Website:  www.openfoam.com                      |
|    \\/     M anipulation  |                                                 |
\*---------------------------------------------------------------------------*/
FoamFile
{
    version     2.0;
    format      ascii;
    arch        "LSB;label=32;scalar=64";
    class       volScalarField;
    location    "0/fluidRegion";
    object      epsilon;
}
// * * * * * * * * * * * * * * * * * * * * * * * * * * * * * * * * * * * * * //

dimensions      [0 2 -3 0 0 0 0];

internalField   nonuniform List<scalar> 
8595
(
0.159435
0.435373
0.765478
1.1746
1.62066
2.07733
2.52146
2.78255
2.84527
2.73542
2.51416
2.22916
1.97605
1.70317
1.59426
1.51558
1.62407
2.06233
2.86982
3.01252
3.01389
2.95349
2.86056
2.75408
2.64143
2.52637
2.41149
2.29854
2.18874
2.08289
1.98151
1.88488
1.79316
1.70636
1.62444
1.54727
1.4747
1.40654
1.34259
1.28264
1.22646
1.17382
1.12451
1.07831
1.03498
0.994294
0.956019
0.919891
0.88562
0.852865
0.821191
0.790106
0.758717
0.726899
0.692083
0.551341
0.229217
0.108961
0.391644
0.612242
0.887769
1.18122
1.48931
1.78352
1.97501
2.03799
1.98106
1.84515
1.65552
1.47983
1.29232
1.18843
1.06681
1.08199
1.2688
1.28947
1.35641
1.41419
1.45747
1.491
1.51755
1.53569
1.54599
1.5496
1.54777
1.54163
1.53221
1.52035
1.50677
1.49203
1.47656
1.46074
1.44481
1.42899
1.41342
1.39818
1.38336
1.36898
1.35503
1.34148
1.32823
1.31516
1.30206
1.28863
1.27439
1.25863
1.24032
1.21781
1.18902
1.14937
1.09935
1.0078
0.751831
0.127931
0.131327
0.361375
0.57997
0.879587
1.23319
1.64094
2.00815
2.23882
2.30832
2.23789
2.07339
1.87088
1.67668
1.4777
1.3262
1.16506
1.0819
1.11339
1.08149
1.10489
1.13297
1.15822
1.18286
1.20615
1.22672
1.24398
1.25795
1.26889
1.27716
1.28316
1.28729
1.2899
1.29131
1.29178
1.29153
1.29075
1.28957
1.28809
1.28642
1.28461
1.28269
1.28068
1.27858
1.27636
1.27397
1.27128
1.26815
1.26432
1.25938
1.25268
1.24316
1.22933
1.20737
1.17713
1.11122
0.808254
0.148831
0.135078
0.325732
0.545755
0.888628
1.3467
1.90902
2.36918
2.63173
2.68647
2.59341
2.41099
2.19224
1.97036
1.74215
1.53893
1.32589
1.15282
1.05379
1.00906
1.02321
1.04218
1.05977
1.07865
1.09756
1.11524
1.13114
1.14517
1.15738
1.1679
1.17692
1.18463
1.19124
1.19691
1.20182
1.20609
1.20984
1.21316
1.21611
1.21877
1.22115
1.2233
1.22522
1.22691
1.22835
1.22951
1.2303
1.23063
1.23032
1.2291
1.22657
1.22204
1.21468
1.2017
1.18427
1.13946
0.842371
0.162011
0.126148
0.282378
0.501609
0.906482
1.51899
2.23796
2.73241
2.97073
2.99316
2.8866
2.69865
2.4706
2.22986
1.9776
1.73118
1.46891
1.21808
0.996663
0.950772
0.967751
0.987657
1.00518
1.02387
1.0425
1.05992
1.07578
1.09009
1.10292
1.11438
1.12461
1.13377
1.142
1.14943
1.15618
1.16235
1.16801
1.17325
1.1781
1.18262
1.18683
1.19074
1.19437
1.19771
1.20073
1.20341
1.20568
1.20744
1.20854
1.20875
1.20775
1.205
1.19996
1.1904
1.17886
1.1446
0.863515
0.171932
0.11065
0.244239
0.481347
1.01363
1.85199
2.58209
3.00482
3.17088
3.14901
3.0193
2.82818
2.60422
2.36437
2.10773
1.83995
1.54759
1.2457
0.932848
0.886271
0.909804
0.934724
0.955839
0.977559
0.998655
1.01809
1.03571
1.05162
1.06596
1.07888
1.09055
1.10113
1.11077
1.1196
1.12772
1.13524
1.14222
1.14873
1.15482
1.16053
1.16588
1.1709
1.17558
1.17992
1.18392
1.18752
1.19068
1.1933
1.19525
1.19632
1.19623
1.19447
1.19068
1.18273
1.1742
1.14455
0.881327
0.180313
0.0985614
0.24641
0.589216
1.38297
2.35797
2.92892
3.16825
3.18467
3.07381
2.90455
2.71207
2.50899
2.29661
2.06583
1.81084
1.52263
1.2098
0.850554
0.806321
0.839865
0.872572
0.899573
0.926342
0.951663
0.974726
0.995483
1.01416
1.03096
1.04611
1.05982
1.07227
1.08365
1.0941
1.10374
1.11268
1.12099
1.12876
1.13603
1.14285
1.14926
1.15526
1.16088
1.16611
1.17095
1.17537
1.17931
1.18272
1.18545
1.18735
1.18815
1.18742
1.18486
1.17838
1.17226
1.14482
0.899283
0.187933
0.0951937
0.416006
1.16052
2.35842
3.04574
3.23301
3.14845
2.94536
2.71401
2.49813
2.31023
2.14414
1.98478
1.81229
1.60989
1.36926
1.09436
0.742735
0.707558
0.755587
0.798582
0.833235
0.866131
0.896988
0.924834
0.949758
0.972096
0.992146
1.01019
1.0265
1.04132
1.05485
1.06727
1.07872
1.08932
1.09918
1.10838
1.11698
1.12504
1.1326
1.13968
1.14632
1.15251
1.15826
1.16356
1.16836
1.17262
1.17625
1.17909
1.18097
1.18149
1.18047
1.1758
1.17248
1.1467
0.91974
0.195227
0.137003
1.65598
3.3044
3.90473
3.73364
3.302
2.8318
2.41959
2.09516
1.85636
1.68751
1.56724
1.47144
1.37462
1.25344
1.09748
0.904646
0.612615
0.59464
0.661224
0.71603
0.759213
0.799018
0.835974
0.869123
0.898705
0.925167
0.948891
0.97023
0.98951
1.00702
1.02299
1.03764
1.05114
1.06363
1.07524
1.08604
1.09614
1.10558
1.11443
1.12272
1.13049
1.13775
1.14452
1.15079
1.15656
1.16179
1.16641
1.17035
1.17345
1.17544
1.17628
1.17386
1.17404
1.1503
0.941255
0.202431
0.40679
7.2744
6.63879
5.14506
3.82019
2.8299
2.13685
1.66909
1.36134
1.16394
1.04152
0.968445
0.923813
0.888202
0.842107
0.775823
0.679012
0.477252
0.48151
0.567146
0.632796
0.683299
0.729963
0.772911
0.811317
0.845562
0.876184
0.903639
0.928339
0.950661
0.970933
0.989435
1.0064
1.02203
1.03648
1.04989
1.06237
1.07402
1.08492
1.09512
1.10467
1.11363
1.12202
1.12987
1.13719
1.14398
1.15024
1.15594
1.16105
1.1655
1.16909
1.17198
1.1721
1.17642
1.15525
0.965746
0.210734
0.229449
0.219926
0.212616
0.205145
0.197093
0.187772
0.176122
0.159965
0.134096
0.266159
1.00491
0.984059
0.968871
0.957095
0.951223
0.948037
0.944043
0.929144
0.895618
0.721095
1.14048
1.13492
1.13675
1.14793
1.17057
1.20638
1.25304
1.29397
1.2728
1.04153
1.15373
1.14869
1.14979
1.15915
1.18003
1.21676
1.27279
1.34075
1.36293
1.09643
1.13845
1.13724
1.14085
1.15163
1.17341
1.21186
1.27394
1.35897
1.41278
1.14845
1.1298
1.13049
1.13548
1.14721
1.16966
1.20929
1.2754
1.37299
1.45423
1.20097
1.11907
1.12115
1.12729
1.14002
1.16348
1.20463
1.27441
1.38232
1.48749
1.25458
1.10812
1.11112
1.11812
1.13177
1.15633
1.19923
1.2727
1.38986
1.51696
1.31058
1.0966
1.10023
1.10793
1.12244
1.14821
1.19307
1.2704
1.39646
1.54459
1.36978
1.08453
1.08864
1.09692
1.11226
1.13931
1.18632
1.26773
1.4027
1.57173
1.43285
1.07188
1.07634
1.08515
1.10132
1.12971
1.17902
1.26473
1.40883
1.59919
1.50036
1.05858
1.06333
1.07263
1.08964
1.11943
1.17118
1.2614
1.41495
1.62746
1.57284
1.04459
1.04959
1.05936
1.07721
1.10847
1.16276
1.25771
1.42109
1.6568
1.65077
1.02983
1.03505
1.04529
1.06401
1.09678
1.15371
1.25358
1.42721
1.68738
1.73465
1.01424
1.01968
1.03038
1.04998
1.08431
1.14398
1.24893
1.43325
1.71927
1.82501
0.997766
1.0034
1.01457
1.03507
1.071
1.13349
1.2437
1.43912
1.75248
1.92239
0.980337
0.986159
0.997805
1.01923
1.0568
1.12217
1.23778
1.44471
1.78697
2.02736
0.961892
0.967898
0.980021
1.00238
1.04163
1.10994
1.23107
1.44991
1.8227
2.14055
0.94237
0.948554
0.961158
0.984472
1.02543
1.09673
1.22348
1.45459
1.85955
2.26264
0.921713
0.92807
0.941161
0.965442
1.00813
1.08246
1.21492
1.45859
1.89741
2.39435
0.899865
0.906393
0.919974
0.945236
0.989671
1.06706
1.20526
1.46177
1.93608
2.53646
0.876772
0.88347
0.897553
0.923813
0.970007
1.05046
1.19443
1.46395
1.97537
2.68981
0.852388
0.859257
0.873848
0.90112
0.949103
1.03263
1.18232
1.46495
2.015
2.85532
0.826675
0.833719
0.848829
0.877123
0.926901
1.0135
1.16894
1.4646
2.05464
3.03394
0.799606
0.806836
0.822478
0.851806
0.903382
0.993025
1.15412
1.46293
2.09392
3.22672
0.771167
0.778603
0.794798
0.825179
0.878549
0.971182
1.1378
1.45964
2.13271
3.43475
0.741362
0.749038
0.76582
0.797278
0.852441
0.947995
1.11993
1.45449
2.17075
3.65916
0.71022
0.71819
0.735608
0.768181
0.825144
0.923537
1.10053
1.44733
2.20727
3.90111
0.677801
0.686145
0.704273
0.738023
0.796803
0.897949
1.07968
1.43802
2.24168
4.1617
0.644201
0.65304
0.67199
0.707011
0.767655
0.871468
1.05755
1.42652
2.27329
4.44197
0.609571
0.619078
0.639015
0.675452
0.738051
0.84447
1.03447
1.41286
2.30133
4.74264
0.574129
0.584555
0.605716
0.643795
0.708515
0.817529
1.01097
1.39727
2.32491
5.06389
0.538185
0.549887
0.572621
0.612681
0.679807
0.7915
0.987889
1.3802
2.343
5.40477
0.502149
0.51563
0.540441
0.582996
0.653002
0.767629
0.966508
1.36247
2.35429
5.7621
0.466558
0.482532
0.510159
0.555998
0.629667
0.747779
0.9488
1.34544
2.35697
6.12824
0.432492
0.451992
0.483524
0.533862
0.612484
0.735159
0.938256
1.33178
2.34872
6.48534
0.401967
0.426388
0.463396
0.520078
0.60573
0.734934
0.940706
1.32655
2.32756
6.79193
0.37423
0.405513
0.450667
0.516991
0.613458
0.752984
0.96333
1.33524
2.28549
6.95812
0.344288
0.387437
0.446999
0.530592
0.646796
0.806076
1.02738
1.37518
2.2014
6.76699
0.3656
0.421233
0.500342
0.609555
0.758046
0.955397
1.21128
1.54481
2.15978
4.55963
0.320001
0.34315
0.38033
0.437861
0.523214
0.644036
0.808666
1.03077
1.43172
2.97752
0.375387
0.382265
0.399895
0.432024
0.481885
0.548974
0.631014
0.742748
0.967265
1.98163
0.425503
0.418224
0.422174
0.437061
0.460093
0.490203
0.532433
0.59951
0.749108
1.50424
0.445833
0.423897
0.413322
0.410534
0.414678
0.427416
0.451313
0.495261
0.601902
1.18397
0.438403
0.406355
0.386645
0.374749
0.370739
0.374525
0.387386
0.415994
0.492585
0.940645
0.40866
0.371535
0.348288
0.334389
0.327939
0.327748
0.33441
0.353187
0.409833
0.759468
0.366098
0.327661
0.304941
0.292394
0.286209
0.284567
0.28771
0.299847
0.341781
0.614579
0.317037
0.280592
0.260647
0.250174
0.244957
0.242997
0.244244
0.251924
0.28263
0.493496
0.266368
0.231923
0.214847
0.206842
0.203277
0.201982
0.202637
0.207606
0.229862
0.390108
0.215944
0.183922
0.16993
0.164519
0.162816
0.1626
0.163368
0.166765
0.182654
0.301377
0.168555
0.139277
0.128331
0.125329
0.125343
0.126223
0.127379
0.129877
0.140957
0.225802
0.125962
0.0998768
0.0918935
0.0909597
0.092342
0.0940942
0.0956271
0.097573
0.105023
0.162794
0.0892414
0.066809
0.061585
0.0622637
0.0645477
0.0668219
0.068579
0.0701399
0.074887
0.111577
0.0597832
0.041223
0.0382323
0.0398909
0.0425138
0.0448935
0.0466422
0.0478588
0.0506479
0.0716628
0.0380789
0.0227828
0.0211624
0.0230399
0.0254396
0.0275454
0.0290874
0.0300109
0.0314492
0.0413913
0.0262256
0.0127508
0.0116445
0.0128571
0.0144539
0.0158618
0.0168783
0.0173314
0.0178214
0.020554
0.017486
0.00659414
0.00566668
0.00621616
0.00683695
0.00704795
0.00672021
0.00578847
0.0042736
0.00628473
2.9305
2.38607
2.16218
2.05126
2.04909
2.15351
2.36374
2.67252
3.07655
3.54396
3.85206
0.598604
0.644046
0.677554
0.71055
0.738764
0.769636
0.813196
0.874609
0.943253
0.973553
0.956039
0.307655
0.322395
0.348277
0.373849
0.394521
0.412626
0.430287
0.446572
0.454958
0.438866
0.39709
0.205022
0.208876
0.224506
0.240871
0.254313
0.264861
0.272359
0.275608
0.271362
0.253447
0.223513
0.144741
0.150218
0.162312
0.174165
0.183557
0.190123
0.193561
0.193259
0.187522
0.173695
0.153541
0.106984
0.113813
0.124132
0.133604
0.140825
0.145394
0.147081
0.145663
0.140281
0.129842
0.115967
0.0815005
0.0881803
0.0970692
0.104992
0.110887
0.114371
0.115303
0.113727
0.109133
0.101252
0.0915659
0.0635196
0.069043
0.0764983
0.0832099
0.0882009
0.0910789
0.0917521
0.0903335
0.08659
0.0806143
0.073639
0.0507466
0.0544958
0.0603756
0.0659533
0.0702089
0.0726921
0.0733017
0.0721573
0.0691798
0.064604
0.0593621
0.0419606
0.0435715
0.0476629
0.0520056
0.055516
0.0576575
0.0582663
0.0574131
0.0550889
0.0515597
0.0474812
0.0364258
0.0357166
0.037792
0.0406593
0.0432232
0.0448858
0.0454115
0.0448084
0.0430671
0.0404258
0.0373265
0.0337894
0.0306974
0.0306264
0.0318208
0.0332258
0.0342384
0.0345796
0.0341987
0.0330306
0.031231
0.0290791
0.0343139
0.0288907
0.0267039
0.0261903
0.0263369
0.0265704
0.0266079
0.0263651
0.0257215
0.0247083
0.0234911
0.0385358
0.0309012
0.0267662
0.0247236
0.0237575
0.0232879
0.0230066
0.0227813
0.0224824
0.0220442
0.0215569
0.0459456
0.0364024
0.0305729
0.0272055
0.0252681
0.0241526
0.0235086
0.0231557
0.0229735
0.0228453
0.0228079
0.0552557
0.044191
0.0369625
0.0324686
0.0296739
0.027952
0.0269173
0.0263506
0.0261311
0.0261126
0.0262854
0.065547
0.0533053
0.04497
0.0395577
0.0360346
0.0337695
0.0323529
0.0315375
0.0311946
0.031162
0.0313913
0.0761577
0.0630079
0.0538363
0.0477268
0.0436376
0.0409369
0.0391987
0.0381543
0.0376633
0.0375641
0.0377766
0.08663
0.0727418
0.0629543
0.0563564
0.0518789
0.0488857
0.046936
0.0457433
0.0451224
0.0449658
0.045152
0.0966921
0.0821206
0.0718645
0.0649457
0.0602394
0.0570951
0.0550534
0.0538092
0.0531579
0.0529974
0.0531915
0.106287
0.0909582
0.0802968
0.0731668
0.0683543
0.0651796
0.0631588
0.0619661
0.0613787
0.0612857
0.0615436
0.11555
0.0992494
0.0881581
0.0808621
0.0760159
0.0728919
0.0709731
0.0699097
0.0694599
0.0694969
0.0698726
0.124809
0.107173
0.0955318
0.0880482
0.0831884
0.0801548
0.0783848
0.077498
0.0772289
0.0774319
0.0779566
0.134448
0.114958
0.102516
0.0947217
0.0897666
0.0867664
0.0851005
0.0843552
0.0842422
0.084594
0.0852599
0.144285
0.122543
0.109085
0.100864
0.0957176
0.0926681
0.0910309
0.0903596
0.0903458
0.0907967
0.0915515
0.154784
0.130379
0.115705
0.106952
0.101526
0.0983501
0.0966694
0.0960047
0.0960272
0.0965221
0.0973117
0.166948
0.139276
0.123122
0.113691
0.107876
0.104485
0.102683
0.101955
0.101949
0.102433
0.103206
0.182426
0.150511
0.132458
0.12211
0.115744
0.112013
0.109988
0.109108
0.108997
0.109406
0.110105
0.204164
0.166355
0.145661
0.133955
0.126734
0.122436
0.120009
0.118833
0.118496
0.118733
0.119273
0.236826
0.190633
0.166101
0.152267
0.14364
0.138356
0.135199
0.133467
0.132699
0.132596
0.132848
0.289702
0.231502
0.201266
0.183933
0.172849
0.165744
0.161186
0.158359
0.156737
0.15596
0.155685
0.383429
0.308984
0.270693
0.247568
0.231985
0.221263
0.21375
0.208501
0.204918
0.202608
0.201229
0.569406
0.479893
0.435431
0.405441
0.382981
0.365565
0.351715
0.340589
0.331678
0.324697
0.320056
1.02164
0.96171
0.949986
0.938506
0.925454
0.910254
0.893075
0.874206
0.85397
0.832576
0.811756
2.06829
2.5572
2.92638
3.24608
3.50822
3.72079
3.8874
4.01179
4.09731
4.14731
4.16298
0.272771
0.366284
0.430478
0.480485
0.519464
0.549151
0.570599
0.584515
0.591798
0.59318
0.588349
0.5769
0.560021
0.542783
0.527736
0.515955
0.507756
0.502837
0.499915
0.500282
0.513471
0.541142
0.583515
0.634275
0.681057
0.718574
0.744757
0.759513
0.76077
0.747027
0.71735
0.669936
0.589966
0.472933
0.326322
0.968308
0.958218
0.937893
0.91784
0.899893
0.884295
0.870763
0.858949
0.848656
0.838969
0.829237
0.819259
0.810032
0.803858
0.800346
0.79872
0.797994
0.79706
0.794798
0.791067
0.790543
0.795383
0.80461
0.818102
0.832624
0.847008
0.861023
0.875741
0.891468
0.908746
0.928525
0.951851
0.97718
0.996529
1.0045
1.15759
1.16188
1.16658
1.17131
1.17594
1.18038
1.18463
1.18871
1.19262
1.19652
1.20047
1.20445
1.20829
1.21164
1.21435
1.2163
1.21741
1.21767
1.21707
1.21584
1.21462
1.21333
1.21134
1.20874
1.20541
1.20137
1.19666
1.19118
1.1849
1.17788
1.17022
1.16212
1.15396
1.14761
1.14327
1.17761
1.17953
1.1815
1.18349
1.18556
1.18774
1.19009
1.19257
1.19517
1.19797
1.20105
1.20442
1.20787
1.21089
1.21333
1.21512
1.21621
1.2166
1.21632
1.21541
1.21383
1.21169
1.20893
1.20563
1.20206
1.19826
1.19424
1.18985
1.18507
1.17998
1.17465
1.16919
1.16375
1.15938
1.15613
1.17146
1.17038
1.16933
1.16849
1.16794
1.16773
1.16788
1.16835
1.16909
1.17008
1.17134
1.17288
1.17461
1.17622
1.17753
1.17845
1.17891
1.17887
1.17834
1.17729
1.17563
1.17347
1.17097
1.1683
1.16568
1.16308
1.16046
1.15771
1.15484
1.15189
1.14893
1.14603
1.14332
1.14123
1.13967
1.16997
1.16721
1.16459
1.16231
1.16043
1.159
1.15799
1.15735
1.15702
1.15692
1.15701
1.15728
1.15769
1.1581
1.15839
1.15846
1.15825
1.15773
1.15688
1.15572
1.15419
1.15235
1.15038
1.14841
1.14655
1.14475
1.14296
1.14112
1.13924
1.13734
1.13547
1.1337
1.13215
1.13106
1.13032
1.16579
1.16187
1.15818
1.1549
1.15208
1.14978
1.14796
1.14655
1.14546
1.14458
1.14385
1.14322
1.14268
1.14223
1.14175
1.14117
1.14044
1.13953
1.13844
1.13715
1.13569
1.13405
1.13241
1.13087
1.12946
1.12814
1.12685
1.12555
1.12424
1.12297
1.12175
1.12065
1.11976
1.11924
1.11903
1.16103
1.15641
1.15195
1.14793
1.14443
1.1415
1.13909
1.13711
1.13546
1.13402
1.13269
1.13139
1.13014
1.12901
1.12793
1.12684
1.12568
1.12444
1.12311
1.12169
1.12021
1.11868
1.11722
1.11594
1.1148
1.11376
1.11276
1.11177
1.1108
1.10988
1.10905
1.10833
1.10782
1.10762
1.10767
1.15554
1.15044
1.14537
1.14074
1.1367
1.13327
1.1304
1.12798
1.12591
1.12405
1.12225
1.12046
1.11867
1.11702
1.11547
1.11397
1.11246
1.11094
1.10938
1.10781
1.10624
1.10472
1.10334
1.10217
1.10117
1.10027
1.09942
1.0986
1.09781
1.09709
1.09646
1.09597
1.09569
1.09566
1.09585
1.14948
1.14405
1.13842
1.13327
1.12876
1.12492
1.12166
1.11889
1.11648
1.11428
1.11212
1.10993
1.10771
1.10564
1.10372
1.10188
1.10007
1.09828
1.09651
1.09477
1.09308
1.09149
1.0901
1.08896
1.088
1.08716
1.08637
1.08562
1.08492
1.0843
1.08378
1.08341
1.08325
1.08332
1.08359
1.14291
1.13718
1.13104
1.1254
1.12047
1.11625
1.11267
1.10959
1.1069
1.10441
1.10195
1.09943
1.09685
1.09444
1.09219
1.09005
1.08798
1.08595
1.08396
1.08204
1.0802
1.07849
1.07703
1.07586
1.07489
1.07404
1.07326
1.07252
1.07184
1.07125
1.07078
1.07046
1.07037
1.0705
1.07081
1.13584
1.12982
1.12316
1.11706
1.11173
1.10717
1.10328
1.09993
1.09698
1.09424
1.09152
1.08871
1.08582
1.0831
1.08057
1.07816
1.07584
1.07357
1.07138
1.06926
1.06724
1.06539
1.06382
1.06257
1.06155
1.06066
1.05984
1.05908
1.05838
1.05778
1.0573
1.057
1.05694
1.05709
1.05742
1.12827
1.12193
1.11476
1.1082
1.10248
1.09759
1.09341
1.08979
1.0866
1.08363
1.08068
1.0776
1.07444
1.07144
1.06865
1.06598
1.06342
1.06092
1.05851
1.05618
1.05398
1.05196
1.05024
1.04888
1.04778
1.04683
1.04595
1.04513
1.04439
1.04375
1.04325
1.04293
1.04286
1.04303
1.04337
1.1202
1.1135
1.1058
1.09878
1.09267
1.08744
1.08297
1.07911
1.07569
1.0725
1.06931
1.06599
1.06256
1.0593
1.05626
1.05335
1.05054
1.04782
1.04518
1.04264
1.04024
1.03803
1.03615
1.03466
1.03345
1.03241
1.03146
1.03056
1.02975
1.02905
1.0285
1.02815
1.02806
1.02823
1.02857
1.11161
1.1045
1.09625
1.08875
1.08224
1.07668
1.07192
1.0678
1.06416
1.06075
1.05735
1.05379
1.0501
1.04658
1.04329
1.04015
1.0371
1.03414
1.03127
1.02851
1.02589
1.02347
1.02141
1.01977
1.01845
1.0173
1.01625
1.01527
1.01437
1.0136
1.01299
1.01259
1.01247
1.01262
1.01296
1.10246
1.0949
1.08608
1.07808
1.07116
1.06524
1.06019
1.05582
1.05195
1.04833
1.0447
1.04091
1.03697
1.0332
1.02967
1.02628
1.02299
1.01979
1.01668
1.01368
1.01083
1.00819
1.00593
1.00413
1.00267
1.00141
1.00025
0.999168
0.998177
0.997318
0.996632
0.996167
0.996011
0.996142
0.996477
1.09272
1.08467
1.07524
1.06672
1.05936
1.05309
1.04774
1.04311
1.03901
1.03517
1.03133
1.0273
1.0231
1.01908
1.0153
1.01166
1.00813
1.00468
1.00132
0.998079
0.994982
0.992108
0.989631
0.987657
0.986049
0.984656
0.983381
0.982183
0.981085
0.980129
0.979357
0.978821
0.978616
0.97872
0.979044
1.08236
1.07375
1.06369
1.05463
1.04681
1.04016
1.0345
1.0296
1.02527
1.02122
1.01715
1.01289
1.00843
1.00416
1.00013
0.99624
0.992451
0.988745
0.98513
0.981625
0.97827
0.975143
0.972436
0.970272
0.968505
0.966972
0.965567
0.964244
0.963029
0.961965
0.961098
0.960482
0.960221
0.960293
0.960602
1.07133
1.06211
1.05137
1.04173
1.03344
1.0264
1.02042
1.01525
1.01069
1.00641
1.00212
0.997614
0.992906
0.988378
0.984089
0.979943
0.975892
0.97192
0.968034
0.964257
0.960629
0.957234
0.954281
0.951912
0.949974
0.94829
0.946744
0.945286
0.943944
0.942762
0.941791
0.941086
0.940764
0.9408
0.941089
1.05956
1.04967
1.03822
1.02797
1.01919
1.01175
1.00543
0.999988
0.995181
0.990681
0.986166
0.98142
0.976453
0.971667
0.967119
0.96271
0.958389
0.95414
0.949974
0.945911
0.941996
0.938316
0.935102
0.932516
0.930393
0.928547
0.926849
0.925246
0.923766
0.922458
0.921373
0.920574
0.920185
0.92018
0.920448
1.04699
1.03637
1.02416
1.01327
1.00397
0.996112
0.989459
0.983735
0.978687
0.973961
0.969221
0.964234
0.959009
0.953963
0.949153
0.944475
0.939877
0.935344
0.930886
0.926525
0.922309
0.91833
0.914839
0.91202
0.909701
0.907682
0.905821
0.904063
0.902436
0.900992
0.899786
0.898883
0.898421
0.898371
0.898617
1.03354
1.02212
1.0091
0.997547
0.987704
0.979415
0.972418
0.96641
0.96112
0.956171
0.951206
0.945981
0.940498
0.935195
0.930121
0.92517
0.920291
0.915466
0.910706
0.906037
0.901506
0.897213
0.893429
0.890366
0.887839
0.885635
0.883603
0.88168
0.879897
0.878308
0.876972
0.87596
0.875419
0.875321
0.875542
1.0191
1.00682
0.992939
0.980685
0.970283
0.961555
0.954208
0.947917
0.942388
0.937218
0.932034
0.926576
0.920841
0.915283
0.909946
0.904723
0.899558
0.894435
0.889367
0.884379
0.879522
0.874902
0.870814
0.867493
0.864748
0.86235
0.860135
0.858039
0.856091
0.854351
0.852879
0.851751
0.851129
0.850981
0.851175
1.00356
0.99033
0.975547
0.962562
0.951586
0.942412
0.934716
0.928145
0.922383
0.917001
0.911605
0.905923
0.899944
0.894139
0.888545
0.883051
0.877601
0.872178
0.866796
0.861483
0.856292
0.851334
0.846929
0.843342
0.840368
0.837768
0.835364
0.833086
0.830968
0.82907
0.827458
0.82621
0.825504
0.825305
0.825473
0.986766
0.972513
0.956775
0.943031
0.931468
0.921847
0.913808
0.906966
0.900981
0.895397
0.889804
0.883911
0.877704
0.871664
0.865821
0.860063
0.854331
0.848609
0.842913
0.837273
0.831743
0.82644
0.821711
0.81785
0.814641
0.811834
0.809234
0.806771
0.804479
0.80242
0.800665
0.799297
0.798508
0.798259
0.798404
0.968542
0.953185
0.936442
0.921916
0.909761
0.899697
0.891325
0.884227
0.878036
0.872268
0.866495
0.860413
0.853998
0.847742
0.841665
0.835654
0.82965
0.823637
0.817631
0.811665
0.805796
0.800148
0.795091
0.790954
0.787508
0.78449
0.781693
0.779044
0.776577
0.774359
0.772463
0.770978
0.770111
0.769817
0.769944
0.948674
0.93213
0.914334
0.899008
0.886263
0.875769
0.867084
0.859751
0.853377
0.847449
0.841523
0.835278
0.828682
0.822236
0.815948
0.809702
0.803442
0.797149
0.790845
0.784563
0.778364
0.772375
0.766996
0.762587
0.758905
0.75568
0.75269
0.749858
0.747223
0.744853
0.742824
0.741231
0.740295
0.739965
0.740086
0.926905
0.909088
0.890196
0.874061
0.860736
0.849836
0.840865
0.833329
0.826801
0.820745
0.814699
0.808327
0.801588
0.794984
0.788514
0.782061
0.775568
0.769019
0.762436
0.755856
0.749344
0.743031
0.737343
0.732673
0.728767
0.725345
0.722172
0.71917
0.716381
0.713874
0.711729
0.710045
0.709058
0.708709
0.708839
0.902921
0.883748
0.863724
0.846782
0.832899
0.821627
0.81241
0.804709
0.798068
0.791924
0.785799
0.779346
0.77251
0.765791
0.759177
0.752552
0.74586
0.739086
0.732255
0.725408
0.718612
0.712004
0.706035
0.701129
0.69702
0.693421
0.690086
0.686938
0.68402
0.681403
0.679171
0.677426
0.676415
0.676072
0.676238
0.876348
0.855742
0.83456
0.816823
0.802419
0.79082
0.781408
0.773593
0.766888
0.760704
0.754552
0.748071
0.741193
0.734412
0.727703
0.720954
0.714107
0.707153
0.70012
0.69305
0.686016
0.67916
0.672955
0.667853
0.663577
0.659836
0.656375
0.653119
0.650113
0.64743
0.645155
0.643396
0.642403
0.642105
0.642344
0.846743
0.824638
0.802283
0.783779
0.768902
0.757035
0.747488
0.739619
0.732907
0.726741
0.720622
0.714178
0.707325
0.700543
0.693801
0.686985
0.680043
0.672969
0.665794
0.658565
0.65136
0.644326
0.637953
0.632717
0.62833
0.624502
0.62097
0.617666
0.614635
0.611953
0.609704
0.607999
0.607087
0.606889
0.607256
0.813592
0.789945
0.766415
0.747181
0.731889
0.719824
0.710212
0.702357
0.695702
0.689619
0.683601
0.677265
0.670514
0.663805
0.6571
0.65029
0.643329
0.636212
0.628977
0.621678
0.614395
0.607282
0.600841
0.595559
0.591145
0.587309
0.583791
0.580526
0.577564
0.574981
0.572859
0.57131
0.570568
0.570549
0.571123
0.776298
0.751103
0.7264
0.706474
0.690828
0.678634
0.669031
0.661261
0.654733
0.648804
0.642958
0.63681
0.630243
0.62369
0.617107
0.610393
0.603507
0.59645
0.589266
0.582014
0.574785
0.567734
0.561365
0.556167
0.551845
0.548119
0.544735
0.541639
0.538881
0.536536
0.534685
0.533438
0.532993
0.533266
0.534158
0.734105
0.707407
0.681514
0.66092
0.644966
0.632704
0.623175
0.615557
0.609223
0.603514
0.597912
0.592027
0.585731
0.579425
0.573065
0.566559
0.559871
0.55301
0.546027
0.538991
0.531999
0.525213
0.519125
0.514201
0.51015
0.506706
0.503634
0.500893
0.498535
0.496631
0.495258
0.494518
0.494552
0.495274
0.496639
0.686255
0.658171
0.631
0.609699
0.593433
0.581126
0.571711
0.564295
0.558212
0.552786
0.547496
0.541953
0.536017
0.530056
0.524033
0.517865
0.511526
0.50503
0.498437
0.49183
0.485317
0.479067
0.473541
0.469156
0.465627
0.462714
0.460212
0.458096
0.456418
0.455242
0.45464
0.454701
0.455469
0.456864
0.458919
0.633066
0.603672
0.57495
0.552774
0.536079
0.523666
0.514341
0.50714
0.501346
0.496266
0.491369
0.486266
0.480797
0.475282
0.469711
0.464016
0.458178
0.452225
0.446229
0.440286
0.434522
0.429109
0.42445
0.420879
0.418153
0.416065
0.414456
0.413315
0.412685
0.412622
0.413186
0.414449
0.416295
0.418668
0.421728
0.575212
0.543801
0.512879
0.489453
0.472046
0.459349
0.450015
0.442994
0.437484
0.432748
0.428242
0.423589
0.418645
0.413711
0.408783
0.403796
0.398739
0.393652
0.38862
0.383761
0.379221
0.375175
0.371925
0.369658
0.368189
0.367365
0.367106
0.367415
0.368324
0.369874
0.372118
0.375104
0.378476
0.382234
0.386723
0.500989
0.466197
0.432612
0.407119
0.388331
0.374964
0.365461
0.358637
0.353438
0.348922
0.344558
0.340104
0.335671
0.331731
0.328044
0.324474
0.320995
0.317652
0.314557
0.311858
0.309743
0.308427
0.30815
0.308839
0.31013
0.311881
0.314117
0.316937
0.320405
0.324564
0.32947
0.335171
0.341044
0.346989
0.353489
0.400419
0.360693
0.322131
0.293142
0.272211
0.25723
0.246639
0.239667
0.234756
0.230933
0.227612
0.224476
0.221493
0.218954
0.216851
0.215102
0.213695
0.212694
0.212241
0.21253
0.213794
0.216243
0.219831
0.224122
0.22898
0.234378
0.240502
0.247432
0.255169
0.263724
0.273142
0.283425
0.293387
0.303003
0.31307
0.381768
0.33315
0.286968
0.253372
0.229996
0.213918
0.203125
0.196018
0.19111
0.18744
0.184448
0.181837
0.179541
0.177689
0.176211
0.175062
0.174297
0.17406
0.17458
0.176157
0.179134
0.183799
0.189985
0.196979
0.204586
0.212773
0.221798
0.231776
0.242747
0.254762
0.267926
0.282258
0.29635
0.310133
0.324407
0.522378
0.437769
0.359036
0.303685
0.266246
0.241245
0.224604
0.213046
0.204672
0.198146
0.192634
0.18764
0.182978
0.178849
0.175273
0.172336
0.170207
0.169126
0.169445
0.171599
0.176038
0.183064
0.192221
0.202051
0.212008
0.221976
0.232151
0.242425
0.252516
0.2622
0.271397
0.280148
0.287922
0.295064
0.302007
0.567734
0.455455
0.356144
0.290669
0.249203
0.223319
0.206916
0.196069
0.188553
0.182881
0.1782
0.174085
0.170451
0.167456
0.165092
0.163502
0.163003
0.16408
0.167408
0.173822
0.184198
0.199096
0.217541
0.236703
0.255379
0.273131
0.290081
0.305876
0.320006
0.332176
0.342379
0.350844
0.357537
0.362981
0.36737
0.588641
0.454859
0.343535
0.274237
0.232414
0.206982
0.191204
0.180983
0.174053
0.168955
0.164874
0.161399
0.158422
0.156099
0.154557
0.154107
0.155256
0.158767
0.165731
0.177586
0.195933
0.221841
0.253546
0.285822
0.315983
0.34294
0.36666
0.386605
0.402271
0.413654
0.421222
0.425769
0.428226
0.429424
0.429408
0.595891
0.447755
0.331791
0.263258
0.223478
0.19978
0.185084
0.175661
0.169291
0.164574
0.160746
0.157441
0.154599
0.152465
0.151297
0.151547
0.15391
0.159462
0.169798
0.187154
0.214205
0.252913
0.300605
0.348312
0.390481
0.425077
0.452126
0.471342
0.482807
0.487382
0.48646
0.481651
0.475362
0.469222
0.463116
0.594865
0.436904
0.320543
0.254854
0.217829
0.196137
0.182807
0.174164
0.16822
0.163728
0.160006
0.156721
0.153841
0.151686
0.150656
0.151324
0.154566
0.161753
0.174992
0.197402
0.233008
0.285128
0.350252
0.414093
0.466674
0.505253
0.530628
0.543501
0.545227
0.538105
0.524804
0.507893
0.491378
0.477676
0.466097
0.597641
0.429991
0.313399
0.250286
0.215641
0.195626
0.183366
0.175356
0.169742
0.165401
0.161685
0.158285
0.155212
0.152863
0.15176
0.152549
0.156241
0.164438
0.179622
0.20567
0.247934
0.311465
0.392576
0.47087
0.530703
0.569209
0.588674
0.591263
0.579997
0.558926
0.532167
0.503231
0.477528
0.457872
0.442548
0.613645
0.431631
0.311733
0.249498
0.216275
0.197378
0.18585
0.178255
0.172822
0.168502
0.164683
0.161073
0.157707
0.155049
0.153659
0.154232
0.15786
0.166288
0.182113
0.209621
0.25504
0.325151
0.417535
0.507146
0.572087
0.60927
0.622264
0.614472
0.590495
0.556257
0.51743
0.478424
0.445595
0.42166
0.403771
0.651303
0.44508
0.316153
0.252276
0.2193
0.200915
0.189775
0.182381
0.176981
0.17257
0.168548
0.164626
0.160841
0.157688
0.155791
0.155849
0.15893
0.166704
0.181804
0.208405
0.25283
0.322847
0.418769
0.515341
0.58513
0.623173
0.632776
0.61761
0.583324
0.537781
0.488574
0.441351
0.403146
0.376078
0.356197
0.720108
0.473231
0.326782
0.258191
0.224246
0.20581
0.194753
0.18737
0.181872
0.177259
0.172927
0.168574
0.164222
0.160371
0.157682
0.156823
0.15881
0.165201
0.178429
0.202301
0.242633
0.30701
0.397921
0.494627
0.568563
0.611232
0.623315
0.607114
0.567852
0.514528
0.456807
0.402182
0.358815
0.328676
0.306936
0.83408
0.519802
0.343599
0.266734
0.230661
0.211695
0.200471
0.19294
0.187227
0.182314
0.177575
0.172682
0.167626
0.162892
0.15916
0.157042
0.157455
0.161771
0.17209
0.191663
0.225531
0.28076
0.36178
0.453979
0.530842
0.58081
0.600704
0.589764
0.55068
0.49228
0.42653
0.363915
0.314766
0.281292
0.257677
1.01545
0.589477
0.366198
0.277236
0.238079
0.218234
0.206652
0.198842
0.192811
0.187509
0.182279
0.176756
0.170887
0.165139
0.160205
0.156626
0.155205
0.157106
0.164063
0.178727
0.205252
0.249835
0.317941
0.40097
0.477365
0.534688
0.566201
0.567092
0.535021
0.475896
0.403072
0.331311
0.274939
0.237309
0.211463
1.29782
0.686252
0.393089
0.28876
0.246036
0.225157
0.213093
0.204892
0.198449
0.19268
0.18689
0.18067
0.17392
0.167086
0.160877
0.155768
0.152453
0.151901
0.155514
0.165386
0.184803
0.21888
0.273097
0.343459
0.414739
0.476439
0.520338
0.538274
0.521276
0.468405
0.391119
0.308774
0.242541
0.199071
0.170184
1.7245
0.808079
0.420681
0.300069
0.254144
0.232319
0.21971
0.211017
0.204072
0.197764
0.191359
0.184401
0.176738
0.168804
0.161326
0.154721
0.149586
0.146731
0.147283
0.152878
0.166034
0.190749
0.23178
0.287872
0.349658
0.410532
0.463777
0.500638
0.506475
0.470107
0.394807
0.30141
0.221039
0.168577
0.13509
2.33016
0.936191
0.442779