/*--------------------------------*- C++ -*----------------------------------*\
| =========                 |                                                 |
| \\      /  F ield         | OpenFOAM: The Open Source CFD Toolbox           |
|  \\    /   O peration     | Version:  2406                                  |
|   \\  /    A nd           | Website:  www.openfoam.com                      |
|    \\/     M anipulation  |                                                 |
\*---------------------------------------------------------------------------*/
FoamFile
{
    version     2.0;
    format      ascii;
    arch        "LSB;label=32;scalar=64";
    class       volScalarField;
    location    "0/fluidRegion";
    object      k;
}
// * * * * * * * * * * * * * * * * * * * * * * * * * * * * * * * * * * * * * //

dimensions      [0 2 -2 0 0 0 0];

internalField   nonuniform List<scalar> 
8595
(
0.0158049
0.0308776
0.0449805
0.0598405
0.0741645
0.0875131
0.0995797
0.10634
0.107932
0.105136
0.0993872
0.0917268
0.0846449
0.0766608
0.0733572
0.0709233
0.0742686
0.0870912
0.108552
0.112122
0.112156
0.110652
0.108319
0.105614
0.102714
0.0997089
0.0966627
0.0936204
0.0906147
0.0876692
0.0848007
0.0820211
0.0793381
0.0767568
0.0742799
0.0719085
0.0696421
0.0674794
0.0654182
0.0634559
0.0615891
0.0598141
0.0581271
0.0565237
0.0549992
0.0535483
0.0521651
0.0508425
0.0495717
0.0483417
0.0471373
0.0459402
0.0447152
0.0434562
0.0420573
0.0361423
0.0201326
0.0254332
0.0528173
0.0814038
0.114667
0.149126
0.183474
0.211074
0.22871
0.235744
0.233229
0.224191
0.210296
0.196509
0.180811
0.171215
0.159347
0.160749
0.179623
0.171649
0.161596
0.152688
0.144728
0.137454
0.13073
0.124523
0.118777
0.11344
0.108469
0.103828
0.0994871
0.0954207
0.0916069
0.0880267
0.0846634
0.0815019
0.0785287
0.0757315
0.0730989
0.0706207
0.0682867
0.0660878
0.0640152
0.0620605
0.0602153
0.0584715
0.0568205
0.055253
0.0537587
0.0523253
0.0509372
0.0495739
0.0482103
0.0467988
0.0453333
0.0436128
0.0430976
0.0283055
0.0288043
0.0618453
0.0982744
0.141954
0.188135
0.23447
0.270163
0.292048
0.300206
0.296677
0.284982
0.268982
0.252593
0.234479
0.219763
0.20276
0.193829
0.197936
0.18582
0.173788
0.163626
0.154693
0.146617
0.139217
0.132388
0.126069
0.120205
0.114752
0.10967
0.104926
0.100492
0.0963429
0.0924559
0.0888119
0.0853934
0.0821844
0.0791706
0.0763388
0.0736766
0.0711729
0.068817
0.066599
0.0645092
0.0625385
0.0606777
0.0589173
0.0572474
0.0556568
0.0541323
0.0526574
0.0512101
0.0497631
0.0482647
0.0467054
0.0448583
0.0440359
0.03131
0.0293502
0.0641094
0.104309
0.155639
0.212527
0.269498
0.309976
0.333085
0.340338
0.336096
0.324336
0.308676
0.291536
0.272167
0.253463
0.231481
0.212226
0.200181
0.18615
0.173798
0.1638
0.155088
0.147222
0.140003
0.133308
0.12708
0.121272
0.115847
0.110773
0.106023
0.101572
0.097398
0.0934817
0.0898053
0.0863527
0.0831089
0.0800601
0.0771937
0.0744978
0.0719616
0.0695746
0.067327
0.0652095
0.063213
0.0613286
0.0595476
0.0578604
0.0562568
0.0547249
0.0532501
0.0518123
0.0503868
0.0489237
0.047412
0.0456237
0.0448871
0.0331323
0.0280419
0.061772
0.103417
0.161869
0.230136
0.292721
0.331673
0.351675
0.356936
0.353322
0.343493
0.329815
0.313774
0.294743
0.27384
0.248159
0.220552
0.193044
0.178933
0.167164
0.157942
0.149964
0.142757
0.136109
0.129907
0.124099
0.118646
0.11352
0.108701
0.104167
0.0999006
0.0958866
0.0921093
0.0885547
0.0852094
0.0820611
0.0790978
0.0763084
0.0736824
0.0712099
0.0688815
0.0666882
0.0646215
0.0626732
0.0608353
0.0590999
0.0574589
0.0559038
0.0544247
0.0530101
0.051644
0.0503066
0.0489536
0.0475773
0.045951
0.0455694
0.0344715
0.0256954
0.0577577
0.100772
0.16846
0.246195
0.300857
0.331701
0.346308
0.349711
0.346715
0.339501
0.329204
0.31623
0.299608
0.279033
0.252204
0.220036
0.181384
0.167679
0.15681
0.148546
0.141469
0.135092
0.129176
0.123635
0.118412
0.113475
0.108804
0.104384
0.100203
0.0962505
0.0925161
0.0889896
0.085661
0.0825207
0.0795588
0.0767661
0.0741336
0.0716523
0.0693137
0.0671097
0.0650327
0.0630752
0.0612303
0.059491
0.0578508
0.0563033
0.0548418
0.0534595
0.0521483
0.0508971
0.0496928
0.0484985
0.0473145
0.0459112
0.0461725
0.0355827
0.0237881
0.0563964
0.104416
0.182938
0.254114
0.29295
0.311521
0.318029
0.317992
0.315017
0.310525
0.304565
0.296397
0.284397
0.267101
0.242549
0.210591
0.166678
0.153944
0.144309
0.13712
0.13101
0.125514
0.120384
0.115564
0.110994
0.106646
0.102505
0.0985608
0.094809
0.0912442
0.0878612
0.0846544
0.081618
0.0787454
0.07603
0.0734647
0.0710426
0.0687568
0.0666003
0.0645666
0.0626491
0.0608418
0.0591388
0.0575346
0.0560242
0.0546028
0.053266
0.0520098
0.0508301
0.0497213
0.0486774
0.0476705
0.0467138
0.0455715
0.046698
0.0365783
0.0232431
0.0644894
0.129235
0.209064
0.252989
0.26998
0.272866
0.269708
0.265179
0.261558
0.259324
0.257712
0.255133
0.249332
0.237984
0.219294
0.19251
0.149635
0.138681
0.130712
0.124727
0.119625
0.114969
0.110647
0.106565
0.102666
0.098928
0.0953401
0.0918999
0.088607
0.0854614
0.0824624
0.0796085
0.0768972
0.0743249
0.0718877
0.0695808
0.0673991
0.0653375
0.0633906
0.0615532
0.0598201
0.0581864
0.0566476
0.0551993
0.053838
0.0525606
0.0513648
0.0502493
0.0492138
0.0482581
0.047384
0.0465733
0.0458576
0.0449943
0.0471799
0.0375188
0.0296284
0.117743
0.197678
0.236217
0.241906
0.233903
0.221761
0.210549
0.202486
0.19814
0.197123
0.198373
0.200188
0.200258
0.195947
0.185591
0.167909
0.131544
0.123161
0.117187
0.112444
0.10832
0.104484
0.10092
0.0975248
0.0942542
0.0910906
0.08803
0.0850741
0.0822269
0.0794923
0.0768732
0.074371
0.0719859
0.069717
0.0675622
0.0655186
0.063583
0.0617516
0.0600204
0.0583854
0.0568425
0.055388
0.0540183
0.0527304
0.0515217
0.0503907
0.0493368
0.0483609
0.0474661
0.0466569
0.0459428
0.0453157
0.0448316
0.0442428
0.0475431
0.0384361
0.0612071
0.264886
0.271515
0.244801
0.214147
0.188134
0.168714
0.155592
0.147727
0.144008
0.143485
0.145288
0.148367
0.151278
0.152034
0.149537
0.141785
0.114912
0.109373
0.105211
0.101514
0.0981273
0.0950248
0.0921152
0.0893124
0.0865828
0.0839163
0.0813138
0.0787815
0.0763267
0.0739564
0.071676
0.0694894
0.0673987
0.0654047
0.063507
0.0617042
0.0599943
0.0583746
0.0568423
0.0553942
0.0540273
0.0527386
0.0515254
0.0503855
0.0493174
0.0483203
0.047395
0.046544
0.0457726
0.0450886
0.0445079
0.0440312
0.0437433
0.0433939
0.0478582
0.0394801
0.0417842
0.0406199
0.0397147
0.0387789
0.0377574
0.0365574
0.0350292
0.0328527
0.0292078
0.0193407
0.048228
0.048433
0.0485891
0.0485718
0.048448
0.0481112
0.0475299
0.0465797
0.0452958
0.0375871
0.0415521
0.0427062
0.0440244
0.0453845
0.0466606
0.047741
0.0485249
0.0489043
0.0487546
0.0480277
0.0417077
0.0429265
0.0443924
0.045971
0.0475095
0.0488693
0.0499304
0.0505572
0.0505431
0.0497011
0.0418476
0.0431501
0.0447562
0.0465329
0.0483055
0.0499079
0.0511988
0.0520217
0.0521241
0.051261
0.0422321
0.043597
0.0453127
0.0472498
0.0492152
0.0510179
0.0524969
0.0534799
0.0536821
0.052812
0.0427183
0.0441516
0.0459738
0.0480595
0.0501988
0.0521789
0.0538212
0.0549405
0.0552314
0.054372
0.0432972
0.0448046
0.0467349
0.0489643
0.0512679
0.0534126
0.0552037
0.0564453
0.0568176
0.0559783
0.0439484
0.0455364
0.0475798
0.0499542
0.0524195
0.0547239
0.0566575
0.0580145
0.0584647
0.0576516
0.0446633
0.0463383
0.0485009
0.0510245
0.0536538
0.0561184
0.0581937
0.0596641
0.0601914
0.059408
0.0454366
0.0472046
0.0494934
0.0521726
0.0549713
0.0576004
0.0598206
0.061406
0.0620114
0.0612598
0.0462659
0.0481329
0.0505552
0.0533979
0.0563737
0.0591744
0.0615451
0.0632499
0.0639359
0.0632169
0.0471504
0.0491223
0.0516859
0.0547011
0.0578636
0.0608449
0.0633742
0.0652044
0.0659745
0.0652882
0.0480909
0.0501735
0.0528864
0.0560841
0.0594441
0.062617
0.0653146
0.0672778
0.0681362
0.0674817
0.0490887
0.0512879
0.0541587
0.0575495
0.0611194
0.0644961
0.0673733
0.0694783
0.0704297
0.0698052
0.0501461
0.0524679
0.0555052
0.0591007
0.0628939
0.0664883
0.0695575
0.0718145
0.0728642
0.0722666
0.051266
0.0537163
0.0569294
0.0607419
0.0647729
0.0686
0.0718753
0.0742953
0.075449
0.074874
0.0524516
0.0550366
0.058435
0.0624776
0.0667621
0.0708385
0.0743353
0.0769307
0.0781942
0.0776356
0.0537069
0.0564329
0.0600265
0.0643129
0.0688678
0.0732115
0.0769468
0.0797311
0.0811105
0.0805603
0.0550363
0.0579096
0.0617089
0.0662536
0.071097
0.0757278
0.0797202
0.0827081
0.0842099
0.083657
0.0564451
0.0594725
0.0634877
0.0683061
0.0734576
0.0783968
0.0826668
0.0858747
0.0875052
0.0869352
0.0579379
0.0611271
0.0653705
0.070479
0.0759581
0.0812291
0.0857993
0.0892451
0.091011
0.0904049
0.0595208
0.0628798
0.0673638
0.0727802
0.0786108
0.0842382
0.0891319
0.0928353
0.094743
0.0940763
0.0612007
0.0647381
0.0694759
0.0752193
0.0814263
0.0874386
0.0926834
0.0966634
0.0987193
0.0979601
0.0629854
0.0667109
0.0717167
0.0778078
0.0844183
0.0908468
0.0964729
0.100753
0.10296
0.102067
0.0648844
0.0688089
0.0740983
0.0805592
0.0876032
0.0944824
0.100524
0.105129
0.10749
0.106408
0.0669087
0.0710448
0.0766351
0.0834905
0.0910009
0.0983695
0.104864
0.109822
0.112337
0.110994
0.0690718
0.0734346
0.0793452
0.0866223
0.0946361
0.102538
0.109527
0.114868
0.117535
0.115834
0.0713906
0.0759982
0.0822517
0.0899814
0.0985401
0.107024
0.114557
0.120313
0.123123
0.120937
0.0738862
0.0787613
0.0853846
0.0936026
0.102754
0.111877
0.120008
0.126216
0.129152
0.126307
0.0765865
0.0817582
0.0887843
0.0975329
0.107333
0.117162
0.125954
0.132649
0.135682
0.131944
0.0795288
0.0850352
0.0925061
0.101837
0.112353
0.122965
0.132491
0.139713
0.142793
0.137837
0.0827651
0.0886575
0.0966282
0.106607
0.117921
0.129412
0.139757
0.147543
0.150588
0.143956
0.0863705
0.0927198
0.101265
0.11198
0.124196
0.136683
0.147949
0.156329
0.15921
0.150233
0.0904572
0.0973636
0.106591
0.118162
0.131423
0.145056
0.157362
0.166354
0.168852
0.156531
0.0951971
0.102808
0.11288
0.12549
0.139996
0.154977
0.168465
0.178045
0.179789
0.162555
0.100888
0.10943
0.120592
0.134518
0.150566
0.167178
0.182028
0.1921
0.192439
0.167638
0.108121
0.117909
0.13054
0.146239
0.164318
0.183008
0.199473
0.2098
0.207595
0.170362
0.117596
0.129285
0.144445
0.163113
0.184362
0.206009
0.224391
0.234092
0.226873
0.167228
0.131198
0.145646
0.164751
0.187956
0.213941
0.239872
0.260633
0.267133
0.248724
0.128528
0.11721
0.125864
0.137699
0.152671
0.169904
0.187249
0.200845
0.203697
0.186611
0.0967417
0.129665
0.135237
0.142668
0.151659
0.161163
0.168719
0.170661
0.163467
0.141535
0.073744
0.142819
0.145784
0.149821
0.154062
0.156883
0.156621
0.152027
0.14085
0.11812
0.0613653
0.149849
0.149745
0.149966
0.14938
0.147205
0.142917
0.135453
0.122895
0.100901
0.0523123
0.150318
0.147754
0.145136
0.141524
0.136747
0.130307
0.121295
0.108148
0.0871574
0.044874
0.144505
0.140343
0.136102
0.131163
0.12528
0.117946
0.108378
0.0952788
0.075553
0.038909
0.133893
0.128795
0.123955
0.118869
0.112963
0.105653
0.0962674
0.0837473
0.0655711
0.033788
0.119631
0.114528
0.110056
0.105443
0.100031
0.0932606
0.0845543
0.0730338
0.0566591
0.02919
0.103399
0.0985454
0.0947278
0.0909278
0.0863938
0.080569
0.072939
0.0627685
0.0484198
0.0249556
0.086246
0.0818255
0.0788393
0.0760225
0.0725476
0.0678661
0.0615199
0.0528936
0.0406889
0.0210112
0.0692694
0.0653567
0.0632356
0.0614195
0.0590266
0.055527
0.0505171
0.0434881
0.0334333
0.0173325
0.0532778
0.0499136
0.0486239
0.0477321
0.0463365
0.0439426
0.0402052
0.0347121
0.026712
0.0139359
0.0388457
0.0360402
0.0354882
0.0353771
0.0348199
0.0333804
0.0307777
0.0266892
0.0205839
0.0108333
0.0266282
0.0243421
0.0243201
0.0247615
0.0248102
0.0241087
0.0224417
0.0195631
0.015135
0.00806443
0.0169557
0.0149663
0.015159
0.0158622
0.0162574
0.0160705
0.015147
0.0133039
0.010353
0.00559306
0.0109528
0.00892285
0.00896344
0.00943057
0.00977353
0.00975743
0.00926385
0.00815081
0.00638574
0.00350732
0.00751073
0.00392037
0.00354357
0.00376909
0.00401603
0.00409823
0.00397018
0.00359416
0.00293596
0.00159185
0.0478787
0.041748
0.0390938
0.0377451
0.0377185
0.0389893
0.0414871
0.0450258
0.0494565
0.0543467
0.0574526
0.0394809
0.0382707
0.0372825
0.0365685
0.0355577
0.0345538
0.0339611
0.0341416
0.0349615
0.0357243
0.0362189
0.0412084
0.0385628
0.0378874
0.037686
0.0373305
0.0369859
0.0368533
0.0371285
0.0377788
0.0383916
0.0387929
0.0414788
0.0391859
0.0390854
0.0394911
0.0398358
0.040144
0.0404568
0.0408439
0.0413145
0.0414883
0.0413874
0.0393256
0.0383718
0.0389885
0.0398613
0.0405879
0.0411503
0.0415544
0.0418276
0.041987
0.0416935
0.0410819
0.0362082
0.0363241
0.0375092
0.0387306
0.039696
0.0403697
0.0407487
0.0408444
0.0406845
0.0400246
0.0390626
0.0329068
0.0335549
0.0350659
0.0365061
0.0376102
0.0383232
0.0386405
0.038582
0.0381708
0.0372764
0.0361464
0.029823
0.0304954
0.0320668
0.0335867
0.0347489
0.0354651
0.0357265
0.0355609
0.0349919
0.0339819
0.0327853
0.0272531
0.0275172
0.0288744
0.030318
0.031456
0.0321472
0.0323653
0.0321385
0.0314935
0.0304535
0.0292439
0.0254266
0.0249403
0.025808
0.0269925
0.0280046
0.0286325
0.0288145
0.0285646
0.027907
0.0268979
0.0257186
0.0245169
0.0230336
0.0231459
0.0238513
0.0245853
0.0250657
0.025184
0.0249297
0.0243123
0.023399
0.0223309
0.0247521
0.0220989
0.0212257
0.0212259
0.0214999
0.0217165
0.021724
0.0214832
0.0209704
0.0202359
0.0193836
0.0265339
0.0226391
0.0206423
0.0197699
0.0194246
0.0192551
0.0190838
0.0188474
0.0184854
0.0179991
0.0174596
0.0303505
0.0252599
0.022135
0.020357
0.019349
0.0187508
0.01836
0.0180824
0.0178405
0.0175832
0.0173528
0.035882
0.0298405
0.025757
0.0231699
0.0215394
0.020508
0.0198543
0.0194568
0.0192378
0.0191124
0.0190969
0.0423285
0.035658
0.0308738
0.0276506
0.0254948
0.024067
0.0231398
0.0225754
0.0222986
0.0222066
0.022289
0.0490976
0.0420888
0.0368676
0.0332093
0.0306649
0.0289206
0.0277527
0.0270172
0.0266414
0.0265181
0.0266149
0.0557232
0.0486119
0.0431931
0.0393053
0.0365338
0.0345908
0.0332601
0.0323962
0.0319258
0.0317536
0.0318297
0.0618433
0.0548052
0.0493872
0.0454556
0.0426198
0.0406142
0.0392309
0.0383248
0.0377974
0.0376025
0.037667
0.0671861
0.0603403
0.0550741
0.05125
0.0484907
0.0465483
0.0452208
0.0443625
0.0438698
0.0437076
0.0437998
0.071568
0.0649861
0.0599796
0.0563767
0.0538056
0.0520313
0.0508563
0.050134
0.0497575
0.0496913
0.0498621
0.0748579
0.068577
0.0639037
0.0606017
0.0582983
0.0567682
0.0558169
0.055297
0.0550984
0.0551804
0.0554748
0.0769519
0.0709928
0.0667012
0.063752
0.0617675
0.0605303
0.059848
0.0595721
0.0595891
0.05985
0.0602939
0.0777567
0.0721306
0.0682288
0.0656389
0.0639704
0.063018
0.0625924
0.0625477
0.0627706
0.0632028
0.0637904
0.0774524
0.0721743
0.0686457
0.0663954
0.0650121
0.0643075
0.0640979
0.0642429
0.0646333
0.0652026
0.0658987
0.0763584
0.0714488
0.0682859
0.0663619
0.0652403
0.0647537
0.0647253
0.0650223
0.0655412
0.0662115
0.0669824
0.0746389
0.0701277
0.0673425
0.065745
0.0648762
0.0645905
0.0647204
0.0651426
0.0657599
0.0665018
0.0673211
0.0722831
0.0682165
0.0658442
0.0645896
0.0639793
0.0638898
0.0641656
0.0646948
0.0653888
0.0661792
0.0670248
0.0691688
0.0656181
0.0637151
0.0628327
0.0624966
0.0626047
0.063018
0.063639
0.0643898
0.065207
0.0660564
0.065225
0.0622667
0.0608934
0.060412
0.0603648
0.0606706
0.0612112
0.0619065
0.0626919
0.0635139
0.0643426
0.0604227
0.0581022
0.0573098
0.0572472
0.0574972
0.0579952
0.0586486
0.059397
0.0601919
0.0609939
0.0617747
0.0549593
0.0532187
0.0530041
0.0533307
0.053851
0.0545102
0.0552423
0.0560073
0.0567743
0.0575186
0.0582167
0.0497334
0.048352
0.0486184
0.0492043
0.049878
0.0505873
0.0512925
0.0519717
0.0526109
0.0532015
0.0537333
0.0482257
0.0474081
0.0482665
0.0490519
0.0497555
0.0503455
0.050821
0.0511825
0.0514327
0.0515746
0.0516342
0.041176
0.047433
0.0518948
0.0556088
0.0585637
0.060906
0.0627109
0.0640416
0.0649486
0.0654758
0.0656406
0.042793
0.0460349
0.0462665
0.0455971
0.0444756
0.0431226
0.0416359
0.0400649
0.0384497
0.0367271
0.0348481
0.0328172
0.0307983
0.0291402
0.0278792
0.0269892
0.0264156
0.0260871
0.0259024
0.0258822
0.026439
0.0278359
0.0302645
0.0335854
0.0372289
0.0409348
0.0445773
0.048236
0.0518139
0.0551629
0.0580979
0.0603172
0.0605333
0.0567305
0.0483791
0.0476844
0.0468817
0.045616
0.0442811
0.0429612
0.0416919
0.0404883
0.0393624
0.0383282
0.0373424
0.0363877
0.0354816
0.034709
0.0341898
0.0338843
0.0337314
0.033663
0.0336121
0.0335197
0.0333653
0.0332832
0.0334445
0.0338878
0.0346296
0.0355359
0.0365403
0.0376134
0.0387955
0.0400828
0.041466
0.0429431
0.0445134
0.0460856
0.0472609
0.0479062
0.0430857
0.0425787
0.0420394
0.0415152
0.0410287
0.040602
0.0402493
0.0399791
0.0397925
0.0396816
0.039647
0.0396897
0.0397961
0.0399245
0.0400431
0.0401314
0.0401788
0.0401819
0.0401424
0.0400675
0.0399659
0.0398605
0.0397563
0.0396669
0.0395987
0.0395543
0.0395385
0.0395596
0.0396298
0.0397615
0.0399655
0.0402502
0.0406156
0.0409687
0.0412735
0.0433238
0.0426986
0.0420827
0.0415335
0.0410673
0.0406947
0.0404175
0.0402314
0.0401268
0.0400907
0.0401183
0.0402053
0.0403351
0.0404682
0.0405814
0.0406608
0.0407002
0.0406987
0.0406588
0.0405851
0.0404785
0.0403601
0.0402422
0.0401378
0.0400553
0.0399939
0.0399553
0.0399432
0.0399669
0.0400391
0.0401742
0.0403891
0.0406995
0.041042
0.0413728
0.0435072
0.0427881
0.0421191
0.0415537
0.0410962
0.0407478
0.0405027
0.0403498
0.0402741
0.0402602
0.0403003
0.0403882
0.0405077
0.0406246
0.0407192
0.0407809
0.0408055
0.0407926
0.0407447
0.0406663
0.0405591
0.0404383
0.040321
0.0402212
0.0401456
0.0400917
0.0400594
0.0400517
0.0400765
0.0401444
0.0402689
0.040466
0.0407545
0.0410925
0.0414482
0.0438807
0.0431161
0.0424332
0.0418726
0.041431
0.0411054
0.0408854
0.040756
0.0406989
0.0406973
0.0407421
0.0408262
0.0409343
0.0410361
0.041114
0.0411597
0.0411702
0.0411458
0.0410895
0.0410058
0.0408996
0.0407804
0.040667
0.0405737
0.0405047
0.0404572
0.0404302
0.0404266
0.0404537
0.0405214
0.040642
0.0408296
0.0410957
0.0414089
0.0417613
0.0443569
0.0435708
0.0428785
0.0423159
0.0418796
0.0415651
0.0413591
0.041243
0.0411965
0.0412017
0.0412485
0.0413295
0.04143
0.0415213
0.0415874
0.0416211
0.0416206
0.0415869
0.0415228
0.0414335
0.0413254
0.041206
0.0410932
0.0410022
0.0409365
0.0408922
0.0408684
0.040868
0.040898
0.0409681
0.0410907
0.0412798
0.0415395
0.0418358
0.042175
0.0449372
0.0441442
0.0434383
0.0428652
0.0424261
0.0421152
0.0419163
0.0418078
0.0417678
0.0417772
0.0418255
0.041905
0.0420009
0.0420855
0.0421432
0.0421681
0.0421589
0.0421168
0.0420454
0.0419497
0.0418369
0.0417155
0.0416007
0.0415095
0.0414444
0.0414015
0.0413792
0.0413809
0.0414135
0.0414868
0.0416134
0.0418088
0.0420717
0.0423615
0.0426854
0.0456078
0.0448114
0.0440833
0.043492
0.0430437
0.0427308
0.0425341
0.0424297
0.0423938
0.0424064
0.0424566
0.0425363
0.0426306
0.0427115
0.0427638
0.0427822
0.0427659
0.0427165
0.0426377
0.042535
0.0424158
0.0422896
0.0421712
0.0420775
0.0420111
0.0419678
0.0419459
0.0419488
0.0419836
0.0420603
0.0421921
0.0423959
0.0426678
0.0429601
0.0432744
0.0463615
0.0455584
0.0448
0.0441845
0.0437222
0.0434032
0.0432054
0.0431026
0.0430694
0.0430849
0.0431376
0.043219
0.0433138
0.0433933
0.0434423
0.043456
0.0434337
0.0433776
0.0432914
0.0431811
0.0430543
0.0429212
0.0427975
0.0426999
0.0426308
0.042586
0.0425636
0.042567
0.0426038
0.0426841
0.0428218
0.0430352
0.043319
0.0436201
0.0439323
0.0471927
0.0463761
0.0455804
0.0449361
0.044456
0.0441276
0.0439262
0.0438234
0.0437921
0.0438104
0.0438661
0.0439505
0.0440474
0.0441273
0.0441745
0.0441846
0.0441573
0.0440946
0.044001
0.0438825
0.0437473
0.043606
0.0434753
0.0433726
0.0433
0.0432528
0.0432291
0.0432327
0.0432712
0.0433553
0.0434993
0.0437232
0.0440208
0.0443346
0.044652
0.0480976
0.0472595
0.0464209
0.045744
0.0452428
0.0449024
0.0446956
0.0445916
0.0445618
0.0445828
0.0446422
0.0447305
0.0448308
0.0449123
0.0449589
0.0449663
0.0449343
0.0448654
0.0447641
0.0446369
0.0444925
0.044342
0.0442031
0.0440943
0.0440173
0.0439672
0.0439419
0.0439451
0.0439853
0.0440732
0.044224
0.044459
0.0447716
0.0451008
0.045429
0.0490743
0.0482064
0.0473203
0.0466073
0.0460823
0.0457277
0.045514
0.045408
0.0453792
0.0454032
0.0454667
0.0455598
0.0456646
0.0457487
0.0457956
0.0458009
0.0457646
0.0456894
0.0455802
0.0454438
0.0452895
0.0451289
0.0449809
0.044865
0.044783
0.0447294
0.044702
0.0447048
0.0447464
0.0448383
0.0449962
0.0452428
0.0455715
0.0459178
0.046261
0.0501221
0.0492169
0.0482788
0.0475266
0.0469752
0.0466046
0.0463828
0.0462741
0.0462463
0.0462733
0.0463415
0.0464402
0.0465503
0.0466379
0.0466856
0.0466893
0.0466489
0.0465674
0.04645
0.0463039
0.0461389
0.0459675
0.0458096
0.0456859
0.0455982
0.0455406
0.0455108
0.0455128
0.0455558
0.0456517
0.0458171
0.0460757
0.0464214
0.0467863
0.0471473
0.0512416
0.0502917
0.0492978
0.0485032
0.047923
0.0475349
0.047304
0.0471922
0.0471652
0.0471957
0.0472689
0.0473739
0.0474901
0.0475819
0.0476311
0.0476334
0.047589
0.0475011
0.0473751
0.0472188
0.0470425
0.0468595
0.0466908
0.0465586
0.0464647
0.0464027
0.0463701
0.0463711
0.0464154
0.0465153
0.0466883
0.0469594
0.0473228
0.0477074
0.0480883
0.0524342
0.0514327
0.0503788
0.049539
0.0489279
0.0485208
0.04828
0.0481648
0.0481388
0.0481729
0.0482518
0.0483637
0.0484868
0.0485834
0.0486345
0.0486357
0.0485874
0.0484928
0.0483579
0.0481908
0.0480025
0.0478069
0.0476268
0.0474855
0.0473847
0.0473179
0.0472822
0.047282
0.0473274
0.0474314
0.0476123
0.0478963
0.0482779
0.0486833
0.0490855
0.0537018
0.0526421
0.0515243
0.0506362
0.0499922
0.0495649
0.0493135
0.0491948
0.0491698
0.049208
0.0492932
0.0494127
0.0495435
0.0496455
0.0496989
0.0496992
0.0496469
0.0495454
0.049401
0.0492226
0.0490215
0.0488127
0.0486202
0.0484691
0.048361
0.0482889
0.0482497
0.0482481
0.0482945
0.0484026
0.0485915
0.0488888
0.0492894
0.0497164
0.0501412
0.0550468
0.0539225
0.0527365
0.0517973
0.0511184
0.0506698
0.0504075
0.0502852
0.0502616
0.0503044
0.0503965
0.0505244
0.0506636
0.0507715
0.0508276
0.0508272
0.0507707
0.0506621
0.0505078
0.0503173
0.0501026
0.0498797
0.0496741
0.0495125
0.0493965
0.0493187
0.0492756
0.0492723
0.0493197
0.049432
0.0496291
0.04994
0.0503601
0.0508098
0.0512583
0.0564719
0.0552763
0.054018
0.0530248
0.0523093
0.0518384
0.0515649
0.0514392
0.0514174
0.0514654
0.0515652
0.0517024
0.0518508
0.0519653
0.0520243
0.0520233
0.0519626
0.0518464
0.0516818
0.0514785
0.0512494
0.0510113
0.0507918
0.050619
0.0504945
0.0504105
0.0503633
0.0503581
0.0504063
0.0505229
0.0507284
0.0510533
0.0514934
0.0519668
0.0524404
0.0579796
0.0567062
0.0553713
0.0543212
0.0535676
0.0530738
0.0527891
0.0526603
0.0526409
0.0526949
0.0528031
0.0529505
0.053109
0.0532307
0.0532931
0.0532915
0.0532265
0.0531024
0.0529266
0.0527098
0.0524654
0.0522113
0.0519769
0.0517922
0.0516587
0.051568
0.0515163
0.051509
0.0515581
0.051679
0.0518933
0.0522325
0.0526931
0.0531912
0.0536919
0.0595726
0.0582146
0.0567987
0.0556892
0.0548959
0.0543789
0.0540831
0.0539519
0.0539357
0.0539966
0.0541144
0.054273
0.0544425
0.054572
0.0546382
0.0546361
0.0545665
0.054434
0.0542466
0.0540153
0.0537547
0.0534836
0.0532334
0.053036
0.0528928
0.052795
0.0527385
0.0527289
0.0527788
0.0529043
0.0531276
0.0534817
0.0539632
0.0544871
0.0550168
0.0612528
0.0598033
0.0583022
0.0571308
0.056297
0.0557567
0.0554505
0.0553177
0.0553058
0.0553746
0.0555032
0.0556743
0.0558557
0.0559938
0.0560641
0.0560616
0.0559871
0.0558457
0.0556459
0.0553994
0.0551215
0.0548323
0.0545653
0.0543546
0.0542011
0.0540957
0.0540341
0.0540221
0.0540729
0.0542031
0.0544358
0.0548053
0.0553084
0.0558591
0.0564193
0.0630222
0.061474
0.0598833
0.058648
0.0577731
0.05721
0.0568943
0.0567614
0.056755
0.0568333
0.056974
0.0571589
0.0573535
0.0575008
0.0575756
0.0575727
0.0574931
0.0573423
0.0571292
0.0568665
0.0565703
0.0562618
0.0559771
0.0557522
0.0555879
0.0554746
0.0554076
0.0553932
0.0554449
0.0555803
0.055823
0.0562084
0.0567337
0.0573122
0.057905
0.0648813
0.0632273
0.0615431
0.0602423
0.0593264
0.0587415
0.058418
0.0582866
0.0582877
0.0583771
0.0585315
0.0587317
0.0589408
0.0590981
0.0591778
0.0591744
0.0590894
0.0589284
0.0587013
0.0584213
0.0581056
0.0577768
0.0574733
0.0572336
0.0570579
0.0569364
0.0568638
0.0568469
0.0569
0.057041
0.0572944
0.0576967
0.0582449
0.0588525
0.0594797
0.0668302
0.0650632
0.0632818
0.0619145
0.0609585
0.0603538
0.0600247
0.0598972
0.0599079
0.0600105
0.0601807
0.0603979
0.0606229
0.0607911
0.060876
0.0608721
0.0607811
0.0606093
0.0603671
0.0600688
0.0597324
0.059382
0.0590587
0.0588035
0.058616
0.058486
0.0584079
0.0583888
0.0584436
0.058591
0.0588561
0.0592763
0.0598485
0.0604865
0.0611505
0.0688672
0.0669802
0.0650986
0.0636649
0.0626707
0.0620489
0.0617176
0.061597
0.0616201
0.0617384
0.0619267
0.062163
0.0624053
0.0625853
0.0626756
0.062671
0.0625736
0.0623901
0.0621318
0.0618138
0.0614555
0.0610823
0.0607383
0.060467
0.0602673
0.0601287
0.0600452
0.0600244
0.0600817
0.0602366
0.0605148
0.0609545
0.0615519
0.0622219
0.0629252
0.0709889
0.0689753
0.0669914
0.0654927
0.0644635
0.0638289
0.0634995
0.0633898
0.0634288
0.0635658
0.0637748
0.0640324
0.0642938
0.0644865
0.0645825
0.064577
0.0644723
0.0642761
0.0640004
0.0636614
0.0632798
0.0628826
0.062517
0.0622291
0.0620172
0.0618701
0.0617817
0.0617599
0.061821
0.061985
0.0622781
0.0627394
0.0633637
0.0640678
0.0648134
0.0731902
0.0710441
0.068957
0.0673961
0.066337
0.0656952
0.0653732
0.0652795
0.0653385
0.0654979
0.0657306
0.0660122
0.0662945
0.0665006
0.0666025
0.0665955
0.0664828
0.0662726
0.0659781
0.0656166
0.0652101
0.0647877
0.0643996
0.064095
0.0638709
0.0637158
0.0636233
0.0636019
0.0636685
0.0638438
0.0641547
0.0646404
0.0652941
0.0660348
0.0668263
0.0754634
0.07318
0.0709905
0.0693726
0.0682905
0.067649
0.0673414
0.0672697
0.0673539
0.0675399
0.0677999
0.0681082
0.0684133
0.0686338
0.0687415
0.0687323
0.0686102
0.0683846
0.0680695
0.0676837
0.067251
0.0668021
0.066391
0.0660696
0.0658339
0.0656718
0.0655766
0.0655576
0.0656323
0.0658222
0.0661544
0.0666686
0.0673551
0.0681359
0.0689777
0.0777986
0.0753748
0.073086
0.0714184
0.0703227
0.0696911
0.0694066
0.0693643
0.0694797
0.0696972
0.0699885
0.0703266
0.0706564
0.0708919
0.0710051
0.0709926
0.0708597
0.0706166
0.0702789
0.0698669
0.0694061
0.0689297
0.0684952
0.0681575
0.0679113
0.0677439
0.0676483
0.0676346
0.0677213
0.0679303
0.0682891
0.0688373
0.0695616
0.0703871
0.071285
0.0801837
0.0776189
0.0752364
0.0735294
0.0724321
0.071822
0.0715711
0.0715669
0.0717205
0.0719751
0.0723021
0.0726732
0.0730297
0.0732806
0.0733985
0.0733813
0.0732353
0.0729723
0.0726095
0.0721689
0.0716782
0.0711732
0.0707155
0.0703627
0.070108
0.0699379
0.0698455
0.0698417
0.0699457
0.0701802
0.070573
0.0711632
0.0719322
0.0728089
0.0737703
0.0826055
0.0799023
0.0774345
0.0757013
0.0746169
0.0740422
0.073837
0.073881
0.0740806
0.0743784
0.0747458
0.0751534
0.0755384
0.0758047
0.0759261
0.075902
0.0757402
0.0754541
0.075063
0.074591
0.0740685
0.0735342
0.0730539
0.0726882
0.0724282
0.0722596
0.0721756
0.0721882
0.0723176
0.0725868
0.0730239
0.0736672
0.0744912
0.0754281
0.076463
0.0850517
0.0822169
0.0796744
0.0779305
0.0768756
0.0763518
0.0762059
0.0763091
0.0765633
0.076911
0.077324
0.0777715
0.0781864
0.0784677
0.0785906
0.0785565
0.0783751
0.078062
0.0776385
0.0771319
0.0765755
0.0760114
0.0755103
0.0751353
0.0748751
0.0747145
0.0746469
0.0746857
0.0748519
0.0751691
0.0756652
0.0763777
0.077271
0.0782815
0.0794038
0.0875137
0.0845588
0.0819528
0.0802142
0.0792062
0.0787499
0.0786778
0.078852
0.0791701
0.0795747
0.0800384
0.0805291
0.0809751
0.0812704
0.081392
0.0813437
0.0811378
0.0807923
0.0803315
0.0797862
0.0791936
0.0786001
0.0780817
0.0777034
0.0774509
0.077308
0.0772689
0.0773484
0.0775683
0.0779525
0.0785291
0.0793338
0.0803178
0.0814209
0.0826504
0.0899927
0.0869347
0.0842716
0.082552
0.0816067
0.0812337
0.0812499
0.0815074
0.0818989
0.0823676
0.0828872
0.0834243
0.0839022
0.0842095
0.0843259
0.084258
0.084021
0.083636
0.0831315
0.0825426
0.0819116
0.0812903
0.0807608
0.080389
0.0801569
0.0800473
0.0800551
0.080197
0.0804958
0.0809754
0.0816636
0.0825943
0.0837002
0.0849244
0.0862894
0.0925299
0.0893761
0.0866454
0.0849482
0.0840743
0.083797
0.0839152
0.0842683
0.0847435
0.085284
0.0858649
0.0864512
0.0869612
0.0872782
0.0873841
0.0872891
0.0870121
0.0865785
0.0860218
0.0853831
0.0847114
0.0840659
0.0835356
0.0831865
0.0829957
0.0829437
0.0830272
0.0832649
0.0836805
0.0842978
0.0851443
0.0862517
0.0875281
0.0889168
0.0904592
0.0952582
0.0919384
0.0890947
0.0874035
0.0865956
0.0864195
0.0866514
0.0871126
0.0876829
0.0883053
0.0889562
0.0895979
0.0901412
0.0904636
0.0905509
0.0904186
0.09009
0.0895959
0.0889767
0.0882816
0.087569
0.0869075
0.0863933
0.0860913
0.0859725
0.086015
0.0862177
0.0866021
0.0871919
0.088011
0.0890865
0.0904481
0.0919719
0.0935975
0.0953861
0.0980556
0.0945223
0.0915913
0.0898688
0.0891026
0.0890261
0.0893828
0.0899651
0.0906437
0.0913631
0.0920988
0.0928074
0.0933885
0.0937116
0.0937724
0.0935914
0.0931973
0.0926284
0.0919349
0.0911783
0.0904308
0.089775
0.0893134
0.0891017
0.0891064
0.089304
0.0896995
0.0903148
0.0911719
0.0922939
0.0937084
0.0954393
0.0973035
0.0992599
0.10142
0.10114
0.0972363
0.0940062
0.0921763
0.091441
0.0914606
0.0919652
0.0927004
0.0935167
0.0943506
0.0951793
0.0959584
0.0965833
0.0969172
0.0969483
0.0967033
0.0962212
0.0955529
0.0947641
0.0939347
0.0931579
0.0925377
0.0921946
0.0921836
0.0924517
0.0929579
0.0937028
0.0947112
0.0960078
0.0976199
0.0995815
0.101924
0.104401
0.106908
0.109558
0.105084
0.100297
0.0964221
0.0943415
0.0936126
0.0937671
0.094449
0.0953742
0.0963673
0.0973561
0.09831
0.0991705
0.0998193
0.100118
0.100068
0.0997074
0.0990857
0.0982698
0.0973468
0.0964231
0.0956241
0.0950842
0.0949372
0.0952299
0.0958943
0.0968652
0.0981393
0.0997419
0.101707
0.104073
0.106887
0.110185
0.11367
0.117199
0.120855
0.125748
0.117247
0.109941
0.105515
0.103208
0.10223
0.101985
0.102094
0.102334
0.102592
0.102786
0.1028
0.102468
0.10169
0.100533
0.0990906
0.0974567
0.0957254
0.0940135
0.092459
0.0912133
0.0904326
0.0902569
0.0906397
0.0914186
0.0924955
0.0938415
0.0954372
0.0972478
0.0992456
0.101425
0.103804
0.106202
0.108555
0.110908
0.128383
0.117051
0.107484
0.101823
0.0989371
0.0977485
0.0974712
0.0976229
0.097925
0.0982278
0.0984409
0.0984625
0.0981587
0.0974325
0.096332
0.0949529
0.0934182
0.0918769
0.0905178
0.0895644
0.0892575
0.08982
0.0913411
0.0935578
0.0961653
0.0989894