/*--------------------------------*- C++ -*----------------------------------*\
| =========                 |                                                 |
| \\      /  F ield         | OpenFOAM: The Open Source CFD Toolbox           |
|  \\    /   O peration     | Version:  2406                                  |
|   \\  /    A nd           | Website:  www.openfoam.com                      |
|    \\/     M anipulation  |                                                 |
\*---------------------------------------------------------------------------*/
FoamFile
{
    version     2.0;
    format      ascii;
    arch        "LSB;label=32;scalar=64";
    class       volTensorField;
    location    "0/fluidRegion";
    object      Kd;
}
// * * * * * * * * * * * * * * * * * * * * * * * * * * * * * * * * * * * * * //

dimensions      [1 -3 -1 0 0 0 0];

internalField   nonuniform List<tensor> 
8595
(
(0 0 0 0 0 0 0 0 0)
(0 0 0 0 0 0 0 0 0)
(0 0 0 0 0 0 0 0 0)
(0 0 0 0 0 0 0 0 0)
(0 0 0 0 0 0 0 0 0)
(0 0 0 0 0 0 0 0 0)
(0 0 0 0 0 0 0 0 0)
(0 0 0 0 0 0 0 0 0)
(0 0 0 0 0 0 0 0 0)
(0 0 0 0 0 0 0 0 0)
(0 0 0 0 0 0 0 0 0)
(0 0 0 0 0 0 0 0 0)
(0 0 0 0 0 0 0 0 0)
(0 0 0 0 0 0 0 0 0)
(0 0 0 0 0 0 0 0 0)
(0 0 0 0 0 0 0 0 0)
(0 0 0 0 0 0 0 0 0)
(0 0 0 0 0 0 0 0 0)
(8307.24 0 0 0 8307.24 0 0 0 8307.24)
(11242.4 0 0 0 11242.4 0 0 0 11242.4)
(11395.4 0 0 0 11395.4 0 0 0 11395.4)
(11295 0 0 0 11295 0 0 0 11295)
(11334.9 0 0 0 11334.9 0 0 0 11334.9)
(11346.2 0 0 0 11346.2 0 0 0 11346.2)
(11312.5 0 0 0 11312.5 0 0 0 11312.5)
(11268.6 0 0 0 11268.6 0 0 0 11268.6)
(11226.9 0 0 0 11226.9 0 0 0 11226.9)
(11189 0 0 0 11189 0 0 0 11189)
(11155.6 0 0 0 11155.6 0 0 0 11155.6)
(11127.5 0 0 0 11127.5 0 0 0 11127.5)
(11104.7 0 0 0 11104.7 0 0 0 11104.7)
(11086.6 0 0 0 11086.6 0 0 0 11086.6)
(11072.8 0 0 0 11072.8 0 0 0 11072.8)
(11062.6 0 0 0 11062.6 0 0 0 11062.6)
(11055.3 0 0 0 11055.3 0 0 0 11055.3)
(11050.3 0 0 0 11050.3 0 0 0 11050.3)
(11047 0 0 0 11047 0 0 0 11047)
(11045 0 0 0 11045 0 0 0 11045)
(11043.8 0 0 0 11043.8 0 0 0 11043.8)
(11042.8 0 0 0 11042.8 0 0 0 11042.8)
(11041.5 0 0 0 11041.5 0 0 0 11041.5)
(11039.3 0 0 0 11039.3 0 0 0 11039.3)
(11035.5 0 0 0 11035.5 0 0 0 11035.5)
(11029 0 0 0 11029 0 0 0 11029)
(11018.5 0 0 0 11018.5 0 0 0 11018.5)
(11002.1 0 0 0 11002.1 0 0 0 11002.1)
(10976.8 0 0 0 10976.8 0 0 0 10976.8)
(10938.4 0 0 0 10938.4 0 0 0 10938.4)
(10880.2 0 0 0 10880.2 0 0 0 10880.2)
(10792.5 0 0 0 10792.5 0 0 0 10792.5)
(10657.1 0 0 0 10657.1 0 0 0 10657.1)
(10462.8 0 0 0 10462.8 0 0 0 10462.8)
(10102.8 0 0 0 10102.8 0 0 0 10102.8)
(9830.06 0 0 0 9830.06 0 0 0 9830.06)
(8050.89 0 0 0 8050.89 0 0 0 8050.89)
(0 0 0 0 0 0 0 0 0)
(0 0 0 0 0 0 0 0 0)
(0 0 0 0 0 0 0 0 0)
(0 0 0 0 0 0 0 0 0)
(0 0 0 0 0 0 0 0 0)
(0 0 0 0 0 0 0 0 0)
(0 0 0 0 0 0 0 0 0)
(0 0 0 0 0 0 0 0 0)
(0 0 0 0 0 0 0 0 0)
(0 0 0 0 0 0 0 0 0)
(0 0 0 0 0 0 0 0 0)
(0 0 0 0 0 0 0 0 0)
(0 0 0 0 0 0 0 0 0)
(0 0 0 0 0 0 0 0 0)
(0 0 0 0 0 0 0 0 0)
(0 0 0 0 0 0 0 0 0)
(0 0 0 0 0 0 0 0 0)
(0 0 0 0 0 0 0 0 0)
(0 0 0 0 0 0 0 0 0)
(0 0 0 0 0 0 0 0 0)
(8588.27 0 0 0 8588.27 0 0 0 8588.27)
(11377.8 0 0 0 11377.8 0 0 0 11377.8)
(11520.1 0 0 0 11520.1 0 0 0 11520.1)
(11455.1 0 0 0 11455.1 0 0 0 11455.1)
(11521.4 0 0 0 11521.4 0 0 0 11521.4)
(11554.8 0 0 0 11554.8 0 0 0 11554.8)
(11541.7 0 0 0 11541.7 0 0 0 11541.7)
(11515.9 0 0 0 11515.9 0 0 0 11515.9)
(11489.9 0 0 0 11489.9 0 0 0 11489.9)
(11465.3 0 0 0 11465.3 0 0 0 11465.3)
(11443.4 0 0 0 11443.4 0 0 0 11443.4)
(11425 0 0 0 11425 0 0 0 11425)
(11410.4 0 0 0 11410.4 0 0 0 11410.4)
(11399.3 0 0 0 11399.3 0 0 0 11399.3)
(11391.2 0 0 0 11391.2 0 0 0 11391.2)
(11385.7 0 0 0 11385.7 0 0 0 11385.7)
(11382.3 0 0 0 11382.3 0 0 0 11382.3)
(11380.6 0 0 0 11380.6 0 0 0 11380.6)
(11379.9 0 0 0 11379.9 0 0 0 11379.9)
(11379.9 0 0 0 11379.9 0 0 0 11379.9)
(11380.2 0 0 0 11380.2 0 0 0 11380.2)
(11380.4 0 0 0 11380.4 0 0 0 11380.4)
(11379.9 0 0 0 11379.9 0 0 0 11379.9)
(11378.3 0 0 0 11378.3 0 0 0 11378.3)
(11374.7 0 0 0 11374.7 0 0 0 11374.7)
(11368.4 0 0 0 11368.4 0 0 0 11368.4)
(11357.9 0 0 0 11357.9 0 0 0 11357.9)
(11341.5 0 0 0 11341.5 0 0 0 11341.5)
(11316.2 0 0 0 11316.2 0 0 0 11316.2)
(11278 0 0 0 11278 0 0 0 11278)
(11220.3 0 0 0 11220.3 0 0 0 11220.3)
(11134 0 0 0 11134 0 0 0 11134)
(11001.2 0 0 0 11001.2 0 0 0 11001.2)
(10811.7 0 0 0 10811.7 0 0 0 10811.7)
(10462 0 0 0 10462 0 0 0 10462)
(10218.2 0 0 0 10218.2 0 0 0 10218.2)
(8492.11 0 0 0 8492.11 0 0 0 8492.11)
(0 0 0 0 0 0 0 0 0)
(0 0 0 0 0 0 0 0 0)
(0 0 0 0 0 0 0 0 0)
(0 0 0 0 0 0 0 0 0)
(0 0 0 0 0 0 0 0 0)
(0 0 0 0 0 0 0 0 0)
(0 0 0 0 0 0 0 0 0)
(0 0 0 0 0 0 0 0 0)
(0 0 0 0 0 0 0 0 0)
(0 0 0 0 0 0 0 0 0)
(0 0 0 0 0 0 0 0 0)
(0 0 0 0 0 0 0 0 0)
(0 0 0 0 0 0 0 0 0)
(0 0 0 0 0 0 0 0 0)
(0 0 0 0 0 0 0 0 0)
(0 0 0 0 0 0 0 0 0)
(0 0 0 0 0 0 0 0 0)
(0 0 0 0 0 0 0 0 0)
(0 0 0 0 0 0 0 0 0)
(0 0 0 0 0 0 0 0 0)
(8859.46 0 0 0 8859.46 0 0 0 8859.46)
(11518.4 0 0 0 11518.4 0 0 0 11518.4)
(11574.2 0 0 0 11574.2 0 0 0 11574.2)
(11492.9 0 0 0 11492.9 0 0 0 11492.9)
(11555.4 0 0 0 11555.4 0 0 0 11555.4)
(11588.2 0 0 0 11588.2 0 0 0 11588.2)
(11577.7 0 0 0 11577.7 0 0 0 11577.7)
(11555.7 0 0 0 11555.7 0 0 0 11555.7)
(11533.5 0 0 0 11533.5 0 0 0 11533.5)
(11512.4 0 0 0 11512.4 0 0 0 11512.4)
(11493.5 0 0 0 11493.5 0 0 0 11493.5)
(11477.6 0 0 0 11477.6 0 0 0 11477.6)
(11465 0 0 0 11465 0 0 0 11465)
(11455.4 0 0 0 11455.4 0 0 0 11455.4)
(11448.5 0 0 0 11448.5 0 0 0 11448.5)
(11443.9 0 0 0 11443.9 0 0 0 11443.9)
(11441 0 0 0 11441 0 0 0 11441)
(11439.5 0 0 0 11439.5 0 0 0 11439.5)
(11438.9 0 0 0 11438.9 0 0 0 11438.9)
(11438.8 0 0 0 11438.8 0 0 0 11438.8)
(11438.9 0 0 0 11438.9 0 0 0 11438.9)
(11438.8 0 0 0 11438.8 0 0 0 11438.8)
(11438 0 0 0 11438 0 0 0 11438)
(11435.9 0 0 0 11435.9 0 0 0 11435.9)
(11432.1 0 0 0 11432.1 0 0 0 11432.1)
(11425.6 0 0 0 11425.6 0 0 0 11425.6)
(11415.1 0 0 0 11415.1 0 0 0 11415.1)
(11399 0 0 0 11399 0 0 0 11399)
(11374.5 0 0 0 11374.5 0 0 0 11374.5)
(11337.9 0 0 0 11337.9 0 0 0 11337.9)
(11283.1 0 0 0 11283.1 0 0 0 11283.1)
(11201.6 0 0 0 11201.6 0 0 0 11201.6)
(11076.7 0 0 0 11076.7 0 0 0 11076.7)
(10900.6 0 0 0 10900.6 0 0 0 10900.6)
(10571.9 0 0 0 10571.9 0 0 0 10571.9)
(10377.4 0 0 0 10377.4 0 0 0 10377.4)
(8712.49 0 0 0 8712.49 0 0 0 8712.49)
(0 0 0 0 0 0 0 0 0)
(0 0 0 0 0 0 0 0 0)
(0 0 0 0 0 0 0 0 0)
(0 0 0 0 0 0 0 0 0)
(0 0 0 0 0 0 0 0 0)
(0 0 0 0 0 0 0 0 0)
(0 0 0 0 0 0 0 0 0)
(0 0 0 0 0 0 0 0 0)
(0 0 0 0 0 0 0 0 0)
(0 0 0 0 0 0 0 0 0)
(0 0 0 0 0 0 0 0 0)
(0 0 0 0 0 0 0 0 0)
(0 0 0 0 0 0 0 0 0)
(0 0 0 0 0 0 0 0 0)
(0 0 0 0 0 0 0 0 0)
(0 0 0 0 0 0 0 0 0)
(0 0 0 0 0 0 0 0 0)
(0 0 0 0 0 0 0 0 0)
(0 0 0 0 0 0 0 0 0)
(0 0 0 0 0 0 0 0 0)
(9168.35 0 0 0 9168.35 0 0 0 9168.35)
(11720.9 0 0 0 11720.9 0 0 0 11720.9)
(11672.8 0 0 0 11672.8 0 0 0 11672.8)
(11552.8 0 0 0 11552.8 0 0 0 11552.8)
(11599.1 0 0 0 11599.1 0 0 0 11599.1)
(11621.5 0 0 0 11621.5 0 0 0 11621.5)
(11605 0 0 0 11605 0 0 0 11605)
(11579.7 0 0 0 11579.7 0 0 0 11579.7)
(11555.5 0 0 0 11555.5 0 0 0 11555.5)
(11533.3 0 0 0 11533.3 0 0 0 11533.3)
(11513.6 0 0 0 11513.6 0 0 0 11513.6)
(11497.1 0 0 0 11497.1 0 0 0 11497.1)
(11484 0 0 0 11484 0 0 0 11484)
(11474 0 0 0 11474 0 0 0 11474)
(11466.6 0 0 0 11466.6 0 0 0 11466.6)
(11461.5 0 0 0 11461.5 0 0 0 11461.5)
(11458.1 0 0 0 11458.1 0 0 0 11458.1)
(11456.1 0 0 0 11456.1 0 0 0 11456.1)
(11455 0 0 0 11455 0 0 0 11455)
(11454.4 0 0 0 11454.4 0 0 0 11454.4)
(11454 0 0 0 11454 0 0 0 11454)
(11453.3 0 0 0 11453.3 0 0 0 11453.3)
(11452.1 0 0 0 11452.1 0 0 0 11452.1)
(11449.7 0 0 0 11449.7 0 0 0 11449.7)
(11445.6 0 0 0 11445.6 0 0 0 11445.6)
(11439 0 0 0 11439 0 0 0 11439)
(11428.7 0 0 0 11428.7 0 0 0 11428.7)
(11413.1 0 0 0 11413.1 0 0 0 11413.1)
(11389.7 0 0 0 11389.7 0 0 0 11389.7)
(11355 0 0 0 11355 0 0 0 11355)
(11303.4 0 0 0 11303.4 0 0 0 11303.4)
(11227.3 0 0 0 11227.3 0 0 0 11227.3)
(11111.2 0 0 0 11111.2 0 0 0 11111.2)
(10950.4 0 0 0 10950.4 0 0 0 10950.4)
(10644.4 0 0 0 10644.4 0 0 0 10644.4)
(10501.4 0 0 0 10501.4 0 0 0 10501.4)
(8886.92 0 0 0 8886.92 0 0 0 8886.92)
(0 0 0 0 0 0 0 0 0)
(0 0 0 0 0 0 0 0 0)
(0 0 0 0 0 0 0 0 0)
(0 0 0 0 0 0 0 0 0)
(0 0 0 0 0 0 0 0 0)
(0 0 0 0 0 0 0 0 0)
(0 0 0 0 0 0 0 0 0)
(0 0 0 0 0 0 0 0 0)
(0 0 0 0 0 0 0 0 0)
(0 0 0 0 0 0 0 0 0)
(0 0 0 0 0 0 0 0 0)
(0 0 0 0 0 0 0 0 0)
(0 0 0 0 0 0 0 0 0)
(0 0 0 0 0 0 0 0 0)
(0 0 0 0 0 0 0 0 0)
(0 0 0 0 0 0 0 0 0)
(0 0 0 0 0 0 0 0 0)
(0 0 0 0 0 0 0 0 0)
(0 0 0 0 0 0 0 0 0)
(0 0 0 0 0 0 0 0 0)
(9494.01 0 0 0 9494.01 0 0 0 9494.01)
(11966.7 0 0 0 11966.7 0 0 0 11966.7)
(11810.2 0 0 0 11810.2 0 0 0 11810.2)
(11636.4 0 0 0 11636.4 0 0 0 11636.4)
(11659.1 0 0 0 11659.1 0 0 0 11659.1)
(11666.2 0 0 0 11666.2 0 0 0 11666.2)
(11639.4 0 0 0 11639.4 0 0 0 11639.4)
(11607.4 0 0 0 11607.4 0 0 0 11607.4)
(11578.9 0 0 0 11578.9 0 0 0 11578.9)
(11553.5 0 0 0 11553.5 0 0 0 11553.5)
(11531.5 0 0 0 11531.5 0 0 0 11531.5)
(11513.2 0 0 0 11513.2 0 0 0 11513.2)
(11498.7 0 0 0 11498.7 0 0 0 11498.7)
(11487.5 0 0 0 11487.5 0 0 0 11487.5)
(11479.1 0 0 0 11479.1 0 0 0 11479.1)
(11473 0 0 0 11473 0 0 0 11473)
(11468.8 0 0 0 11468.8 0 0 0 11468.8)
(11466 0 0 0 11466 0 0 0 11466)
(11464.2 0 0 0 11464.2 0 0 0 11464.2)
(11463 0 0 0 11463 0 0 0 11463)
(11462 0 0 0 11462 0 0 0 11462)
(11460.8 0 0 0 11460.8 0 0 0 11460.8)
(11459.2 0 0 0 11459.2 0 0 0 11459.2)
(11456.5 0 0 0 11456.5 0 0 0 11456.5)
(11452.3 0 0 0 11452.3 0 0 0 11452.3)
(11445.7 0 0 0 11445.7 0 0 0 11445.7)
(11435.7 0 0 0 11435.7 0 0 0 11435.7)
(11420.8 0 0 0 11420.8 0 0 0 11420.8)
(11398.8 0 0 0 11398.8 0 0 0 11398.8)
(11366.4 0 0 0 11366.4 0 0 0 11366.4)
(11318.5 0 0 0 11318.5 0 0 0 11318.5)
(11248.6 0 0 0 11248.6 0 0 0 11248.6)
(11142.3 0 0 0 11142.3 0 0 0 11142.3)
(10998.5 0 0 0 10998.5 0 0 0 10998.5)
(10717.2 0 0 0 10717.2 0 0 0 10717.2)
(10627.3 0 0 0 10627.3 0 0 0 10627.3)
(9059.59 0 0 0 9059.59 0 0 0 9059.59)
(0 0 0 0 0 0 0 0 0)
(0 0 0 0 0 0 0 0 0)
(0 0 0 0 0 0 0 0 0)
(0 0 0 0 0 0 0 0 0)
(0 0 0 0 0 0 0 0 0)
(0 0 0 0 0 0 0 0 0)
(0 0 0 0 0 0 0 0 0)
(0 0 0 0 0 0 0 0 0)
(0 0 0 0 0 0 0 0 0)
(0 0 0 0 0 0 0 0 0)
(0 0 0 0 0 0 0 0 0)
(0 0 0 0 0 0 0 0 0)
(0 0 0 0 0 0 0 0 0)
(0 0 0 0 0 0 0 0 0)
(0 0 0 0 0 0 0 0 0)
(0 0 0 0 0 0 0 0 0)
(0 0 0 0 0 0 0 0 0)
(0 0 0 0 0 0 0 0 0)
(0 0 0 0 0 0 0 0 0)
(0 0 0 0 0 0 0 0 0)
(9824.76 0 0 0 9824.76 0 0 0 9824.76)
(12237 0 0 0 12237 0 0 0 12237)
(11973.8 0 0 0 11973.8 0 0 0 11973.8)
(11738.2 0 0 0 11738.2 0 0 0 11738.2)
(11733.2 0 0 0 11733.2 0 0 0 11733.2)
(11722.8 0 0 0 11722.8 0 0 0 11722.8)
(11683 0 0 0 11683 0 0 0 11683)
(11642.5 0 0 0 11642.5 0 0 0 11642.5)
(11608 0 0 0 11608 0 0 0 11608)
(11578.2 0 0 0 11578.2 0 0 0 11578.2)
(11552.9 0 0 0 11552.9 0 0 0 11552.9)
(11532 0 0 0 11532 0 0 0 11532)
(11515.4 0 0 0 11515.4 0 0 0 11515.4)
(11502.4 0 0 0 11502.4 0 0 0 11502.4)
(11492.5 0 0 0 11492.5 0 0 0 11492.5)
(11485.1 0 0 0 11485.1 0 0 0 11485.1)
(11479.7 0 0 0 11479.7 0 0 0 11479.7)
(11475.9 0 0 0 11475.9 0 0 0 11475.9)
(11473.2 0 0 0 11473.2 0 0 0 11473.2)
(11471.1 0 0 0 11471.1 0 0 0 11471.1)
(11469.5 0 0 0 11469.5 0 0 0 11469.5)
(11467.8 0 0 0 11467.8 0 0 0 11467.8)
(11465.6 0 0 0 11465.6 0 0 0 11465.6)
(11462.7 0 0 0 11462.7 0 0 0 11462.7)
(11458.3 0 0 0 11458.3 0 0 0 11458.3)
(11451.8 0 0 0 11451.8 0 0 0 11451.8)
(11442.3 0 0 0 11442.3 0 0 0 11442.3)
(11428.3 0 0 0 11428.3 0 0 0 11428.3)
(11407.9 0 0 0 11407.9 0 0 0 11407.9)
(11378.3 0 0 0 11378.3 0 0 0 11378.3)
(11335 0 0 0 11335 0 0 0 11335)
(11272.3 0 0 0 11272.3 0 0 0 11272.3)
(11177.6 0 0 0 11177.6 0 0 0 11177.6)
(11053.2 0 0 0 11053.2 0 0 0 11053.2)
(10799.8 0 0 0 10799.8 0 0 0 10799.8)
(10766.8 0 0 0 10766.8 0 0 0 10766.8)
(9249.14 0 0 0 9249.14 0 0 0 9249.14)
(0 0 0 0 0 0 0 0 0)
(0 0 0 0 0 0 0 0 0)
(0 0 0 0 0 0 0 0 0)
(0 0 0 0 0 0 0 0 0)
(0 0 0 0 0 0 0 0 0)
(0 0 0 0 0 0 0 0 0)
(0 0 0 0 0 0 0 0 0)
(0 0 0 0 0 0 0 0 0)
(0 0 0 0 0 0 0 0 0)
(0 0 0 0 0 0 0 0 0)
(0 0 0 0 0 0 0 0 0)
(0 0 0 0 0 0 0 0 0)
(0 0 0 0 0 0 0 0 0)
(0 0 0 0 0 0 0 0 0)
(0 0 0 0 0 0 0 0 0)
(0 0 0 0 0 0 0 0 0)
(0 0 0 0 0 0 0 0 0)
(0 0 0 0 0 0 0 0 0)
(0 0 0 0 0 0 0 0 0)
(0 0 0 0 0 0 0 0 0)
(10149.3 0 0 0 10149.3 0 0 0 10149.3)
(12515.8 0 0 0 12515.8 0 0 0 12515.8)
(12151.2 0 0 0 12151.2 0 0 0 12151.2)
(11850.6 0 0 0 11850.6 0 0 0 11850.6)
(11816.2 0 0 0 11816.2 0 0 0 11816.2)
(11787 0 0 0 11787 0 0 0 11787)
(11733 0 0 0 11733 0 0 0 11733)
(11682.9 0 0 0 11682.9 0 0 0 11682.9)
(11641.6 0 0 0 11641.6 0 0 0 11641.6)
(11606.7 0 0 0 11606.7 0 0 0 11606.7)
(11577.4 0 0 0 11577.4 0 0 0 11577.4)
(11553.5 0 0 0 11553.5 0 0 0 11553.5)
(11534.3 0 0 0 11534.3 0 0 0 11534.3)
(11519.2 0 0 0 11519.2 0 0 0 11519.2)
(11507.5 0 0 0 11507.5 0 0 0 11507.5)
(11498.6 0 0 0 11498.6 0 0 0 11498.6)
(11491.8 0 0 0 11491.8 0 0 0 11491.8)
(11486.8 0 0 0 11486.8 0 0 0 11486.8)
(11483 0 0 0 11483 0 0 0 11483)
(11480.1 0 0 0 11480.1 0 0 0 11480.1)
(11477.7 0 0 0 11477.7 0 0 0 11477.7)
(11475.3 0 0 0 11475.3 0 0 0 11475.3)
(11472.7 0 0 0 11472.7 0 0 0 11472.7)
(11469.3 0 0 0 11469.3 0 0 0 11469.3)
(11464.8 0 0 0 11464.8 0 0 0 11464.8)
(11458.5 0 0 0 11458.5 0 0 0 11458.5)
(11449.4 0 0 0 11449.4 0 0 0 11449.4)
(11436.6 0 0 0 11436.6 0 0 0 11436.6)
(11418.1 0 0 0 11418.1 0 0 0 11418.1)
(11391.6 0 0 0 11391.6 0 0 0 11391.6)
(11353.4 0 0 0 11353.4 0 0 0 11353.4)
(11299 0 0 0 11299 0 0 0 11299)
(11217.5 0 0 0 11217.5 0 0 0 11217.5)
(11115 0 0 0 11115 0 0 0 11115)
(10893.1 0 0 0 10893.1 0 0 0 10893.1)
(10923.3 0 0 0 10923.3 0 0 0 10923.3)
(9463.4 0 0 0 9463.4 0 0 0 9463.4)
(0 0 0 0 0 0 0 0 0)
(0 0 0 0 0 0 0 0 0)
(0 0 0 0 0 0 0 0 0)
(0 0 0 0 0 0 0 0 0)
(0 0 0 0 0 0 0 0 0)
(0 0 0 0 0 0 0 0 0)
(0 0 0 0 0 0 0 0 0)
(0 0 0 0 0 0 0 0 0)
(0 0 0 0 0 0 0 0 0)
(0 0 0 0 0 0 0 0 0)
(0 0 0 0 0 0 0 0 0)
(0 0 0 0 0 0 0 0 0)
(0 0 0 0 0 0 0 0 0)
(0 0 0 0 0 0 0 0 0)
(0 0 0 0 0 0 0 0 0)
(0 0 0 0 0 0 0 0 0)
(0 0 0 0 0 0 0 0 0)
(0 0 0 0 0 0 0 0 0)
(0 0 0 0 0 0 0 0 0)
(0 0 0 0 0 0 0 0 0)
(10457.5 0 0 0 10457.5 0 0 0 10457.5)
(12788.1 0 0 0 12788.1 0 0 0 12788.1)
(12329 0 0 0 12329 0 0 0 12329)
(11965 0 0 0 11965 0 0 0 11965)
(11902.2 0 0 0 11902.2 0 0 0 11902.2)
(11853.5 0 0 0 11853.5 0 0 0 11853.5)
(11784.9 0 0 0 11784.9 0 0 0 11784.9)
(11724.8 0 0 0 11724.8 0 0 0 11724.8)
(11676.5 0 0 0 11676.5 0 0 0 11676.5)
(11636.4 0 0 0 11636.4 0 0 0 11636.4)
(11603.1 0 0 0 11603.1 0 0 0 11603.1)
(11575.9 0 0 0 11575.9 0 0 0 11575.9)
(11554.2 0 0 0 11554.2 0 0 0 11554.2)
(11536.9 0 0 0 11536.9 0 0 0 11536.9)
(11523.3 0 0 0 11523.3 0 0 0 11523.3)
(11512.8 0 0 0 11512.8 0 0 0 11512.8)
(11504.6 0 0 0 11504.6 0 0 0 11504.6)
(11498.3 0 0 0 11498.3 0 0 0 11498.3)
(11493.5 0 0 0 11493.5 0 0 0 11493.5)
(11489.6 0 0 0 11489.6 0 0 0 11489.6)
(11486.3 0 0 0 11486.3 0 0 0 11486.3)
(11483.3 0 0 0 11483.3 0 0 0 11483.3)
(11480.1 0 0 0 11480.1 0 0 0 11480.1)
(11476.4 0 0 0 11476.4 0 0 0 11476.4)
(11471.8 0 0 0 11471.8 0 0 0 11471.8)
(11465.6 0 0 0 11465.6 0 0 0 11465.6)
(11457.2 0 0 0 11457.2 0 0 0 11457.2)
(11445.6 0 0 0 11445.6 0 0 0 11445.6)
(11429.3 0 0 0 11429.3 0 0 0 11429.3)
(11406.4 0 0 0 11406.4 0 0 0 11406.4)
(11373.9 0 0 0 11373.9 0 0 0 11373.9)
(11328.7 0 0 0 11328.7 0 0 0 11328.7)
(11261.6 0 0 0 11261.6 0 0 0 11261.6)
(11183.3 0 0 0 11183.3 0 0 0 11183.3)
(10996 0 0 0 10996 0 0 0 10996)
(11096.9 0 0 0 11096.9 0 0 0 11096.9)
(9703.43 0 0 0 9703.43 0 0 0 9703.43)
(0 0 0 0 0 0 0 0 0)
(0 0 0 0 0 0 0 0 0)
(0 0 0 0 0 0 0 0 0)
(0 0 0 0 0 0 0 0 0)
(0 0 0 0 0 0 0 0 0)
(0 0 0 0 0 0 0 0 0)
(0 0 0 0 0 0 0 0 0)
(0 0 0 0 0 0 0 0 0)
(0 0 0 0 0 0 0 0 0)
(0 0 0 0 0 0 0 0 0)
(0 0 0 0 0 0 0 0 0)
(0 0 0 0 0 0 0 0 0)
(0 0 0 0 0 0 0 0 0)
(0 0 0 0 0 0 0 0 0)
(0 0 0 0 0 0 0 0 0)
(0 0 0 0 0 0 0 0 0)
(0 0 0 0 0 0 0 0 0)
(0 0 0 0 0 0 0 0 0)
(0 0 0 0 0 0 0 0 0)
(0 0 0 0 0 0 0 0 0)
(10739.3 0 0 0 10739.3 0 0 0 10739.3)
(13039.3 0 0 0 13039.3 0 0 0 13039.3)
(12491.6 0 0 0 12491.6 0 0 0 12491.6)
(12071.1 0 0 0 12071.1 0 0 0 12071.1)
(11982.8 0 0 0 11982.8 0 0 0 11982.8)
(11915.3 0 0 0 11915.3 0 0 0 11915.3)
(11833.2 0 0 0 11833.2 0 0 0 11833.2)
(11763.9 0 0 0 11763.9 0 0 0 11763.9)
(11709.1 0 0 0 11709.1 0 0 0 11709.1)
(11664.1 0 0 0 11664.1 0 0 0 11664.1)
(11627.1 0 0 0 11627.1 0 0 0 11627.1)
(11597 0 0 0 11597 0 0 0 11597)
(11572.8 0 0 0 11572.8 0 0 0 11572.8)
(11553.6 0 0 0 11553.6 0 0 0 11553.6)
(11538.3 0 0 0 11538.3 0 0 0 11538.3)
(11526.2 0 0 0 11526.2 0 0 0 11526.2)
(11516.8 0 0 0 11516.8 0 0 0 11516.8)
(11509.4 0 0 0 11509.4 0 0 0 11509.4)
(11503.5 0 0 0 11503.5 0 0 0 11503.5)
(11498.7 0 0 0 11498.7 0 0 0 11498.7)
(11494.7 0 0 0 11494.7 0 0 0 11494.7)
(11491 0 0 0 11491 0 0 0 11491)
(11487.4 0 0 0 11487.4 0 0 0 11487.4)
(11483.4 0 0 0 11483.4 0 0 0 11483.4)
(11478.7 0 0 0 11478.7 0 0 0 11478.7)
(11472.9 0 0 0 11472.9 0 0 0 11472.9)
(11465.2 0 0 0 11465.2 0 0 0 11465.2)
(11454.9 0 0 0 11454.9 0 0 0 11454.9)
(11441 0 0 0 11441 0 0 0 11441)
(11421.9 0 0 0 11421.9 0 0 0 11421.9)
(11395.7 0 0 0 11395.7 0 0 0 11395.7)
(11360.3 0 0 0 11360.3 0 0 0 11360.3)
(11308.6 0 0 0 11308.6 0 0 0 11308.6)
(11256.2 0 0 0 11256.2 0 0 0 11256.2)
(11106.4 0 0 0 11106.4 0 0 0 11106.4)
(11287.4 0 0 0 11287.4 0 0 0 11287.4)
(9975.56 0 0 0 9975.56 0 0 0 9975.56)
(0 0 0 0 0 0 0 0 0)
(0 0 0 0 0 0 0 0 0)
(0 0 0 0 0 0 0 0 0)
(0 0 0 0 0 0 0 0 0)
(0 0 0 0 0 0 0 0 0)
(0 0 0 0 0 0 0 0 0)
(0 0 0 0 0 0 0 0 0)
(0 0 0 0 0 0 0 0 0)
(0 0 0 0 0 0 0 0 0)
(0 0 0 0 0 0 0 0 0)
(0 0 0 0 0 0 0 0 0)
(0 0 0 0 0 0 0 0 0)
(0 0 0 0 0 0 0 0 0)
(0 0 0 0 0 0 0 0 0)
(0 0 0 0 0 0 0 0 0)
(0 0 0 0 0 0 0 0 0)
(0 0 0 0 0 0 0 0 0)
(0 0 0 0 0 0 0 0 0)
(0 0 0 0 0 0 0 0 0)
(0 0 0 0 0 0 0 0 0)
(10987 0 0 0 10987 0 0 0 10987)
(13259.4 0 0 0 13259.4 0 0 0 13259.4)
(12625.2 0 0 0 12625.2 0 0 0 12625.2)
(12161.3 0 0 0 12161.3 0 0 0 12161.3)
(12048.9 0 0 0 12048.9 0 0 0 12048.9)
(11963.3 0 0 0 11963.3 0 0 0 11963.3)
(11869.5 0 0 0 11869.5 0 0 0 11869.5)
(11792.9 0 0 0 11792.9 0 0 0 11792.9)
(11733.1 0 0 0 11733.1 0 0 0 11733.1)
(11684.5 0 0 0 11684.5 0 0 0 11684.5)
(11644.9 0 0 0 11644.9 0 0 0 11644.9)
(11612.9 0 0 0 11612.9 0 0 0 11612.9)
(11587.1 0 0 0 11587.1 0 0 0 11587.1)
(11566.5 0 0 0 11566.5 0 0 0 11566.5)
(11550.1 0 0 0 11550.1 0 0 0 11550.1)
(11537 0 0 0 11537 0 0 0 11537)
(11526.7 0 0 0 11526.7 0 0 0 11526.7)
(11518.4 0 0 0 11518.4 0 0 0 11518.4)
(11511.8 0 0 0 11511.8 0 0 0 11511.8)
(11506.4 0 0 0 11506.4 0 0 0 11506.4)
(11501.8 0 0 0 11501.8 0 0 0 11501.8)
(11497.7 0 0 0 11497.7 0 0 0 11497.7)
(11493.7 0 0 0 11493.7 0 0 0 11493.7)
(11489.6 0 0 0 11489.6 0 0 0 11489.6)
(11485.1 0 0 0 11485.1 0 0 0 11485.1)
(11479.6 0 0 0 11479.6 0 0 0 11479.6)
(11472.9 0 0 0 11472.9 0 0 0 11472.9)
(11464.2 0 0 0 11464.2 0 0 0 11464.2)
(11452.9 0 0 0 11452.9 0 0 0 11452.9)
(11438.2 0 0 0 11438.2 0 0 0 11438.2)
(11418.6 0 0 0 11418.6 0 0 0 11418.6)
(11393.8 0 0 0 11393.8 0 0 0 11393.8)
(11358.5 0 0 0 11358.5 0 0 0 11358.5)
(11333.4 0 0 0 11333.4 0 0 0 11333.4)
(11221.5 0 0 0 11221.5 0 0 0 11221.5)
(11489.1 0 0 0 11489.1 0 0 0 11489.1)
(10250.7 0 0 0 10250.7 0 0 0 10250.7)
(0 0 0 0 0 0 0 0 0)
(0 0 0 0 0 0 0 0 0)
(0 0 0 0 0 0 0 0 0)
(0 0 0 0 0 0 0 0 0)
(0 0 0 0 0 0 0 0 0)
(0 0 0 0 0 0 0 0 0)
(0 0 0 0 0 0 0 0 0)
(0 0 0 0 0 0 0 0 0)
(0 0 0 0 0 0 0 0 0)
(0 0 0 0 0 0 0 0 0)
(0 0 0 0 0 0 0 0 0)
(0 0 0 0 0 0 0 0 0)
(0 0 0 0 0 0 0 0 0)
(0 0 0 0 0 0 0 0 0)
(0 0 0 0 0 0 0 0 0)
(0 0 0 0 0 0 0 0 0)
(0 0 0 0 0 0 0 0 0)
(0 0 0 0 0 0 0 0 0)
(0 0 0 0 0 0 0 0 0)
(0 0 0 0 0 0 0 0 0)
(0 0 0 0 0 0 0 0 0)
(0 0 0 0 0 0 0 0 0)
(10599.3 0 0 0 10599.3 0 0 0 10599.3)
(10283.5 0 0 0 10283.5 0 0 0 10283.5)
(9989.05 0 0 0 9989.05 0 0 0 9989.05)
(9744.39 0 0 0 9744.39 0 0 0 9744.39)
(9536.52 0 0 0 9536.52 0 0 0 9536.52)
(9359.17 0 0 0 9359.17 0 0 0 9359.17)
(9197.81 0 0 0 9197.81 0 0 0 9197.81)
(9025.37 0 0 0 9025.37 0 0 0 9025.37)
(8781.95 0 0 0 8781.95 0 0 0 8781.95)
(8283.91 0 0 0 8283.91 0 0 0 8283.91)
(11872.6 0 0 0 11872.6 0 0 0 11872.6)
(11635.1 0 0 0 11635.1 0 0 0 11635.1)
(11427.7 0 0 0 11427.7 0 0 0 11427.7)
(11248.4 0 0 0 11248.4 0 0 0 11248.4)
(11095.1 0 0 0 11095.1 0 0 0 11095.1)
(10963.8 0 0 0 10963.8 0 0 0 10963.8)
(10847.7 0 0 0 10847.7 0 0 0 10847.7)
(10729.9 0 0 0 10729.9 0 0 0 10729.9)
(10558.9 0 0 0 10558.9 0 0 0 10558.9)
(10112.1 0 0 0 10112.1 0 0 0 10112.1)
(11531.5 0 0 0 11531.5 0 0 0 11531.5)
(11403.8 0 0 0 11403.8 0 0 0 11403.8)
(11289.1 0 0 0 11289.1 0 0 0 11289.1)
(11186.8 0 0 0 11186.8 0 0 0 11186.8)
(11098.9 0 0 0 11098.9 0 0 0 11098.9)
(11025 0 0 0 11025 0 0 0 11025)
(10961.9 0 0 0 10961.9 0 0 0 10961.9)
(10895.7 0 0 0 10895.7 0 0 0 10895.7)
(10773.2 0 0 0 10773.2 0 0 0 10773.2)
(10346.9 0 0 0 10346.9 0 0 0 10346.9)
(11583.3 0 0 0 11583.3 0 0 0 11583.3)
(11503.6 0 0 0 11503.6 0 0 0 11503.6)
(11432.8 0 0 0 11432.8 0 0 0 11432.8)
(11369.3 0 0 0 11369.3 0 0 0 11369.3)
(11315.1 0 0 0 11315.1 0 0 0 11315.1)
(11269.5 0 0 0 11269.5 0 0 0 11269.5)
(11230.4 0 0 0 11230.4 0 0 0 11230.4)
(11185.6 0 0 0 11185.6 0 0 0 11185.6)
(11083.1 0 0 0 11083.1 0 0 0 11083.1)
(10664.5 0 0 0 10664.5 0 0 0 10664.5)
(11563.9 0 0 0 11563.9 0 0 0 11563.9)
(11516.8 0 0 0 11516.8 0 0 0 11516.8)
(11474.9 0 0 0 11474.9 0 0 0 11474.9)
(11437.2 0 0 0 11437.2 0 0 0 11437.2)
(11405.2 0 0 0 11405.2 0 0 0 11405.2)
(11378.4 0 0 0 11378.4 0 0 0 11378.4)
(11354.6 0 0 0 11354.6 0 0 0 11354.6)
(11323.1 0 0 0 11323.1 0 0 0 11323.1)
(11232 0 0 0 11232 0 0 0 11232)
(10815.8 0 0 0 10815.8 0 0 0 10815.8)
(11562 0 0 0 11562 0 0 0 11562)
(11533.9 0 0 0 11533.9 0 0 0 11533.9)
(11508.9 0 0 0 11508.9 0 0 0 11508.9)
(11486.6 0 0 0 11486.6 0 0 0 11486.6)
(11467.7 0 0 0 11467.7 0 0 0 11467.7)
(11451.7 0 0 0 11451.7 0 0 0 11451.7)
(11436.8 0 0 0 11436.8 0 0 0 11436.8)
(11412.6 0 0 0 11412.6 0 0 0 11412.6)
(11327.8 0 0 0 11327.8 0 0 0 11327.8)
(10912.7 0 0 0 10912.7 0 0 0 10912.7)
(11557.5 0 0 0 11557.5 0 0 0 11557.5)
(11541.2 0 0 0 11541.2 0 0 0 11541.2)
(11526.7 0 0 0 11526.7 0 0 0 11526.7)
(11513.9 0 0 0 11513.9 0 0 0 11513.9)
(11503 0 0 0 11503 0 0 0 11503)
(11493.8 0 0 0 11493.8 0 0 0 11493.8)
(11484.2 0 0 0 11484.2 0 0 0 11484.2)
(11464.3 0 0 0 11464.3 0 0 0 11464.3)
(11383 0 0 0 11383 0 0 0 11383)
(10968.1 0 0 0 10968.1 0 0 0 10968.1)
(11553.7 0 0 0 11553.7 0 0 0 11553.7)
(11544.8 0 0 0 11544.8 0 0 0 11544.8)
(11536.7 0 0 0 11536.7 0 0 0 11536.7)
(11529.7 0 0 0 11529.7 0 0 0 11529.7)
(11523.9 0 0 0 11523.9 0 0 0 11523.9)
(11518.8 0 0 0 11518.8 0 0 0 11518.8)
(11512.4 0 0 0 11512.4 0 0 0 11512.4)
(11495 0 0 0 11495 0 0 0 11495)
(11415.6 0 0 0 11415.6 0 0 0 11415.6)
(11000.4 0 0 0 11000.4 0 0 0 11000.4)
(11550.1 0 0 0 11550.1 0 0 0 11550.1)
(11545.8 0 0 0 11545.8 0 0 0 11545.8)
(11541.8 0 0 0 11541.8 0 0 0 11541.8)
(11538.5 0 0 0 11538.5 0 0 0 11538.5)
(11535.7 0 0 0 11535.7 0 0 0 11535.7)
(11533.3 0 0 0 11533.3 0 0 0 11533.3)
(11528.9 0 0 0 11528.9 0 0 0 11528.9)
(11513 0 0 0 11513 0 0 0 11513)
(11434.5 0 0 0 11434.5 0 0 0 11434.5)
(11018.9 0 0 0 11018.9 0 0 0 11018.9)
(11547.1 0 0 0 11547.1 0 0 0 11547.1)
(11545.7 0 0 0 11545.7 0 0 0 11545.7)
(11544.3 0 0 0 11544.3 0 0 0 11544.3)
(11543.2 0 0 0 11543.2 0 0 0 11543.2)
(11542.5 0 0 0 11542.5 0 0 0 11542.5)
(11541.7 0 0 0 11541.7 0 0 0 11541.7)
(11538.7 0 0 0 11538.7 0 0 0 11538.7)
(11523.6 0 0 0 11523.6 0 0 0 11523.6)
(11445.5 0 0 0 11445.5 0 0 0 11445.5)
(11029.5 0 0 0 11029.5 0 0 0 11029.5)
(11544.6 0 0 0 11544.6 0 0 0 11544.6)
(11545.1 0 0 0 11545.1 0 0 0 11545.1)
(11545.3 0 0 0 11545.3 0 0 0 11545.3)
(11545.9 0 0 0 11545.9 0 0 0 11545.9)
(11546.5 0 0 0 11546.5 0 0 0 11546.5)
(11546.8 0 0 0 11546.8 0 0 0 11546.8)
(11544.6 0 0 0 11544.6 0 0 0 11544.6)
(11530 0 0 0 11530 0 0 0 11530)
(11452.1 0 0 0 11452.1 0 0 0 11452.1)
(11035.8 0 0 0 11035.8 0 0 0 11035.8)
(11542.8 0 0 0 11542.8 0 0 0 11542.8)
(11544.5 0 0 0 11544.5 0 0 0 11544.5)
(11545.8 0 0 0 11545.8 0 0 0 11545.8)
(11547.4 0 0 0 11547.4 0 0 0 11547.4)
(11548.9 0 0 0 11548.9 0 0 0 11548.9)
(11550.1 0 0 0 11550.1 0 0 0 11550.1)
(11548.5 0 0 0 11548.5 0 0 0 11548.5)
(11534.2 0 0 0 11534.2 0 0 0 11534.2)
(11456.4 0 0 0 11456.4 0 0 0 11456.4)
(11040.1 0 0 0 11040.1 0 0 0 11040.1)
(11541.5 0 0 0 11541.5 0 0 0 11541.5)
(11544.1 0 0 0 11544.1 0 0 0 11544.1)
(11546.1 0 0 0 11546.1 0 0 0 11546.1)
(11548.4 0 0 0 11548.4 0 0 0 11548.4)
(11550.6 0 0 0 11550.6 0 0 0 11550.6)
(11552.4 0 0 0 11552.4 0 0 0 11552.4)
(11551.3 0 0 0 11551.3 0 0 0 11551.3)
(11537.3 0 0 0 11537.3 0 0 0 11537.3)
(11459.7 0 0 0 11459.7 0 0 0 11459.7)
(11043.6 0 0 0 11043.6 0 0 0 11043.6)
(11540.5 0 0 0 11540.5 0 0 0 11540.5)
(11543.7 0 0 0 11543.7 0 0 0 11543.7)
(11546.4 0 0 0 11546.4 0 0 0 11546.4)
(11549.2 0 0 0 11549.2 0 0 0 11549.2)
(11552 0 0 0 11552 0 0 0 11552)
(11554.3 0 0 0 11554.3 0 0 0 11554.3)
(11553.6 0 0 0 11553.6 0 0 0 11553.6)
(11539.9 0 0 0 11539.9 0 0 0 11539.9)
(11462.6 0 0 0 11462.6 0 0 0 11462.6)
(11047.1 0 0 0 11047.1 0 0 0 11047.1)
(11539.8 0 0 0 11539.8 0 0 0 11539.8)
(11543.5 0 0 0 11543.5 0 0 0 11543.5)
(11546.6 0 0 0 11546.6 0 0 0 11546.6)
(11549.9 0 0 0 11549.9 0 0 0 11549.9)
(11553.1 0 0 0 11553.1 0 0 0 11553.1)
(11555.9 0 0 0 11555.9 0 0 0 11555.9)
(11555.7 0 0 0 11555.7 0 0 0 11555.7)
(11542.3 0 0 0 11542.3 0 0 0 11542.3)
(11465.5 0 0 0 11465.5 0 0 0 11465.5)
(11051.1 0 0 0 11051.1 0 0 0 11051.1)
(11539 0 0 0 11539 0 0 0 11539)
(11543.2 0 0 0 11543.2 0 0 0 11543.2)
(11546.6 0 0 0 11546.6 0 0 0 11546.6)
(11550.3 0 0 0 11550.3 0 0 0 11550.3)
(11554 0 0 0 11554 0 0 0 11554)
(11557.2 0 0 0 11557.2 0 0 0 11557.2)
(11557.5 0 0 0 11557.5 0 0 0 11557.5)
(11544.6 0 0 0 11544.6 0 0 0 11544.6)
(11468.5 0 0 0 11468.5 0 0 0 11468.5)
(11055.6 0 0 0 11055.6 0 0 0 11055.6)
(11538 0 0 0 11538 0 0 0 11538)
(11542.5 0 0 0 11542.5 0 0 0 11542.5)
(11546.3 0 0 0 11546.3 0 0 0 11546.3)
(11550.3 0 0 0 11550.3 0 0 0 11550.3)
(11554.4 0 0 0 11554.4 0 0 0 11554.4)
(11558.1 0 0 0 11558.1 0 0 0 11558.1)
(11558.9 0 0 0 11558.9 0 0 0 11558.9)
(11546.6 0 0 0 11546.6 0 0 0 11546.6)
(11471.5 0 0 0 11471.5 0 0 0 11471.5)
(11060.9 0 0 0 11060.9 0 0 0 11060.9)
(11536.4 0 0 0 11536.4 0 0 0 11536.4)
(11541.2 0 0 0 11541.2 0 0 0 11541.2)
(11545.2 0 0 0 11545.2 0 0 0 11545.2)
(11549.7 0 0 0 11549.7 0 0 0 11549.7)
(11554.2 0 0 0 11554.2 0 0 0 11554.2)
(11558.4 0 0 0 11558.4 0 0 0 11558.4)
(11559.8 0 0 0 11559.8 0 0 0 11559.8)
(11548.1 0 0 0 11548.1 0 0 0 11548.1)
(11474.5 0 0 0 11474.5 0 0 0 11474.5)
(11066.7 0 0 0 11066.7 0 0 0 11066.7)
(11534 0 0 0 11534 0 0 0 11534)
(11539.1 0 0 0 11539.1 0 0 0 11539.1)
(11543.3 0 0 0 11543.3 0 0 0 11543.3)
(11548 0 0 0 11548 0 0 0 11548)
(11553 0 0 0 11553 0 0 0 11553)
(11557.7 0 0 0 11557.7 0 0 0 11557.7)
(11559.8 0 0 0 11559.8 0 0 0 11559.8)
(11548.9 0 0 0 11548.9 0 0 0 11548.9)
(11477.2 0 0 0 11477.2 0 0 0 11477.2)
(11073.1 0 0 0 11073.1 0 0 0 11073.1)
(11530.3 0 0 0 11530.3 0 0 0 11530.3)
(11535.5 0 0 0 11535.5 0 0 0 11535.5)
(11539.9 0 0 0 11539.9 0 0 0 11539.9)
(11544.9 0 0 0 11544.9 0 0 0 11544.9)
(11550.3 0 0 0 11550.3 0 0 0 11550.3)
(11555.5 0 0 0 11555.5 0 0 0 11555.5)
(11558.3 0 0 0 11558.3 0 0 0 11558.3)
(11548.6 0 0 0 11548.6 0 0 0 11548.6)
(11479 0 0 0 11479 0 0 0 11479)
(11079.6 0 0 0 11079.6 0 0 0 11079.6)
(11524.9 0 0 0 11524.9 0 0 0 11524.9)
(11530.1 0 0 0 11530.1 0 0 0 11530.1)
(11534.5 0 0 0 11534.5 0 0 0 11534.5)
(11539.8 0 0 0 11539.8 0 0 0 11539.8)
(11545.5 0 0 0 11545.5 0 0 0 11545.5)
(11551.4 0 0 0 11551.4 0 0 0 11551.4)
(11554.9 0 0 0 11554.9 0 0 0 11554.9)
(11546.4 0 0 0 11546.4 0 0 0 11546.4)
(11479.6 0 0 0 11479.6 0 0 0 11479.6)
(11085.9 0 0 0 11085.9 0 0 0 11085.9)
(11517 0 0 0 11517 0 0 0 11517)
(11522.1 0 0 0 11522.1 0 0 0 11522.1)
(11526.5 0 0 0 11526.5 0 0 0 11526.5)
(11531.8 0 0 0 11531.8 0 0 0 11531.8)
(11537.9 0 0 0 11537.9 0 0 0 11537.9)
(11544.3 0 0 0 11544.3 0 0 0 11544.3)
(11548.9 0 0 0 11548.9 0 0 0 11548.9)
(11541.7 0 0 0 11541.7 0 0 0 11541.7)
(11478.2 0 0 0 11478.2 0 0 0 11478.2)
(11091.6 0 0 0 11091.6 0 0 0 11091.6)
(11506.2 0 0 0 11506.2 0 0 0 11506.2)
(11510.9 0 0 0 11510.9 0 0 0 11510.9)
(11515 0 0 0 11515 0 0 0 11515)
(11520.3 0 0 0 11520.3 0 0 0 11520.3)
(11526.6 0 0 0 11526.6 0 0 0 11526.6)
(11533.6 0 0 0 11533.6 0 0 0 11533.6)
(11539 0 0 0 11539 0 0 0 11539)
(11533.5 0 0 0 11533.5 0 0 0 11533.5)
(11473.9 0 0 0 11473.9 0 0 0 11473.9)
(11095.7 0 0 0 11095.7 0 0 0 11095.7)
(11491.4 0 0 0 11491.4 0 0 0 11491.4)
(11495.3 0 0 0 11495.3 0 0 0 11495.3)
(11498.9 0 0 0 11498.9 0 0 0 11498.9)
(11503.9 0 0 0 11503.9 0 0 0 11503.9)
(11510.3 0 0 0 11510.3 0 0 0 11510.3)
(11517.8 0 0 0 11517.8 0 0 0 11517.8)
(11524.2 0 0 0 11524.2 0 0 0 11524.2)
(11520.6 0 0 0 11520.6 0 0 0 11520.6)
(11465.3 0 0 0 11465.3 0 0 0 11465.3)
(11097.5 0 0 0 11097.5 0 0 0 11097.5)
(11471.6 0 0 0 11471.6 0 0 0 11471.6)
(11474.3 0 0 0 11474.3 0 0 0 11474.3)
(11477 0 0 0 11477 0 0 0 11477)
(11481.2 0 0 0 11481.2 0 0 0 11481.2)
(11487.5 0 0 0 11487.5 0 0 0 11487.5)
(11495.3 0 0 0 11495.3 0 0 0 11495.3)
(11502.8 0 0 0 11502.8 0 0 0 11502.8)
(11501.2 0 0 0 11501.2 0 0 0 11501.2)
(11450.9 0 0 0 11450.9 0 0 0 11450.9)
(11095.4 0 0 0 11095.4 0 0 0 11095.4)
(11445.6 0 0 0 11445.6 0 0 0 11445.6)
(11446.2 0 0 0 11446.2 0 0 0 11446.2)
(11447.3 0 0 0 11447.3 0 0 0 11447.3)
(11450.5 0 0 0 11450.5 0 0 0 11450.5)
(11456.2 0 0 0 11456.2 0 0 0 11456.2)
(11464.2 0 0 0 11464.2 0 0 0 11464.2)
(11472.7 0 0 0 11472.7 0 0 0 11472.7)
(11473.3 0 0 0 11473.3 0 0 0 11473.3)
(11428.6 0 0 0 11428.6 0 0 0 11428.6)
(11087.6 0 0 0 11087.6 0 0 0 11087.6)
(11411.6 0 0 0 11411.6 0 0 0 11411.6)
(11409.2 0 0 0 11409.2 0 0 0 11409.2)
(11407.9 0 0 0 11407.9 0 0 0 11407.9)
(11409.2 0 0 0 11409.2 0 0 0 11409.2)
(11413.8 0 0 0 11413.8 0 0 0 11413.8)
(11421.7 0 0 0 11421.7 0 0 0 11421.7)
(11431 0 0 0 11431 0 0 0 11431)
(11434 0 0 0 11434 0 0 0 11434)
(11395.6 0 0 0 11395.6 0 0 0 11395.6)
(11071.3 0 0 0 11071.3 0 0 0 11071.3)
(11367.8 0 0 0 11367.8 0 0 0 11367.8)
(11360.8 0 0 0 11360.8 0 0 0 11360.8)
(11356 0 0 0 11356 0 0 0 11356)
(11354.3 0 0 0 11354.3 0 0 0 11354.3)
(11357 0 0 0 11357 0 0 0 11357)
(11364.1 0 0 0 11364.1 0 0 0 11364.1)
(11374 0 0 0 11374 0 0 0 11374)
(11379.5 0 0 0 11379.5 0 0 0 11379.5)
(11348.1 0 0 0 11348.1 0 0 0 11348.1)
(11043.1 0 0 0 11043.1 0 0 0 11043.1)
(11311.6 0 0 0 11311.6 0 0 0 11311.6)
(11297.9 0 0 0 11297.9 0 0 0 11297.9)
(11287.7 0 0 0 11287.7 0 0 0 11287.7)
(11281.6 0 0 0 11281.6 0 0 0 11281.6)
(11281.2 0 0 0 11281.2 0 0 0 11281.2)
(11286.6 0 0 0 11286.6 0 0 0 11286.6)
(11296.6 0 0 0 11296.6 0 0 0 11296.6)
(11304.5 0 0 0 11304.5 0 0 0 11304.5)
(11280.6 0 0 0 11280.6 0 0 0 11280.6)
(10997.9 0 0 0 10997.9 0 0 0 10997.9)