/*--------------------------------*- C++ -*----------------------------------*\
| =========                 |                                                 |
| \\      /  F ield         | OpenFOAM: The Open Source CFD Toolbox           |
|  \\    /   O peration     | Version:  2406                                  |
|   \\  /    A nd           | Website:  www.openfoam.com                      |
|    \\/     M anipulation  |                                                 |
\*---------------------------------------------------------------------------*/
FoamFile
{
    version     2.0;
    format      ascii;
    arch        "LSB;label=32;scalar=64";
    class       volScalarField;
    location    "0/fluidRegion";
    object      nut;
}
// * * * * * * * * * * * * * * * * * * * * * * * * * * * * * * * * * * * * * //

dimensions      [0 2 -1 0 0 0 0];

internalField   nonuniform List<scalar> 
8595
(
0.000141007
0.000197091
0.00023788
0.000274374
0.000305453
0.000331805
0.000353941
0.000365759
0.000368486
0.000363682
0.000353599
0.000339699
0.000326322
0.000310551
0.000303786
0.000298704
0.000305667
0.000331004
0.000369543
0.00037557
0.000375627
0.0003731
0.000369145
0.000364507
0.000359468
0.000354171
0.000348719
0.000343187
0.000337633
0.0003321
0.000326622
0.000321225
0.000315927
0.000310745
0.00030569
0.000300771
0.000295993
0.000291361
0.000286877
0.000282541
0.000278354
0.000274314
0.000270418
0.000266662
0.000263041
0.000259549
0.000256175
0.000252906
0.000249726
0.000246608
0.000243517
0.000240404
0.000237178
0.000233815
0.000230021
0.000213233
0.000159146
0.000534288
0.000641066
0.000974113
0.00133298
0.00169442
0.00203426
0.0022482
0.00238366
0.00245426
0.00247121
0.00245158
0.00240418
0.00234853
0.00227677
0.00222001
0.00214212
0.0021494
0.00228862
0.00205642
0.00173267
0.00148369
0.00129345
0.00114046
0.00101356
0.000908738
0.000821302
0.000747404
0.000684144
0.000629348
0.000581377
0.000538993
0.000501247
0.000467407
0.000436899
0.000409265
0.000384138
0.000361215
0.000340247
0.000321028
0.000303374
0.000287135
0.000272181
0.000258398
0.000245688
0.000233966
0.000223162
0.000213219
0.000204098
0.000195779
0.00018827
0.000181622
0.000175928
0.000171495
0.000168245
0.000169861
0.000222345
0.000563651
0.000568595
0.000952573
0.00149871
0.00206185
0.00258317
0.00301526
0.00327112
0.00342872
0.00351388
0.00353973
0.00352531
0.0034805
0.0034248
0.0033486
0.0032775
0.00317584
0.00312531
0.00316698
0.00287346
0.00246015
0.0021268
0.00185949
0.00163561
0.00144619
0.00128585
0.00114986
0.00103378
0.000933983
0.000847567
0.000772203
0.000706046
0.000647629
0.000595775
0.000549537
0.000508143
0.000470956
0.000437449
0.000407179
0.000379768
0.000354896
0.000332287
0.000311699
0.000292925
0.00027578
0.000260102
0.000245746
0.000232585
0.000220507
0.000209411
0.000199214
0.000189857
0.000181296
0.000173645
0.000166784
0.000162978
0.000215928
0.000592811
0.000573958
0.0011356
0.00179428
0.00245336
0.00301857
0.00342407
0.00365008
0.00379411
0.00388045
0.00392009
0.00392679
0.00391166
0.00388222
0.00382674
0.00375712
0.00363719
0.00351622
0.00342244
0.00309065
0.00265687
0.00231701
0.00204263
0.00180846
0.00160728
0.00143413
0.00128493
0.00115583
0.0010436
0.000945598
0.000859602
0.000783803
0.000716711
0.000657102
0.000603958
0.000556433
0.000513817
0.000475509
0.000440994
0.000409835
0.000381658
0.000356132
0.000332972
0.000311926
0.000292773
0.00027532
0.000259393
0.000244837
0.000231513
0.000219294
0.000208061
0.000197707
0.000188111
0.00017926
0.000170831
0.000164409
0.000215269
0.000609818
0.00056102
0.00121617
0.00191895
0.00260143
0.00313803
0.00344586
0.0036234
0.00374682
0.00383085
0.00389223
0.0039349
0.00396261
0.00397374
0.00395358
0.00389847
0.00377317
0.0035941
0.00336518
0.00303073
0.00259876
0.00227317
0.00201359
0.00179139
0.00159933
0.00143298
0.00128841
0.00116221
0.00105159
0.000954275
0.000868354
0.000792235
0.00072459
0.000664303
0.000610436
0.000562189
0.000518883
0.000479934
0.00044484
0.000413166
0.000384536
0.000358617
0.000335122
0.000313795
0.000294415
0.000276783
0.000260726
0.000246089
0.000232737
0.000220546
0.000209403
0.000199203
0.000189812
0.000181184
0.000172815
0.000166027
0.000216431
0.00062202
0.000537034
0.00122927
0.00189873
0.00251974
0.00294551
0.00315494
0.00329547
0.00340398
0.00349532
0.0035833
0.00366792
0.00374538
0.00380655
0.00383295
0.00380843
0.00369905
0.00349796
0.00317415
0.00285516
0.00243244
0.00212463
0.00188444
0.00168018
0.00150381
0.00135126
0.00121842
0.00110201
0.000999518
0.000908942
0.000828626
0.000757198
0.000693509
0.000636588
0.000585608
0.00053986
0.000498735
0.000461704
0.000428309
0.000398149
0.000370873
0.000346174
0.000323783
0.000303463
0.000285006
0.000268227
0.000252968
0.000239089
0.000226469
0.000215003
0.000204602
0.000195188
0.000186653
0.000178984
0.000171589
0.000165747
0.000217707
0.000631967
0.000516719
0.00116168
0.00166535
0.00217791
0.00246468
0.00263707
0.00275675
0.00285833
0.00296073
0.0030749
0.00319989
0.00332738
0.00344272
0.00352368
0.00354578
0.00347734
0.0032992
0.00293966
0.00264522
0.00223161
0.0019393
0.00171718
0.00153058
0.00137055
0.00123311
0.0011138
0.00100932
0.000917246
0.000835744
0.000763328
0.000698792
0.000641131
0.000589502
0.000543186
0.000501562
0.000464098
0.000430327
0.000399843
0.000372291
0.000347359
0.000324772
0.000304288
0.000285697
0.000268812
0.00025347
0.000239532
0.000226878
0.000215407
0.000205038
0.00019571
0.00018738
0.000179982
0.000173563
0.000167536
0.000163265
0.000218244
0.000640746
0.000510765
0.000899745
0.00129525
0.00166793
0.00189126
0.00202908
0.00212835
0.00222275
0.00233191
0.0024647
0.00261984
0.00278779
0.00295163
0.00308725
0.00316623
0.00316089
0.00304783
0.00271315
0.00244632
0.00203511
0.00175324
0.00154569
0.00137347
0.00122839
0.00110511
0.000998818
0.000906091
0.000824552
0.000752434
0.000688363
0.000631244
0.000580181
0.000534427
0.000493351
0.000456411
0.000423138
0.000393127
0.00036602
0.000341507
0.000319313
0.000299199
0.000280952
0.000264387
0.000249343
0.000235679
0.000223276
0.000212033
0.000201872
0.000192732
0.000184578
0.0001774
0.000171179
0.000166028
0.000161421
0.000158894
0.000217817
0.000648931
0.000576672
0.000753458
0.00106431
0.0012861
0.00141059
0.0014912
0.00156297
0.00164896
0.00176123
0.00190337
0.00207239
0.0022598
0.00245118
0.00262567
0.00275687
0.00282461
0.00280486
0.00254214
0.00229582
0.00186919
0.00158922
0.00139089
0.00122967
0.00109648
0.000984899
0.000889666
0.000807179
0.000735
0.000671371
0.000614965
0.000564751
0.0005199
0.000479735
0.000443686
0.00041127
0.000382073
0.000355734
0.000331941
0.00031042
0.00029093
0.000273262
0.000257232
0.000242677
0.000229457
0.000217454
0.000206564
0.000196705
0.000187815
0.000179853
0.0001728
0.000166676
0.000161498
0.000157443
0.000154073
0.00015315
0.000216128
0.000656817
0.000828849
0.00086809
0.000999404
0.00104829
0.0010804
0.00112566
0.00119887
0.00130538
0.00144277
0.00160356
0.00177905
0.00196168
0.00214455
0.00231889
0.00247033
0.00259404
0.00266454
0.00249013
0.00223592
0.0017566
0.00146564
0.00126827
0.00111331
0.000988043
0.000884862
0.000797922
0.000723335
0.000658531
0.000601706
0.000551532
0.000506997
0.000467308
0.000431826
0.000400021
0.00037145
0.000345734
0.000322549
0.000301612
0.00028268
0.000265537
0.000249998
0.000235899
0.000223099
0.000211474
0.00020092
0.000191348
0.00018269
0.000174893
0.000167927
0.000161787
0.000156505
0.000152123
0.000148867
0.000146387
0.000146699
0.000213448
0.000665677
0.000684827
0.000675218
0.000667652
0.000659739
0.000650992
0.000640564
0.000627032
0.000607239
0.000572564
0.000126487
0.000208311
0.000214537
0.000219308
0.000221848
0.000222081
0.00021974
0.000215369
0.000210161
0.000206175
0.000176331
0.000136252
0.000144631
0.000153448
0.000161489
0.000167397
0.000170036
0.000169124
0.000166346
0.000168078
0.000199322
0.000135697
0.000144374
0.000154256
0.000164086
0.000172151
0.000176648
0.000176284
0.000171578
0.000168692
0.000202764
0.000138443
0.000147351
0.000158023
0.000169219
0.000178973
0.000184982
0.000185188
0.000179226
0.000173079
0.000205922
0.000142078
0.000151318
0.000162743
0.000175146
0.000186373
0.000193712
0.000194475
0.000187481
0.000178348
0.000209014
0.000146762
0.000156485
0.000168744
0.000182342
0.000194927
0.000203414
0.000204568
0.000196527
0.00018457
0.000212078
0.000152256
0.000162602
0.000175806
0.000190654
0.000204575
0.000214105
0.000215503
0.000206313
0.000191528
0.000215188
0.000158519
0.000169619
0.000183897
0.00020009
0.000215382
0.000225907
0.000227414
0.000216913
0.000199167
0.000218381
0.000165539
0.000177517
0.000193005
0.000210665
0.000227406
0.000238918
0.000240419
0.000228404
0.000207459
0.000221682
0.000173344
0.000186321
0.000203165
0.000222442
0.00024074
0.000253263
0.000254651
0.000240883
0.000216414
0.000225111
0.000181986
0.00019609
0.000214449
0.00023551
0.000255504
0.000269084
0.000270256
0.00025446
0.000226059
0.000228679
0.000191544
0.00020691
0.000226957
0.000249997
0.00027185
0.000286552
0.000287401
0.000269262
0.000236442
0.000232395
0.000202117
0.000218891
0.000240821
0.000266059
0.000289963
0.000305866
0.000306276
0.000285428
0.000247619
0.000236266
0.000213828
0.000232172
0.000256201
0.000283886
0.000310062
0.00032726
0.000327098
0.000303123
0.000259663
0.000240299
0.000226824
0.00024692
0.000273292
0.000303709
0.000332406
0.000351008
0.000350119
0.000322529
0.000272659
0.000244499
0.000241282
0.000263334
0.000292328
0.000325798
0.000357303
0.000377427
0.00037563
0.000343862
0.000286703
0.000248871
0.000257415
0.000281654
0.000313584
0.000350476
0.000385114
0.000406894
0.000403971
0.000367366
0.000301909
0.000253419
0.000275474
0.000302166
0.000337392
0.000378125
0.000416266
0.000439847
0.000435538
0.00039333
0.000318411
0.000258148
0.000295764
0.00032521
0.000364145
0.0004092
0.000451264
0.000476806
0.000470796
0.000422089
0.000336363
0.000263063
0.000318653
0.000351203
0.000394317
0.000444244
0.00049071
0.000518383
0.000510297
0.00045404
0.000355948
0.000268168
0.000344574
0.000380644
0.000428496
0.000483925
0.000535323
0.00056531
0.00055469
0.000489649
0.000377382
0.000273467
0.000374062
0.000414135
0.000467368
0.000529038
0.000585994
0.000618465
0.000604749
0.000529474
0.000400924
0.000278965
0.000407774
0.000452421
0.000511788
0.000580552
0.000643781
0.000678928
0.000661388
0.000574178
0.000426885
0.000284664
0.000446526
0.000496422
0.000562807
0.000639657
0.000709977
0.000748
0.000725776
0.000624501
0.00045564
0.00029057
0.000491331
0.000547287
0.000621731
0.000707824
0.00078617
0.000827264
0.000799307
0.000681463
0.000487584
0.000296685
0.000543472
0.000606462
0.000690194
0.000786877
0.000874318
0.000918666
0.00088369
0.000746289
0.000523217
0.000303011
0.000604577
0.000675779
0.00077026
0.0008791
0.000976846
0.0010246
0.000981028
0.00082049
0.000563276
0.000309547
0.00067674
0.000757587
0.000864551
0.000987366
0.00109678
0.00114803
0.00109393
0.000905952
0.000608625
0.000316292
0.000762688
0.000854926
0.000976425
0.0011153
0.00123787
0.00129263
0.00122564
0.00100506
0.00066037
0.000323238
0.000866008
0.00097176
0.00111021
0.00126751
0.00140483
0.00146295
0.00138021
0.00112086
0.000719955
0.000330373
0.000991475
0.00111331
0.00127149
0.00144979
0.00160347
0.00166458
0.00156271
0.00125729
0.00078931
0.00033767
0.00114553
0.00128647
0.00146752
0.00166948
0.00184093
0.00190432
0.00177944
0.0014195
0.000871072
0.000345083
0.00133703
0.00150055
0.00170772
0.00193578
0.00212591
0.0021904
0.00203827
0.00161435
0.000968994
0.000352526
0.00157842
0.00176811
0.00200438
0.00226009
0.00246873
0.00253246
0.00234892
0.00185117
0.00108868
0.00035984
0.00188587
0.00210459
0.0023717
0.0026548
0.0028799
0.00294032
0.00272233
0.00214226
0.00123861
0.000366698
0.00227893
0.00252763
0.00282442
0.00313135
0.00336834
0.00342258
0.00317006
0.00250366
0.00143195
0.000372388
0.00281142
0.00308553
0.00340312
0.00372296
0.00396121
0.00400311
0.00371737
0.00296683
0.00169706
0.000375401
0.00361497
0.00388272
0.00420087
0.00451291
0.00472952
0.0047385
0.00441085
0.00358637
0.00210431
0.000371931
0.00423729
0.00453231
0.0048824
0.00521608
0.00543421
0.00542024
0.00504726
0.0041574
0.00257791
0.000326067
0.00386387
0.00415491
0.00448685
0.0047909
0.00496557
0.00489971
0.00448947
0.00362286
0.00218907
0.000282889
0.00403095
0.00430598
0.00458088
0.00479146
0.00485102
0.00466681
0.00415406
0.00323788
0.0018639
0.000246986
0.00431433
0.00457358
0.00478518
0.00488756
0.00481446
0.0045037
0.00390678
0.00297825
0.00167626
0.000225305
0.00453289
0.00476085
0.00489709
0.00489191
0.00470302
0.00430093
0.00365883
0.0027446
0.00152233
0.000208023
0.00463862
0.00483521
0.00490318
0.0048102
0.00453953
0.00408033
0.0034181
0.00253043
0.00138794
0.000192666
0.0045988
0.00477115
0.00478667
0.00463034
0.00430735
0.00382005
0.00316113
0.00231329
0.00125354
0.000179405
0.00440719
0.00455631
0.00453477
0.00434922
0.00401264
0.0035304
0.00289899
0.00210516
0.00113219
0.000167182
0.00406273
0.00420716
0.00418231
0.00399976
0.00367637
0.00322135
0.00263445
0.00190555
0.00102226
0.000155391
0.0036124
0.00376852
0.00375895
0.00359747
0.0033046
0.00289244
0.00236289
0.001708
0.000917953
0.000143679
0.00310012
0.00327632
0.00329198
0.00316162
0.00290931
0.00254934
0.002085
0.00150989
0.000815765
0.000131836
0.00256203
0.00276022
0.00280436
0.00270897
0.00250172
0.00219843
0.00180312
0.00131054
0.000713695
0.00011974
0.00202813
0.00224499
0.00231556
0.00225431
0.00209261
0.00184694
0.00152134
0.00111141
0.000611465
0.000107369
0.00152181
0.00174978
0.00184049
0.00180905
0.00169051
0.00150074
0.00124315
0.000914004
0.000509205
9.46648e-05
0.00106745
0.00129366
0.00139233
0.00138332
0.00130309
0.00116522
0.000971794
0.000719709
0.000407049
8.16762e-05
0.000679499
0.000884843
0.000977278
0.000982861
0.000935048
0.000843821
0.000709885
0.000530792
0.000306737
6.80195e-05
0.000411689
0.00056197
0.00062097
0.00062255
0.000594787
0.000540208
0.000457612
0.000344993
0.000205932
5.38638e-05
0.000290346
0.000209767
0.000199432
0.00020568
0.000212311
0.000214473
0.000211096
0.000200851
0.000181531
3.62877e-05
7.04019e-05
6.57403e-05
6.36162e-05
6.25092e-05
6.24871e-05
6.35311e-05
6.55345e-05
6.82723e-05
7.15526e-05
7.50067e-05
7.71202e-05
0.000234357
0.000204672
0.000184633
0.00016938
0.000154029
0.00013962
0.000127647
0.000119949
0.000116625
0.000117981
0.000123492
0.000496764
0.000415137
0.000370944
0.000341906
0.000317908
0.000298373
0.000284077
0.000277822
0.000282336
0.000302261
0.00034108
0.000755258
0.000661627
0.000612413
0.000582714
0.000561591
0.000547603
0.00054086
0.000544762
0.000566106
0.000611232
0.000689725
0.000961614
0.000882156
0.000842878
0.000821079
0.000807727
0.000801595
0.000802894
0.000814757
0.000846098
0.000900723
0.000989283
0.0011029
0.00104337
0.00102008
0.00101049
0.00100706
0.00100881
0.00101604
0.00103076
0.00106195
0.0011104
0.00118422
0.00119579
0.00114916
0.00114007
0.0011424
0.00114809
0.00115571
0.00116543
0.00117802
0.00120157
0.00123512
0.00128422
0.00126019
0.00121225
0.00120977
0.00122012
0.00123212
0.00124288
0.00125201
0.00125991
0.00127265
0.00128922
0.00131369
0.00131725
0.00125051
0.00124282
0.00125431
0.00126841
0.0012795
0.00128614
0.00128829
0.00129034
0.00129198
0.00129659
0.00138668
0.00128483
0.00125768
0.00126089
0.0012714
0.00127969
0.00128247
0.00127905
0.00127235
0.0012629
0.00125376
0.00148514
0.00133689
0.00127582
0.00125924
0.00125857
0.00125977
0.00125698
0.0012483
0.00123523
0.00121893
0.00120237
0.00163187
0.00143179
0.00132394
0.00127427
0.0012521
0.00123968
0.0012283
0.00121459
0.00119822
0.00118006
0.00116287
0.00184661
0.00159663
0.00143609
0.00134311
0.00128938
0.00125585
0.00123186
0.0012126
0.00119565
0.00118006
0.00116791
0.00215134
0.00185836
0.00164747
0.00150855
0.00141828
0.00135879
0.00131867
0.00129175
0.00127414
0.00126224
0.00125717
0.00252204
0.00220154
0.00195298
0.00177597
0.00165248
0.00156721
0.00150913
0.00147139
0.00144986
0.00143905
0.00143908
0.0029183
0.00258954
0.00232093
0.00211927
0.00197138
0.00186498
0.00179031
0.00174069
0.00171255
0.00169963
0.00170101
0.00330986
0.00299093
0.00272025
0.00250917
0.00234858
0.00222911
0.00214259
0.00208304
0.00204775
0.00203096
0.00203087
0.00366945
0.00337547
0.00311887
0.00291328
0.00275279
0.00263056
0.00253992
0.00247564
0.00243561
0.00241577
0.0024137
0.00397338
0.00371623
0.00348695
0.0032997
0.00315119
0.0030368
0.00295117
0.00288985
0.00284954
0.00283004
0.00282805
0.00420156
0.00399029
0.00379859
0.00363982
0.00351301
0.00341548
0.00334299
0.00329168
0.00325841
0.00324417
0.00324598
0.0043371
0.0041787
0.00403228
0.00390956
0.00381182
0.00373818
0.00368552
0.00365051
0.00363029
0.00362614
0.00363581
0.00436463
0.00426453
0.00416901
0.00408759
0.00402392
0.003979
0.00395076
0.00393648
0.00393357
0.00394318
0.00396393
0.00427006
0.00423239
0.00419143
0.00415441
0.00412761
0.00411395
0.00411254
0.00412134
0.00413805
0.00416343
0.00419698
0.00404729
0.00407326
0.00408682
0.00409369
0.00410285
0.00411927
0.00414338
0.004174
0.00420945
0.00424987
0.00429544
0.0037419
0.00382578
0.00388781
0.00393352
0.0039741
0.00401639
0.00406202
0.00411072
0.00416147
0.00421408
0.00426905
0.00339025
0.00352392
0.00362703
0.00370586
0.0037731
0.00383705
0.00390033
0.00396347
0.00402603
0.00408773
0.00414953
0.00300325
0.00317793
0.003315
0.0034217
0.00351146
0.00359356
0.00367134
0.00374598
0.00381753
0.00388572
0.00395221
0.00257769
0.00278262
0.00294578
0.0030748
0.00318291
0.00327972
0.00336901
0.00345243
0.00353047
0.00360283
0.00367204
0.00210904
0.00232945
0.00250833
0.00265249
0.00277371
0.00288102
0.00297823
0.00306727
0.003149
0.003223
0.00329253
0.00161674
0.00183044
0.00200914
0.00215716
0.00228315
0.00239442
0.0024942
0.00258429
0.00266562
0.00273812
0.00280469
0.0011342
0.00131242
0.00146869
0.00160358
0.00172135
0.00182637
0.00192058
0.00200507
0.00208041
0.00214686
0.00220606
0.000708989
0.000824966
0.000934081
0.00103396
0.00112505
0.00120862
0.00128493
0.00135402
0.00141568
0.00146962
0.00151582
0.000390947
0.000438458
0.000488566
0.000537428
0.000584634
0.00063003
0.000673223
0.00071375
0.000751066
0.000784532
0.000811902
0.000204881
0.000210331
0.000220707
0.000230737
0.000240752
0.000250611
0.00026028
0.000269694
0.000278791
0.000287534
0.000295591
7.37768e-05
7.91841e-05
8.28247e-05
8.57372e-05
8.79857e-05
8.9728e-05
9.10478e-05
9.20087e-05
9.26579e-05
9.30333e-05
9.31503e-05
0.000604212
0.000520712
0.000447533
0.000389437
0.000342714
0.000304762
0.000273431
0.000247158
0.00022483
0.000204658
0.000185765
0.000168014
0.000152438
0.0001408
0.000132552
0.00012706
0.000123682
0.000121806
0.000120789
0.000120512
0.000122523
0.000128867
0.000141272
0.000160054
0.000183155
0.000209873
0.000240135
0.000275708
0.000317601
0.000366607
0.00042348
0.000488755
0.00055899
0.000612458
0.000645523
0.00021134
0.000206435
0.000199675
0.00019227
0.000184588
0.000176908
0.000169434
0.000162345
0.000155793
0.000149589
0.000143705
0.000138302
0.000133852
0.000130875
0.000129111
0.000128209
0.000127805
0.000127568
0.000127229
0.000126654
0.000126115
0.000126566
0.000128453
0.000131926
0.000136498
0.000141873
0.000147881
0.000154678
0.0001622
0.000170288
0.000178746
0.00018735
0.000195613
0.000201724
0.000205624
0.000144329
0.000140432
0.000136345
0.000132429
0.000128835
0.000125694
0.000123077
0.000121013
0.000119493
0.000118441
0.000117845
0.000117709
0.000117965
0.000118399
0.000118838
0.000119171
0.000119343
0.000119337
0.000119161
0.000118837
0.000118353
0.000117856
0.000117432
0.000117157
0.000117077
0.000117207
0.000117574
0.000118242
0.00011929
0.0001208
0.000122842
0.000125466
0.000128658
0.000131629
0.000134103
0.000143447
0.000139111
0.000134901
0.000131182
0.00012803
0.000125486
0.000123539
0.000122149
0.00012125
0.000120748
0.000120605
0.00012079
0.000121224
0.000121722
0.000122156
0.000122454
0.000122582
0.000122534
0.000122322
0.00012197
0.000121488
0.000120991
0.00012056
0.000120264
0.000120125
0.000120137
0.000120309
0.00012068
0.000121311
0.000122275
0.000123659
0.00012557
0.000128103
0.000130759
0.000133249
0.000145424
0.000140786
0.000136541
0.000132995
0.000130144
0.00012797
0.000126419
0.000125416
0.000124867
0.000124674
0.000124789
0.000125169
0.000125726
0.000126279
0.000126727
0.000127013
0.000127116
0.000127039
0.000126799
0.000126423
0.000125935
0.000125417
0.000124957
0.000124623
0.000124434
0.000124378
0.000124458
0.000124705
0.00012517
0.000125916
0.000127025
0.000128596
0.000130745
0.000133166
0.000135667
0.000148121
0.000143343
0.00013915
0.000135763
0.000133129
0.000131207
0.00012992
0.000129169
0.000128845
0.000128846
0.00012912
0.000129623
0.000130265
0.000130866
0.000131331
0.000131615
0.000131706
0.00013161
0.000131345
0.000130943
0.000130437
0.000129886
0.000129386
0.000129013
0.000128784
0.000128684
0.000128713
0.000128897
0.000129284
0.000129934
0.000130923
0.000132341
0.000134255
0.000136441
0.000138863
0.000151895
0.000147054
0.000142872
0.000139542
0.000137013
0.000135234
0.000134109
0.000133521
0.000133348
0.000133483
0.000133872
0.000134473
0.000135191
0.000135842
0.000136331
0.000136622
0.000136706
0.000136593
0.000136304
0.000135871
0.000135337
0.00013475
0.000134208
0.000133797
0.000133534
0.000133402
0.000133399
0.00013355
0.000133902
0.000134514
0.000135467
0.000136852
0.000138688
0.000140739
0.000143058
0.000156534
0.000151663
0.000147419
0.000144058
0.000141553
0.000139845
0.00013882
0.000138343
0.000138278
0.000138516
0.000139
0.000139689
0.000140484
0.000141192
0.000141715
0.00014202
0.000142103
0.000141976
0.000141663
0.000141197
0.000140625
0.000140001
0.000139413
0.000138963
0.000138668
0.00013851
0.000138486
0.00013862
0.00013896
0.000139567
0.000140527
0.000141941
0.000143798
0.000145813
0.000148044
0.000162008
0.000157092
0.000152702
0.000149236
0.000146695
0.000145008
0.000144041
0.000143642
0.000143662
0.000143986
0.000144558
0.000145334
0.000146213
0.000146985
0.000147549
0.000147875
0.000147963
0.000147824
0.000147486
0.000146984
0.000146368
0.000145699
0.000145066
0.000144575
0.00014425
0.000144071
0.000144032
0.00014416
0.000144503
0.000145126
0.000146121
0.000147602
0.000149539
0.0001516
0.000153799
0.000168289
0.000163281
0.00015867
0.000155042
0.000152421
0.000150718
0.000149781
0.000149438
0.00014953
0.000149934
0.000150592
0.00015146
0.000152429
0.000153276
0.00015389
0.000154244
0.000154339
0.000154191
0.000153827
0.000153287
0.000152624
0.000151902
0.000151221
0.00015069
0.000150335
0.000150135
0.000150086
0.000150214
0.000150571
0.000151226
0.000152276
0.00015385
0.000155908
0.000158073
0.000160304
0.00017538
0.000170216
0.000165319
0.000161484
0.000158747
0.000157
0.000156072
0.000155773
0.000155929
0.000156411
0.000157159
0.000158126
0.000159197
0.000160128
0.0001608
0.00016119
0.000161298
0.000161141
0.000160751
0.000160171
0.000159456
0.000158678
0.000157942
0.000157369
0.000156983
0.000156765
0.000156708
0.000156841
0.000157221
0.00015792
0.000159041
0.000160729
0.000162939
0.00016525
0.000167577
0.000183304
0.000177914
0.000172675
0.000168592
0.000165708
0.000163895
0.000162962
0.000162699
0.000162918
0.00016348
0.000164324
0.000165401
0.000166585
0.000167612
0.000168353
0.000168784
0.000168909
0.000168746
0.00016833
0.000167706
0.000166937
0.000166097
0.000165303
0.000164684
0.000164267
0.00016403
0.000163967
0.00016411
0.000164519
0.000165272
0.000166479
0.000168301
0.000170687
0.00017318
0.000175655
0.000192104
0.000186417
0.000180783
0.000176414
0.000173356
0.00017146
0.00017051
0.00017028
0.000170563
0.000171211
0.00017216
0.000173359
0.000174671
0.000175806
0.000176626
0.000177108
0.000177255
0.000177089
0.000176645
0.000175976
0.000175147
0.000174242
0.000173384
0.000172715
0.000172265
0.00017201
0.000171943
0.000172099
0.000172543
0.000173359
0.000174666
0.000176639
0.000179227
0.000181932
0.000184601
0.000201839
0.000195785
0.000189705
0.000185015
0.000181757
0.000179761
0.000178788
0.000178589
0.000178941
0.000179684
0.00018075
0.000182085
0.000183541
0.0001848
0.000185712
0.000186253
0.000186428
0.00018626
0.00018579
0.000185073
0.000184181
0.000183204
0.000182278
0.000181555
0.00018107
0.000180796
0.000180726
0.000180899
0.000181384
0.000182272
0.000183693
0.000185836
0.000188651
0.000191597
0.0001945
0.000212587
0.000206095
0.00019952
0.000194471
0.000190988
0.000188879
0.000187878
0.000187712
0.00018814
0.000188988
0.000190185
0.000191676
0.000193294
0.000194694
0.000195712
0.000196323
0.000196533
0.000196368
0.000195871
0.000195103
0.000194144
0.00019309
0.000192091
0.000191311
0.000190787
0.000190494
0.000190422
0.000190615
0.000191147
0.000192118
0.000193666
0.000196
0.000199067
0.000202286
0.00020546
0.000224445
0.000217443
0.000210318
0.000204873
0.000201142
0.000198907
0.000197876
0.000197749
0.000198261
0.000199228
0.000200575
0.00020224
0.000204045
0.000205605
0.000206745
0.000207438
0.000207692
0.000207533
0.00020701
0.000206191
0.000205159
0.000204024
0.000202945
0.000202103
0.000201539
0.000201225
0.000201153
0.00020137
0.000201957
0.000203021
0.000204713
0.000207259
0.000210608
0.000214132
0.000217611
0.000237525
0.000229939
0.000222208
0.000216328
0.000212325
0.000209954
0.000208892
0.000208811
0.000209422
0.000210525
0.000212041
0.000213907
0.000215923
0.000217667
0.000218948
0.000219738
0.000220044
0.000219898
0.000219351
0.000218478
0.00021737
0.000216147
0.000214983
0.000214075
0.000213469
0.000213134
0.000213064
0.000213309
0.000213959
0.000215128
0.000216981
0.000219765
0.000223427
0.000227292
0.000231116
0.000251962
0.000243712
0.000235315
0.000228959
0.000224662
0.000222146
0.000221056
0.000221031
0.000221756
0.000223016
0.000224728
0.000226822
0.00022908
0.000231036
0.00023248
0.000233384
0.000233755
0.000233628
0.000233059
0.00023213
0.000230943
0.000229626
0.000228372
0.000227394
0.000226742
0.000226387
0.000226321
0.000226601
0.000227323
0.000228613
0.000230647
0.000233696
0.000237708
0.000241955
0.000246166
0.000267908
0.000258912
0.000249784
0.00024291
0.000238295
0.000235629
0.000234516
0.000234562
0.000235422
0.000236864
0.000238801
0.000241158
0.000243694
0.000245893
0.000247526
0.000248563
0.000249014
0.000248915
0.000248328
0.000247344
0.000246073
0.000244657
0.000243306
0.000242255
0.000241557
0.000241181
0.000241123
0.000241445
0.000242252
0.000243679
0.000245918
0.000249265
0.000253667
0.000258344
0.000262993
0.00028554
0.000275709
0.000265781
0.000258345
0.000253392
0.000250572
0.000249447
0.000249583
0.000250604
0.000252258
0.000254456
0.000257116
0.000259972
0.000262451
0.000264305
0.0002655
0.000266046
0.000265986
0.000265387
0.000264347
0.00026299
0.000261471
0.000260019
0.00025889
0.000258144
0.00025775
0.000257705
0.000258078
0.000258984
0.00026057
0.000263044
0.000266727
0.000271566
0.000276726
0.000281877
0.000305064
0.0002943
0.000283499
0.000275459
0.000270148
0.000267175
0.000266053
0.000266305
0.000267517
0.000269422
0.000271923
0.000274934
0.000278161
0.000280964
0.000283074
0.000284454
0.000285117
0.000285109
0.000284505
0.000283413
0.000281968
0.00028034
0.000278783
0.000277575
0.000276781
0.000276372
0.000276348
0.000276784
0.000277808
0.000279578
0.000282321
0.000286384
0.000291715
0.000297423
0.00030315
0.000326714
0.000314913
0.000303164
0.000294475
0.000288793
0.000285673
0.000284577
0.000284977
0.000286422
0.000288622
0.000291477
0.000294896
0.000298552
0.000301731
0.00030414
0.00030574
0.000306545
0.000306606
0.000306007
0.000304865
0.000303331
0.000301592
0.000299927
0.000298639
0.000297799
0.000297381
0.000297387
0.000297903
0.000299068
0.000301054
0.000304107
0.000308605
0.000314491
0.000320821
0.000327206
0.000350761
0.000337812
0.000325036
0.00031566
0.000309596
0.000306346
0.000305307
0.000305899
0.000307625
0.000310176
0.000313447
0.000317343
0.000321498
0.000325113
0.000327872
0.000329731
0.000330708
0.000330859
0.000330277
0.000329092
0.00032747
0.00032562
0.000323845
0.000322478
0.000321598
0.000321179
0.000321229
0.000321846
0.000323181
0.000325422
0.000328837
0.000333836
0.000340353
0.00034739
0.000354532
0.000377519
0.000363306
0.000349424
0.000339326
0.000332882
0.000329528
0.000328591
0.00032943
0.000331501
0.00033447
0.000338233
0.000342686
0.000347423
0.000351548
0.000354716
0.000356882
0.000358067
0.000358333
0.000357784
0.000356565
0.00035486
0.000352898
0.000351016
0.000349575
0.000348662
0.000348255
0.000348369
0.000349114
0.000350656
0.000353203
0.000357043
0.000362621
0.000369861
0.000377709
0.000385725
0.000407356
0.000391758
0.000376696
0.000365849
0.00035904
0.000355625
0.000354853
0.000356012
0.000358505
0.000361977
0.000366322
0.000371431
0.000376849
0.000381569
0.000385218
0.000387747
0.000389182
0.000389595
0.0003891
0.000387858
0.000386076
0.000384009
0.000382025
0.000380518
0.000379585
0.000379209
0.000379412
0.000380322
0.000382121
0.000385037
0.000389381
0.000395637
0.00040371
0.000412492
0.000421521
0.000440705
0.000423601
0.000407291
0.000395687
0.000388547
0.000385137
0.000384613
0.000386187
0.000389202
0.000393282
0.000398319
0.000404203
0.00041042
0.000415837
0.00042005
0.000423009
0.000424746
0.000425342
0.000424926
0.000423679
0.000421831
0.000419666
0.000417591
0.000416033
0.000415099
0.000414781
0.00041511
0.000416232
0.000418353
0.000421717
0.000426666
0.000433723
0.000442764
0.000452629
0.000462842
0.000478086
0.00045936
0.000441749
0.000429402
0.000421996
0.000418685
0.000418525
0.000420638
0.000424302
0.000429118
0.000434985
0.000441786
0.000448945
0.00045518
0.000460056
0.000463524
0.000465623
0.000466447
0.000466141
0.000464909
0.000463009
0.000460761
0.000458612
0.000457025
0.00045612
0.000455896
0.0004564
0.0004578
0.000460324
0.000464242
0.000469924
0.000477936
0.000488111
0.000499242
0.000510846
0.000520131
0.00049968
0.000480743
0.000467704
0.000460134
0.000457062
0.000457421
0.000460235
0.000464708
0.000470424
0.000477288
0.000485181
0.000493453
0.000500651
0.000506308
0.000510378
0.00051291
0.000514013
0.000513853
0.000512661
0.00051073
0.000508419
0.000506221
0.000504638
0.000503802
0.000503724
0.000504469
0.000506233
0.00050927
0.000513877
0.000520457
0.00052962
0.000541138
0.000553758
0.000567009
0.00056763
0.000545379
0.000525132
0.000511501