/*--------------------------------*- C++ -*----------------------------------*\
| =========                 |                                                 |
| \\      /  F ield         | OpenFOAM: The Open Source CFD Toolbox           |
|  \\    /   O peration     | Version:  2406                                  |
|   \\  /    A nd           | Website:  www.openfoam.com                      |
|    \\/     M anipulation  |                                                 |
\*---------------------------------------------------------------------------*/
FoamFile
{
    version     2.0;
    format      ascii;
    arch        "LSB;label=32;scalar=64";
    class       volScalarField;
    location    "0/fluidRegion";
    object      p;
}
// * * * * * * * * * * * * * * * * * * * * * * * * * * * * * * * * * * * * * //

dimensions      [1 -1 -2 0 0 0 0];

internalField   nonuniform List<scalar> 
8595
(
66166.7
67363.3
72530.9
82514.9
92614
103118
113968
125023
136114
147126
158003
168757
179360
189933
200333
206430
207523
209772
208715
189920
186337
185860
184315
182700
181368
180147
178945
177754
176567
175379
174185
172984
171775
170560
169340
168114
166884
165651
164418
163184
161953
160726
159506
158298
157107
155942
154815
153743
152753
151884
151191
150786
150663
151635
151059
160095
161777
66093.3
67268.5
72474
82473.3
92578.3
103090
113947
125002
136093
147105
157982
168740
179350
189922
200321
206414
207496
209735
208798
189535
186256
185812
184276
182674
181350
180134
178937
177747
176563
175376
174182
172982
171774
170560
169339
168113
166883
165651
164417
163183
161952
160724
159504
158295
157103
155936
154806
153730
152733
151855
151146
150718
150554
151483
150602
159997
161687
66096
67246
72478.6
82472.5
92553.7
103045
113886
124929
136014
147026
157910
168679
179295
189872
200272
206362
207416
209641
208759
188712
185952
185681
184199
182635
181335
180130
178938
177752
176568
175381
174188
172987
171778
170563
169342
168115
166885
165652
164418
163184
161951
160723
159502
158292
157099
155929
154796
153714
152710
151819
151091
150635
150419
151299
150121
159957
161603
66056.1
67174.6
72445.4
82437.9
92508.8
103003
113850
124893
135979
146998
157885
168653
179272
189847
200253
206347
207414
209753
208980
187911
185611
185552
184123
182592
181313
180121
178935
177752
176570
175384
174190
172989
171781
170565
169343
168117
166886
165653
164418
163183
161950
160721
159499
158287
157091
155917
154778
153688
152670
151759
151000
150497
150200
150996
149488
159765
161312
66028.6
67113.3
72417.3
82405.7
92473.8
102969
113827
124878
135966
146984
157869
168633
179254
189826
200244
206353
207458
209968
209286
187035
185147
185371
184018
182528
181281
180107
178930
177753
176574
175389
174196
172995
171785
170569
169347
168119
166888
165654
164418
163183
161949
160718
159494
158280
157080
155902
154756
153655
152620
151684
150886
150322
149924
150611
148737
159455
160852
66012.7
67079.1
72404.2
82386.6
92464
102968
113833
124885
135967
146976
157854
168611
179233
189806
200243
206382
207548
210266
209658
186118
184609
185168
183904
182458
181247
180092
178926
177754
176578
175394
174202
173000
171790
170573
169350
168122
166890
165655
164418
163182
161946
160715
159488
158271
157068
155884
154728
153614
152559
151592
150745
150109
149589
150140
147852
159017
160210
66012.6
67074.5
72417.6
82401.5
92491.4
103018
113879
124916
135978
146968
157832
168580
179204
189785
200250
206434
207683
210636
210084
185176
184023
184946
183781
182382
181210
180077
178923
177757
176584
175402
174209
173007
171797
170579
169355
168125
166892
165656
164419
163181
161944
160710
159482
158262
157053
155862
154696
153567
152488
151486
150584
149865
149203
149593
146819
158441
159361
66016.7
67095.1
72472
82463.2
92581.9
103116
113957
124961
135988
146947
157793
168531
179162
189757
200262
206506
207855
211056
210551
184223
183426
184717
183650
182301
181170
180062
178920
177761
176591
175411
174218
173016
171804
170585
169360
168130
166895
165658
164419
163180
161941
160706
159474
158250
157036
155838
154660
153513
152409
151366
150403
149590
148769
148973
145618
157712
158271
66062.1
67163.2
72553.8
82578.4
92726.5
103243
114046
125000
135977
146898
157723
168455
179098
189719
200274
206596
208050
211508
211055
183262
182868
184498
183524
182229
181138
180051
178920
177767
176601
175421
174228
173025
171812
170592
169366
168134
166898
165660
164419
163179
161939
160700
159466
158238
157018
155811
154621
153456
152323
151238
150209
149296
148303
148305
144257
156828
156894
65915.7
67150.9
72675.9
82719
92885.9
103382
114133
125018
135931
146803
157601
168329
178990
189651
200268
206686
208234
211938
211616
182226
182360
184260
183377
182151
181104
180041
178923
177777
176614
175435
174242
173037
171823
170601
169373
168139
166902
165662
164420
163178
161935
160695
159457
158224
156998
155782
154578
153392
152229
151097
149995
148972
147785
147559
142653
155730
155111
153153
155401
156963
158104
158927
159503
159879
160090
160125
160158
153718
155062
156069
156856
157440
157853
158121
158268
158284
158345
139762
141719
143246
144525
145570
146432
147148
147745
148204
148605
145336
146202
146936
147590
148138
148586
148936
149196
149349
149456
146022
146577
147052
147477
147837
148134
148366
148540
148642
148715
147540
147862
148142
148396
148610
148787
148924
149026
149085
149127
148848
149042
149212
149366
149496
149604
149687
149749
149785
149810
150178
150293
150395
150487
150565
150629
150679
150716
150738
150753
151496
151564
151624
151679
151725
151764
151793
151815
151828
151837
152811
152850
152885
152917
152944
152966
152984
152997
153004
153009
154121
154143
154162
154181
154196
154209
154219
154226
154230
154233
155426
155438
155449
155458
155467
155474
155479
155483
155485
155488
156727
156733
156738
156744
156748
156752
156754
156757
156757
156759
158025
158027
158030
158032
158034
158036
158037
158039
158039
158040
159319
159320
159321
159322
159323
159324
159325
159325
159325
159326
160611
160612
160613
160613
160614
160614
160614
160615
160614
160615
161902
161903
161904
161905
161906
161906
161906
161906
161906
161907
163193
163195
163197
163198
163199
163200
163200
163200
163200
163201
164485
164489
164491
164493
164494
164496
164496
164497
164496
164498
165780
165784
165788
165791
165793
165795
165796
165797
165797
165798
167077
167084
167088
167093
167096
167099
167101
167102
167102
167104
168378
168388
168394
168401
168405
168409
168412
168414
168414
168416
169685
169698
169707
169716
169722
169727
169731
169733
169734
169737
171000
171017
171029
171041
171049
171056
171060
171064
171065
171068
172324
172346
172362
172377
172388
172397
172403
172408
172410
172414
173658
173688
173708
173728
173743
173755
173763
173770
173773
173777
175007
175045
175072
175098
175117
175133
175145
175153
175158
175162
176372
176423
176458
176491
176517
176537
176553
176564
176572
176577
177757
177824
177870
177914
177947
177974
177996
178010
178021
178027
179166
179254
179315
179373
179418
179454
179482
179501
179518
179524
180604
180721
180803
180878
180939
180987
181025
181052
181075
181082
182077
182232
182342
182442
182523
182588
182640
182676
182710
182719
183580
183786
183935
184069
184179
184267
184339
184389
184436
184447
185110
185387
185593
185774
185927
186051
186151
186223
186292
186308
186756
187136
187420
187664
187872
188044
188187
188294
188400
188425
188547
189041
189417
189735
190009
190237
190427
190574
190722
190755
189194
189828
190400
190912
191363
191741
192045
192269
192476
192508
188766
189963
190911
191708
192423
193079
193688
194256
194825
195053
206397
206048
205923
205862
205846
205879
205971
206155
206513
206654
205642
205436
205353
205340
205371
205448
205579
205790
206152
206358
203372
203243
203213
203238
203297
203386
203508
203669
203893
203984
201846
201766
201767
201808
201874
201959
202054
202162
202296
202353
195612
195564
195572
195609
195657
195713
195779
195848
195924
195951
185158
185130
185143
185172
185207
185248
185290
185329
185368
185381
174756
174741
174752
174772
174797
174825
174853
174877
174896
174906
164489
164482
164490
164504
164521
164540
164556
164567
164571
164578
154286
154283
154289
154298
154310
154321
154329
154334
154329
154334
144137
144134
144136
144141
144147
144152
144155
144155
144145
144150
134002
133998
133998
134000
134003
134005
134005
134003
133991
133996
123876
123871
123871
123872
123873
123873
123872
123870
123857
123863
113752
113747
113746
113746
113747
113747
113745
113743
113731
113737
103630
103626
103625
103626
103626
103627
103625
103624
103613
103619
93504.4
93500.5
93499.9
93500.5
93501.3
93501.8
93501.1
93501.2
93491.2
93498
83383.1
83380.4
83380.4
83381.8
83383.6
83385.4
83385.9
83387.7
83378.9
83386.7
73252.5
73249.5
73248.2
73249
73250.3
73252.1
73252.6
73255.5
73247.7
73256.1
67594
67594.6
67595
67599.1
67604.8
67611.9
67617.3
67625.6
67619.8
67632.3
66412.5
66410.2
66408.9
66408.7
66409
66410.7
66410.5
66415.1
66409.4
66417.2
50448.7
52358.7
53668.3
54402.7
54841.2
55044.8
55049.1
54915.3
54456.7
52166.2
46863.8
50360.7
52250.8
53549.5
54281.6
54718.4
54920
54922.8
54788.1
54316
52114.6
48218.2
50255.5
52117.8
53402
54135.8
54576
54781.7
54791.6
54666.7
54190
52169
49505.9
50270.2
52026.8
53256.6
53977.6
54413.4
54620.2
54639.4
54529.2
54068.8
52354.6
50741.9
50411.7
51999.5
53141.5
53835.3
54260.3
54466.8
54496.9
54401.3
53974.4
52601.9
51718.5
50624
52028.9
53068.9
53724.2
54132.1
54335.9
54376.6
54296.3
53915.6
52845.7
52424.1
50881.2
52104.5
53035.9
53644.6
54030
54228.5
54278.5
54214.6
53889.6
53077.5
52956.8
51164.3
52216.3
53038
53594.4
53952.9
54143.4
54200.8
54154
53887.9
53290.8
53371.6
51459.1
52355.1
53069.9
53570.7
53899.2
54079.2
54142.1
54112.3
53904.2
53483.1
53700.6
51758.6
52513.9
53126.7
53570.1
53866.1
54033.5
54099.7
54086.4
53933.1
53656.2
53968
52075.8
52698.5
53210.2
53592.7
53852.8
54004.7
54072.5
54075.2
53974.6
53820.6
54199.6
52432.5
52922.9
53329.4
53644.4
53862.8
53995.2
54061.8
54080.3
54031.6
53985.5
54411.4
52847.7
53203.1
53497.5
53735.4
53903.9
54010.6
54071.9
54104.6
54106.2
54153.7
54607.5
53295.6
53525.1
53708.3
53864
53976.4
54051.2
54102
54144.9
54188.7
54307.5
54769
53721.1
53845
53928.9
54007
54063.4
54103.7
54139.5
54186.3
54258.9
54422.9
54876
54110.9
54146.7
54143.9
54150.8
54153.6
54158.4
54176
54220.7
54309.6
54498.1
54932.9
54467.1
54427.6
54347.3
54288.3
54239.3
54208
54204.3
54241.7
54336.9
54535.7
54946.7
54791.4
54685.2
54534.3
54413.4
54314.2
54246.1
54218.7
54244.3
54338
54536.9
54921.4
55084.9
54917.9
54700.8
54521.2
54373.1
54267.9
54214.7
54224.8
54311.1
54503.2
54860.1
55348.9
55124.8
54844
54607.7
54411.8
54269.3
54188.9
54180.7
54255.4
54436
54765.3
55585.4
55305.5
54961.8
54670.1
54427.1
54247.3
54138.9
54110.5
54170.6
54336.7
54639.1
55797
55461
55053.1
54706.3
54416.6
54199.8
54063
54013.3
54056.9
54206.9
54483.6
55983.7
55591.1
55116.4
54715.1
54379.4
54126.4
53961.6
53890.2
53916.3
54049.4
54302.5
56127.2
55685.3
55144.8
54693.6
54316.2
54030.7
53840.7
53749.8
53759.6
53876.7
54110
56223.3
55741.4
55141.4
54648.3
54236.3
53924.5
53714.4
53607.7
53604.3
53708.2
53926
56287.6
55770.1
55117.1
54588.5
54147.7
53814.7
53588.4
53469.2
53455.1
53548
53753.2
56333.6
55779.8
55078.2
54517.5
54051.9
53700.8
53461
53331.5
53308.7
53392
53585.8
56367.9
55773.3
55025.1
54433.8
53945.5
53578.3
53326.8
53188.3
53158
53232.5
53415.3
56388.8
55749.2
54954.9
54333.9
53824.8
53443.1
53181.2
53035.1
52998.3
53064.4
53235.9
56392.5
55704.1
54865
54215.9
53688.2
53294
53023.4
52871.2
52829.2
52887.2
53046.9
56374.5
55634.6
54753.2
54078.4
53534.7
53130.2
52852.8
52696
52650.5
52700.9
52847.4
56330.8
55538.1
54618.2
53920.9
53364.2
52951.8
52669.6
52509.8
52462.4
52505.9
52636.6
56255.4
55413.4
54461.4
53745.8
53178.9
52760.2
52474.4
52312.7
52264.4
52301.4
52411.1
56108.3
55236.2
54268.1
53544.5
52973.6
52553.2
52266.8
52105.4
52058.4
52091.4
52174.2
55971.9
55086.5
54111
53383.2
52809.2
52386.5
52098.4
51935.5
51887.8
51918
51970.7
152563
151669
151726
151804
151808
151844
151933
152052
152185
152319
152450
152577
152693
152795
152871
152906
152912
152900
152870
152844
152772
152621
152433
152203
151945
151651
151311
150919
150484
150022
149580
149209
148825
148461
149054
154584
153775
153179
152698
152291
151949
151658
151402
151167
150931
150676
150394
150098
149836
149615
149419
149253
149127
149046
149029
149054
149121
149247
149395
149533
149653
149757
149861
149977
150126
150347
150686
151103
151568
152235
141358
140658
139878
139114
138412
137774
137200
136692
136251
135862
135499
135146
134806
134512
134297
134145
134045
133988
133960
133949
133911
133857
133837
133866
133951
134088
134288
134563
134921
135366
135905
136547
137165
137664
138185
147051
146698
146273
145849
145437
145039
144657
144293
143947
143607
143256
142884
142504
142166
141889
141667
141497
141378
141309
141291
141321
141405
141551
141738
141941
142154
142383
142638
142921
143233
143572
143940
144294
144579
144812
147424
147195
146912
146629
146353
146085
145827
145580
145346
145116
144879
144626
144360
144116
143913
143748
143622
143535
143485
143473
143495
143554
143652
143775
143904
144039
144184
144345
144523
144717
144926
145149
145359
145528
145670
148750
148606
148424
148241
148059
147881
147707
147537
147373
147210
147038
146851
146652
146465
146306
146174
146071
145997
145952
145936
145950
145992
146063
146149
146239
146331
146428
146532
146646
146768
146896
147032
147158
147259
147342
149848
149753
149632
149510
149389
149269
149151
149036
148925
148813
148694
148564
148424
148291
148175
148078
148001
147943
147905
147887
147890
147913
147954
148006
148060
148116
148175
148239
148308
148381
148459
148541
148617
148678
148728
151001
150938
150857
150775
150694
150613
150533
150455
150378
150301
150218
150127
150028
149933
149849
149777
149719
149673
149641
149623
149619
149628
149650
149679
149711
149743
149778
149816
149857
149901
149947
149995
150041
150077
150107
152165
152122
152068
152013
151957
151902
151848
151794
151741
151688
151631
151567
151498
151430
151369
151317
151273
151237
151211
151193
151185
151186
151195
151210
151227
151245
151264
151285
151309
151334
151361
151389
151416
151437
151454
153349
153320
153283
153246
153208
153170
153133
153096
153059
153022
152983
152938
152889
152840
152797
152758
152725
152697
152675
152660
152650
152646
152648
152654
152662
152671
152681
152692
152705
152719
152734
152750
152765
152777
152787
154549
154529
154504
154478
154452
154426
154401
154375
154350
154324
154296
154265
154230
154195
154164
154135
154110
154089
154071
154058
154048
154042
154040
154041
154044
154048
154052
154058
154064
154071
154079
154088
154096
154102
154108
155762
155748
155731
155713
155695
155678
155660
155642
155624
155606
155587
155565
155540
155515
155492
155471
155453
155436
155422
155411
155402
155396
155392
155391
155391
155392
155393
155395
155398
155401
155405
155409
155413
155417
155419
156984
156975
156963
156951
156939
156927
156914
156902
156890
156877
156864
156848
156831
156813
156796
156781
156767
156755
156744
156735
156728
156722
156718
156715
156714
156714
156714
156714
156715
156716
156717
156719
156721
156723
156724
158215
158209
158201
158192
158184
158176
158167
158159
158150
158142
158132
158121
158109
158097
158085
158075
158065
158056
158048
158041
158035
158030
158026
158024
158022
158021
158021
158020
158020
158020
158021
158021
158022
158023
158023
159451
159447
159441
159436
159430
159425
159419
159414
159408
159402
159396
159389
159381
159372
159365
159357
159350
159344
159339
159334
159330
159326
159323
159321
159320
159319
159318
159318
159318
159318
159317
159318
159318
159318
159318
160691
160688
160685
160681
160678
160674
160671
160668
160664
160661
160657
160652
160647
160642
160637
160633
160629
160625
160622
160619
160617
160615
160613
160612
160611
160611
160610
160610
160610
160610
160610
160610
160610
160611
160611
161933
161932
161930
161928
161926
161924
161923
161921
161919
161917
161915
161913
161911
161909
161906
161905
161903
161901
161900
161899
161899
161898
161898
161898
161898
161898
161899
161899
161899
161900
161900
161900
161901
161901
161901
163177
163176
163176
163175
163175
163174
163174
163174
163173
163173
163173
163173
163172
163173
163173
163173
163174
163174
163175
163176
163178
163179
163180
163182
163183
163184
163185
163186
163187
163188
163189
163190
163191
163191
163192
164421
164421
164422
164422
164423
164424
164425
164425
164426
164427
164429
164430
164432
164435
164437
164440
164443
164446
164449
164452
164455
164458
164461
164464
164466
164468
164470
164472
164474
164476
164478
164479
164481
164482
164483
165664
165665
165666
165668
165670
165672
165674
165676
165678
165680
165683
165687
165691
165695
165700
165705
165710
165715
165720
165726
165731
165737
165742
165746
165750
165753
165756
165759
165762
165765
165768
165770
165773
165775
165776
166905
166907
166909
166912
166915
166918
166921
166924
166928
166932
166936
166941
166947
166954
166961
166969
166976
166984
166992
166999
167007
167015
167023
167029
167034
167039
167044
167048
167052
167056
167060
167064
167067
167070
167072
168143
168146
168150
168153
168157
168162
168166
168170
168175
168180
168186
168193
168202
168211
168221
168231
168241
168252
168262
168273
168284
168294
168304
168313
168321
168327
168333
168339
168344
168350
168355
168361
168365
168369
168371
169378
169381
169386
169391
169396
169401
169407
169413
169419
169426
169433
169442
169453
169466
169478
169492
169505
169519
169532
169546
169560
169574
169587
169599
169609
169617
169625
169633
169640
169648
169655
169662
169668
169673
169676
170607
170611
170617
170623
170630
170636
170644
170651
170659
170667
170676
170688
170702
170717
170733
170750
170767
170784
170801
170819
170837
170855
170872
170887
170900
170911
170921
170931
170941
170951
170960
170969
170977
170983
170988
171830
171835
171842
171850
171857
171865
171874
171883
171892
171902
171914
171928
171945
171964
171984
172004
172025
172047
172069
172092
172114
172137
172159
172178
172194
172209
172222
172235
172247
172260
172272
172283
172294
172302
172308
173046
173051
173059
173068
173077
173086
173097
173107
173118
173130
173144
173161
173181
173204
173229
173254
173280
173307
173334
173362
173391
173419
173447
173472
173492
173510
173527
173543
173560
173576
173591
173606
173620
173630
173638
174251
174258
174267
174276
174287
174298
174309
174321
174334
174348
174364
174384
174409
174436
174466
174496
174528
174561
174595
174630
174665
174701
174736
174767
174793
174816
174838
174859
174880
174900
174920
174940
174957
174970
174980
175445
175452
175461
175472
175483
175495
175508
175522
175537
175553
175572
175595
175623
175656
175691
175728
175767
175807
175849
175892
175936
175981
176025
176064
176097
176127
176154
176181
176208
176234
176260
176285
176308
176325
176338
176624
176631
176641
176651
176663
176676
176690
176705
176722
176739
176760
176787
176820
176858
176900
176944
176991
177040
177091
177144
177199
177256
177312
177361
177403
177441
177475
177510
177544
177578
177611
177644
177673
177695
177713
177785
177791
177800
177810
177822
177835
177849
177865
177882
177902
177925
177954
177992
178037
178085
178137
178194
178253
178316
178382
178451
178522
178592
178655
178709
178756
178801
178845
178889
178933
178976
179019
179057
179086
179108
178926
178930
178937
178945
178954
178966
178979
178995
179012
179032
179057
179089
179131
179182
179238
179300
179368
179440
179517
179599
179684
179773
179862
179942
180011
180072
180129
180186
180243
180300
180356
180412
180461
180499
180528
180036
180035
180037
180040
180045
180053
180063
180077
180092
180112
180137
180170
180216
180274
180339
180412
180493
180582
180677
180778
180886
180998
181111
181214
181302
181380
181455
181529
181603
181676
181749
181823
181888
181938
181976
181085
181076
181068
181062
181059
181059
181063
181071
181083
181098
181121
181154
181202
181266
181341
181429
181527
181636
181755
181883
182020
182164
182311
182445
182560
182663
182760
182858
182955
183052
183148
183245
183331
183396
183448
182104
182079
182052
182028
182010
181997
181990
181988
181992
182002
182020
182052
182102
182173
182259
182361
182477
182608
182753
182911
183080
183262
183448
183619
183768
183901
184028
184155
184283
184410
184537
184666
184781
184867
184935
183282
183231
183174
183123
183081
183047
183021
183005
182999
183003
183019
183053
183110
183187
183281
183395
183527
183678
183845
184029
184227
184439
184655
184853
185026
185184
185337
185494
185654
185816
185980
186148
186300
186417
186511
184127
184048
183955
183875
183805
183744
183694
183653
183625
183609
183607
183625
183675
183762
183880
184031
184211
184421
184657
184918
185200
185501
185807
186083
186318
186527
186728
186932
187139
187347
187556
187768
187960
188110
188234
182137
181985
181783
181603
181455
181337
181248
181178
181121
181068
181023
181005
181054
181196
181408
181676
181990
182346
182742
183177
183655
184184
184757
185308
185786
186200
186576
186936
187289
187633
187971
188305
188602
188809
188935
181444
181075
180717
180406
180149
179941
179783
179680
179641
179683
179810
180011
180249
180456
180655
180872
181119
181398
181709
182049
182409
182771
183092
183352
183609
183897
184231
184609
185022
185463
185931
186419
186863
187246
187646
212197
212420
212604
212759
212872
212948
213001
213025
212997
212893
212708
212447
212147
211870
211593
211305
211002
210684
210357
210030
209715
209431
209222
209094
208974
208834
208663
208474
208280
208084
207886
207692
207545
207402
207173
212188
212349
212518
212656
212759
212830
212871
212881
212861
212814
212734
212606
212409
212140
211822
211467
211078
210661
210221
209763
209293
208814
208341
207918
207570
207282
207032
206799
206581
206380
206197
206031
205897
205812
205762
208317
208379
208446
208495
208525
208538
208533
208509
208471
208419
208347
208243
208085
207870
207621
207349
207056
206746
206425
206095
205762
205428
205106
204828
204606
204427
204269
204123
203987
203860
203745
203641
203559
203507
203470
206748
206781
206813
206835
206845
206843
206826
206794
206746
206679
206588
206461
206288
206076
205840
205581
205303
205008
204699
204381
204059
203737
203430
203170
202962
202791
202640
202502
202375
202261
202160
202072
202007
201967
201936
200251
200242
200225
200201
200168
200128
200079
200021
199954
199877
199781
199655
199488
199285
199062
198821
198564
198294
198012
197723
197431
197140
196865
196634
196454
196310
196186
196075
195975
195888
195812
195748
195701
195674
195656
189597
189562
189514
189460
189401
189336
189265
189189
189106
189014
188904
188766
188590
188386
188169
187939
187697
187445
187186
186922
186658
186398
186157
185960
185809
185691
185590
185502
185424
185357
185301
185254
185221
185203
185190
178907
178855
178785
178710
178632
178551
178465
178376
178284
178185
178070
177930
177755
177558
177351
177136
176912
176682
176447
176210
175975
175747
175538
175370
175245
175149
175069
175000
174941
174891
174849
174816
174793
174780
174772
168234
168174
168094
168011
167926
167838
167748
167655
167561
167461
167348
167211
167043
166858
166669
166474
166273
166069
165863
165657
165456
165263
165089
164952
164853
164777
164716
164664
164620
164584
164554
164531
164515
164506
164500
157510
157453
157376
157296
157214
157131
157046
156959
156872
156780
156676
156552
156403
156239
156072
155903
155730
155557
155384
155213
155047
154890
154749
154640
154561
154502
154455
154415
154382
154355
154333
154316
154305
154298
154293
146733
146687
146624
146559
146493
146425
146354
146283
146210
146134
146048
145946
145822
145686
145548
145409
145269
145129
144991
144855
144725
144603
144495
144412
144352
144307
144271
144241
144215
144194
144177
144164
144155
144149
144145
135896
135872
135836
135797
135756
135712
135666
135617
135567
135514
135453
135378
135287
135186
135083
134978
134871
134765
134659
134557
134459
134368
134289
134227
134182
134148
134120
134096
134075
134058
134043
134030
134021
134016
134011
125032
125037
125037
125034
125026
125013
124997
124977
124954
124928
124896
124854
124800
124736
124668
124597
124524
124450
124375
124303
124233
124168
124110
124064
124030
124003
123981
123962
123944
123929
123916
123904
123896
123890
123886
114202
114240
114280
114315
114343
114365
114381
114392
114398
114399
114397
114388
114370
114341
114307
114267
114223
114176
114128
114079
114032
113987
113945
113912
113885
113865
113847
113831
113816
113803
113791
113780
113771
113766
113761
103498
103566
103643
103712
103773
103825
103869
103906
103937
103963
103986
104005
104016
104017
104009
103993
103971
103945
103916
103885
103853
103821
103792
103767
103746
103730
103716
103702
103690
103679
103668
103658
103650
103644
103640
93031.6
93117.5
93214.9
93304.6
93384.3
93454.6
93516.3
93570
93616.5
93657.9
93696.3
93731.9
93761.6
93780.3
93788
93786.5
93777.5
93762.7
93743.4
93721.1
93697.2
93672.5
93648.2
93627.3
93610.2
93595.8
93583.2
93571.4
93560.5
93550.3
93540.6
93531.3
93523.4
93518
93513.6
82871.9
82956.2
83050.8
83139.2
83219.3
83291.3
83355.7
83412.8
83462.8
83507.8
83550
83589.7
83623.7
83646.3
83656.8
83657.2
83649.4
83635
83615.7
83593.1
83568.5
83543.1
83518.3
83497.2
83480.3
83466.4
83454.2
83443.1
83432.9
83423.8
83415.4
83407.6
83400.8
83396
83391.8
72874.2
72964.5
73060.6
73148.6
73227.9
73299.2
73362.7
73418.5
73466.8
73509.3
73548
73582.6
73609.3
73622.9
73623.3
73612.7
73593.3
73567.1
73535.9
73501.7
73466.2
73430.8
73397.7
73370.8
73350.2
73333.9
73320.3
73308.3
73297.8
73288.7
73281
73274.3
73268.6
73264.7
73260.9
67432.7
67534.7
67651.6
67757.8
67852
67934.6
68005.3
68064.4
68112.3
68151
68182.1
68204.1
68212.4
68203.3
68178.9
68142.2
68095.9
68042.6
67984.8
67925.2
67865.8
67808.6
67757
67716.7
67687.4
67665.6
67648.8
67635.4
67625.2
67617.8
67613
67609.9
67607.1
67605.5
67602.2
66511.6
66709.1
66908
67065.1
67187.4
67283.6
67357.5
67412.3
67450.6
67475.3
67486.6
67481.1
67453
67402.1
67334.8
67254.9
67165.9
67070.9
66973.1
66875.4
66780.6
66691.2
66612.2
66552.2
66509.9
66479.7
66457.6
66441.6
66431.4
66426.1
66424.8
66424.8
66423.3
66422.3
66415.1
156865
156680
156438
156184
155920
155646
155363
155068
154763
154435
154056
153596
153028
152382
151698
150977
150223
149440
148629
147792
146932
146052
145188
144423
143781
143220
142702
142201
141718
141259
140832
140448
140160
139990
139852
157424
157239
156990
156731
156462
156184
155895
155595
155283
154947
154559
154084
153496
152825
152113
151362
150579
149769
148934
148076
147197
146300
145418
144636
143977
143403
142878
142376
141900
141456
141051
140692
140416
140246
140112
158092
157905
157648
157383
157107
156822
156526
156219
155898
155552
155151
154660
154048
153349
152605
151822
151007
150166
149301
148416
147512
146596
145703
144917
144263
143698
143187
142705
142254
141839
141465
141135
140876
140706
140571
158855
158665
158399
158126
157844
157551
157248
156931
156602
156244
155829
155318
154681
153950
153171
152350
151496
150615
149712
148787
147846
146893
145965
145154
144482
143905
143385
142897
142441
142022
141644
141306
141038
140858
140719
159715
159523
159245
158963
158673
158372
158060
157734
157393
157023
156591
156059
155392
154625
153805
152939
152038
151109
150156
149182
148189
147183
146204
145349
144642
144037
143494
142985
142511
142077
141687
141338
141065
140871
140728
160670
160474
160182
159891
159591
159281
158958
158621
158268
157883
157433
156875
156176
155368
154502
153585
152630
151643
150630
149592
148534
147460
146411
145493
144733
144083
143499
142952
142445
141982
141571
141205
140926
140722
140578
161717
161515
161207
160902
160590
160268
159933
159583
159216
158814
158344
157759
157023
156171
155254
154280
153262
152208
151125
150014
148877
147717
146579
145578
144747
144034
143391
142789
142231
141724
141274
140879
140583
140369
140228
162829
162620
162292
161972
161646
161309
160959
160594
160210
159790
159296
158681
157906
157009
156040
155006
153921
152795
151634
150437
149207
147943
146693
145585
144659
143862
143141
142466
141840
141273
140775
140340
140015
139783
139645
163946
163729
163380
163042
162700
162346
161978
161595
161194
160754
160237
159594
158787
157854
156841
155754
154605
153406
152161
150870
149530
148135
146734
145470
144396
143457
142597
141783
141025
140343
139756
139258
138903
138665
138542
165251
165006
164589
164189
163796
163399
162996
162585
162162
161707
161179
160526
159710
158761
157721
156586
155369
154088
152752
151361
149903
148362
146775
145290
143972
142766
141604
140438
139280
138160
137110
136145
135422
134990
134800
167146
166718
166128
165596
165105
164636
164180
163731
163279
162797
162242
161565
160732
159768
158699
157507
156205
154832
153410
151934
150384
148732
147003
145331
143781
142289
140770
139147
137404
135541
133541
131331
129111
127154
125473
58936.8
57383.3
55875.1
54461.8
53142.4
51908.8
50749.4
49654
48613.4
47623.7
46711.9
45925.3
45045.8
43200.6
41042.8
59007.4
57488.7
56014.2
54632.4
53342.1
52136.4
51004.3
49936.6
48925
47965.8
47086.3
46333.3
45488.8
43833.8
42805
59171.3
57706.4
56281.9
54944.4
53693.8
52524
51425.7
50390.8
49411.9
48486.4
47642.1
46919.9
46105.2
44699.7
44460.2
59387
57992.2
56631.4
55348.5
54145.3
53017.6
51958.2
50960.7
50019.5
49134.2
48333.4
47649.5
46892.7
45815.4
46070
59639.6
58323.5
57033.7
55810.9
54658.9
53575.9
52556.7
51596.9
50692.6
49845.3
49082.8
48427.9
47731.4
46939
47395.6
59888
58647.3
57425.7
56260.7
55157.8
54117.2
53135.7
52210.6
51339.9
50527
49797.6
49166.9
48526.1
47933.5
48424.8
60141.2
58971.4
57814.6
56704.7
55648.4
54647.6
53700.9
52807.5
51966.7
51183.8
50482
49871.5
49278.7
48818.5
49266.7
60398.9
59295.5
58199.4
57141.3
56128.6
55164.6
54249.9
53385.1
52571
51814.1
51135.2
50541.8
49987.5
49610.1
49981.8
60660.2
59618.3
58578.7
57568.4
56595.8
55665.5
54779.7
53940.4
53150
52415.7
51755.9
51176.6
50651.7
50322.2
50605.9
60926
59941.4
58953.8
57987.5
57051.5
56151.7
55291.9
54475.4
53705.8
52991.1
52347.6
51780
51276.7
50971.6
51166
61211.2
60282.4
59345.2
58421
57519.8
56648.6