/*--------------------------------*- C++ -*----------------------------------*\
| =========                 |                                                 |
| \\      /  F ield         | OpenFOAM: The Open Source CFD Toolbox           |
|  \\    /   O peration     | Version:  2406                                  |
|   \\  /    A nd           | Website:  www.openfoam.com                      |
|    \\/     M anipulation  |                                                 |
\*---------------------------------------------------------------------------*/
FoamFile
{
    version     2.0;
    format      ascii;
    arch        "LSB;label=32;scalar=64";
    class       volScalarField;
    location    "0/fluidRegion";
    object      p_rgh;
}
// * * * * * * * * * * * * * * * * * * * * * * * * * * * * * * * * * * * * * //

dimensions      [1 -1 -2 0 0 0 0];

internalField   nonuniform List<scalar> 
8595
(
100000
99989.2
103949
112726
121618
130914
140557
150405
160288
170093
179762
189309
198704
208070
217262
222152
222037
223080
220815
200813
196023
194338
191586
188763
186223
183795
181386
178987
176593
174197
171796
169387
166972
164549
162121
159688
157251
154811
152370
149929
147490
145055
142628
140213
137815
135443
133108
130828
128631
126555
124654
123041
121711
121476
119693
127522
127996
99926.6
99894.4
103893
112684
121582
130887
140536
150384
160267
170072
179741
189292
198694
208059
217251
222137
222011
223043
220898
200427
195941
194290
191546
188737
186206
183783
181377
178981
176589
174194
171794
169386
166971
164549
162120
159687
157250
154810
152369
149928
147489
145054
142626
140210
137811
135437
133099
130815
128611
126525
124609
122973
121602
121324
119235
127423
127906
99929.4
99871.9
103897
112684
121557
130841
140475
150310
160188
169993
179670
189230
198639
208009
217201
222084
221931
222948
220859
199604
195638
194158
191469
188698
186190
183778
181379
178985
176594
174200
171799
169390
166975
164552
162123
159690
157252
154811
152370
149928
147489
145053
142625
140207
137806
135430
133088
130800
128588
126490
124555
122890
121468
121140
118755
127383
127822
99889.5
99800.6
103864
112649
121512
130799
140439
150275
160153
169964
179644
189205
198617
207984
217183
222069
221928
223060
221080
198803
195296
194030
191393
188655
186169
183769
181375
178985
176596
174202
171801
169393
166977
164554
162125
159691
157253
154812
152370
149927
147487
145051
142621
140202
137798
135418
133071
130773
128548
126430
124463
122752
121248
120837
118122
127191
127531
99862
99739.3
103836
112617
121478
130766
140416
150260
160140
169950
179629
189185
198598
207963
217174
222076
221973
223275
221386
197928
194832
193849
191288
188591
186137
183755
181371
178986
176600
174207
171807
169398
166982
164558
162128
159694
157255
154813
152370
149927
147486
145048
142617
140195
137788
135403
133048
130740
128498
126355
124349
122578
120972
120452
117371
126881
127071
99846
99705
103823
112598
121468
130764
140422
150266
160141
169943
179613
189163
198577
207943
217173
222104
222063
223574
221758
197011
194295
193646
191175
188521
186102
183741
181367
178988
176604
174213
171813
169404
166987
164562
162132
159696
157257
154814
152370
149926
147484
145044
142611
140186
137775
135384
133021
130699
128437
126262
124208
122365
120637
119981
116486
126444
126429
99846
99700.4
103836
112613
121495
130814
140468
150298
160152
169934
179591
189131
198548
207922
217180
222156
222198
223943
222184
196068
193709
193424
191051
188445
186065
183726
181363
178990
176610
174220
171820
169411
166993
164568
162136
159700
157259
154816
152371
149925
147481
145040
142604
140176
137761
135362
132989
130652
128366
126156
124047
122120
120251
119434
115452
125867
125580
99850
99721
103891
112674
121586
130912
140546
150342
160162
169914
179552
189083
198506
207894
217192
222229
222369
224364
222651
195116
193111
193194
190920
188364
186026
183710
181360
178994
176617
174229
171829
169419
167001
164574
162141
159704
157262
154817
152371
149924
147479
145035
142597
140165
137744
135338
132953
130598
128287
126037
123866
121845
119817
118814
114251
125138
124490
99895.5
99789.2
103972
112789
121730
131039
140635
150381
160151
169865
179482
189007
198442
207856
217204
222318
222565
224815
223155
194155
192554
192976
190794
188292
185993
183699
181361
179001
176627
174240
171839
169429
167009
164581
162147
159708
157265
154819
152371
149923
147476
145030
142589
140153
137726
135311
132914
130541
128201
125909
123672
121552
119352
118146
112891
124254
123113
99749
99776.8
104094
112930
121890
131178
140722
150399
160105
169770
179360
188880
198335
207788
217198
222408
222749
225245
223716
193119
192046
192738
190648
188214
185960
183689
181364
179011
176640
174253
171853
169441
167019
164590
162154
159713
157269
154821
152372
149922
147472
145025
142580
140139
137706
135282
132871
130478
128107
125768
123458
121227
118834
117399
111286
123156
121329
119371
121620
123181
124323
125146
125721
126098
126309
126343
126377
121144
122488
123495
124282
124866
125279
125547
125694
125710
125772
108395
110352
111880
113158
114203
115066
115782
116378
116838
117238
115177
116043
116777
117431
117979
118427
118777
119037
119190
119297
117070
117625
118100
118526
118886
119183
119415
119588
119691
119763
119796
120118
120398
120651
120866
121043
121180
121282
121341
121383
122311
122505
122675
122829
122959
123067
123150
123212
123248
123273
124848
124963
125065
125157
125235
125300
125350
125387
125408
125424
127374
127442
127502
127557
127603
127641
127671
127693
127706
127715
129896
129935
129970
130002
130029
130052
130069
130082
130089
130095
132414
132435
132455
132473
132489
132502
132511
132519
132523
132526
134926
134938
134949
134959
134967
134974
134979
134984
134986
134988
137435
137441
137446
137451
137455
137459
137462
137464
137465
137466
139939
139942
139945
139947
139949
139951
139952
139954
139954
139955
142441
142442
142444
142445
142446
142447
142447
142448
142447
142448
144941
144942
144942
144943
144944
144944
144944
144945
144944
144945
147439
147441
147441
147442
147443
147443
147443
147444
147443
147444
149938
149940
149941
149943
149943
149944
149944
149945
149944
149945
152437
152441
152443
152445
152446
152448
152448
152449
152448
152450
154939
154944
154947
154950
154952
154954
154955
154956
154956
154958
157443
157450
157455
157460
157463
157466
157467
157469
157469
157470
159952
159962
159969
159975
159980
159983
159986
159988
159988
159990
162467
162480
162489
162498
162504
162509
162512
162515
162516
162518
164989
165006
165018
165030
165038
165045
165049
165053
165054
165057
167520
167542
167558
167573
167584
167593
167600
167605
167607
167610
170062
170092
170112
170132
170147
170158
170167
170173
170177
170181
172618
172657
172683
172709
172729
172744
172756
172764
172769
172774
175191
175241
175276
175310
175335
175356
175372
175382
175390
175395
177783
177850
177896
177940
177973
178000
178022
178036
178047
178053
180400
180487
180549
180606
180651
180687
180716
180735
180751
180758
183045
183162
183243
183319
183379
183428
183466
183492
183516
183523
185725
185880
185990
186090
186171
186236
186289
186325
186358
186367
188435
188642
188791
188924
189034
189123
189194
189244
189292
189303
191173
191450
191656
191837
191990
192114
192214
192286
192355
192371
194026
194406
194690
194935
195143
195315
195457
195565
195671
195695
197025
197519
197895
198213
198486
198715
198905
199052
199200
199233
198880
199513
200086
200597
201048
201426
201730
201954
202161
202193
199659
200855
201803
202601
203315
203971
204581
205148
205718
205946
218497
218148
218023
217962
217946
217979
218071
218255
218613
218754
218950
218743
218661
218648
218679
218756
218886
219097
219460
219665
217887
217758
217728
217753
217812
217901
218023
218184
218408
218499
217568
217488
217490
217530
217596
217682
217776
217884
218018
218075
212542
212493
212502
212538
212587
212643
212709
212778
212854
212881
203295
203267
203281
203309
203344
203385
203427
203466
203505
203518
194101
194086
194096
194116
194141
194170
194198
194221
194241
194250
185041
185034
185042
185056
185073
185091
185107
185119
185123
185130
176045
176042
176048
176058
176069
176080
176088
176093
176088
176093
167104
167101
167103
167108
167114
167119
167121
167121
167111
167116
158176
158172
158172
158174
158177
158179
158179
158177
158165
158170
149258
149253
149252
149253
149255
149255
149254
149251
149239
149244
140341
140336
140335
140335
140336
140336
140334
140332
140320
140326
131427
131422
131422
131422
131423
131423
131422
131421
131409
131416
122508
122504
122504
122504
122505
122506
122505
122505
122495
122502
113594
113592
113592
113593
113595
113597
113597
113599
113590
113598
104671
104668
104667
104668
104669
104671
104671
104674
104666
104675
100220
100221
100221
100225
100231
100238
100243
100252
100246
100258
100246
100244
100242
100242
100242
100244
100244
100248
100243
100251
94552.1
96241.3
97330.1
97843.7
98061.4
98044.1
97827.7
97473
96793.6
94282.2
88759
94595.9
96265.2
97343
97854.3
98070.3
98051.1
97833
97477.6
96784.7
94362.5
90245.2
94652.4
96293.9
97357.3
97870.2
98089.6
98074.5
97863.6
97517.9
96820.3
94578.5
91694.6
94870.6
96406.4
97415.3
97915.6
98130.6
98116.5
97914.9
97583.9
96902.7
94967.6
93134.1
95238.6
96605.6
97526.9
97999.8
98204
98189.6
97999
97682.5
97034.8
95441.5
94337.3
95677.9
96862
97681.2
98115.7
98302.7
98285.7
98105.6
97804.5
97203
95912.2
95269.8
96162.1
97164.6
97875.1
98263.1
98427.6
98405.3
98234.5
97949.8
97403.9
96371.1
96029.6
96672.2
97503.4
98104.2
98439.8
98577.6
98547.2
98383.8
98116.2
97629.3
96811.3
96671.3
97194
97869.1
98363.1
98643.1
98750.7
98710
98552
98301.4
97872.4
97230.6
97227.3
97722.4
98256.9
98648.9
98871.4
98946.6
98893.1
98738.6
98504.5
98130.3
97632.7
97723.6
98282.7
98684.5
98975.4
99137.1
99176.4
99107.5
98954.4
98736.3
98414.9
98040.1
98198.3
98913.5
99183.1
99368.7
99462.9
99460.5
99372.1
99217.8
99015.5
98746.1
98479.1
98684.2
99651.8
99786.3
99859.9
99877
99824.8
99710.6
99551.1
99363
99143.8
98970.4
99203.4
100465
100474
100437
100371
100263
100117
99947
99769.1
99592.1
99490
99730.7
101270
101173
101036
100893
100729
100548
100363
100189
100041
99984
100216
102038
101853
101629
101415
101197
100981
100778
100602
100470
100438
100652
102772
102512
102211
101931
101661
101409
101184
101001
100875
100853
101044
103475
103148
102776
102434
102114
101826
101577
101382
101255
101233
101397
104147
103759
103321
102921
102552
102226
101952
101741
101606
101578
101714
104789
104344
103842
103385
102969
102605
102304
102075
101929
101889
101997
105404
104903
104339
103826
103362
102962
102632
102383
102222
102168
102249
105994
105437
104808
104241
103730
103292
102935
102664
102487
102416
102472
106558
105945
105249
104627
104071
103597
103211
102919
102724
102636
102669
107054
106391
105630
104958
104360
103853
103443
103131
102920
102816
102829
107452
106749
105928
105214
104582
104049
103618
103291
103066
102949
102946
107776
107038
106164
105415
104753
104199
103752
103412
103177
103050
103034
108058
107284
106361
105580
104893
104321
103861
103510
103267
103129
103102
108320
107504
106535
105723
105014
104426
103954
103595
103343
103197
103159
108568
107707
106692
105850
105120
104518
104035
103668
103411
103256
103207
108798
107889
106829
105959
105211
104596
104104
103731
103468
103305
103244
109007
108046
106944
106049
105284
104659
104161
103783
103517
103346
103272
109190
108177
107036
106118
105341
104707
104204
103824
103555
103378
103288
109342
108279
107106
106170
105382
104743
104236
103853
103584
103401
103289
109418
108325
107136
106192
105400
104759
104252
103870
103602
103414
103276
109460
108354
107158
106209
105414
104771
104262
103878
103609
103419
103251
118781
117888
117945
118023
118027
118063
118152
118271
118403
118538
118668
118795
118912
119014
119089
119124
119130
119118
119089
119063
118990
118839
118651
118421
118164
117870
117529
117138
116702
116241
115799
115428
115043
114680
115272
122010
121201
120605
120124
119717
119375
119084
118828
118593
118357
118102
117820
117524
117262
117041
116845
116679
116553
116472
116455
116480
116547
116673
116821
116960
117079
117183
117287
117403
117552
117773
118112
118529
118994
119661
109992
109292
108511
107747
107045
106407
105834
105326
104884
104496
104133
103780
103439
103145
102931
102778
102678
102621
102593
102582
102544
102490
102470
102500
102584
102722
102921
103197
103555
103999
104538
105180
105798
106298
106819
116892
116539
116114
115690
115278
114880
114498
114134
113788
113448
113097
112725
112345
112007
111730
111507
111338
111219
111150
111132
111162
111246
111392
111579
111782
111995
112224
112479
112762
113074
113412
113780
114135
114419
114653
118472
118243
117961
117677
117402
117134
116876
116629
116394
116165
115927
115674
115409
115164
114961
114796
114671
114583
114533
114521
114544
114603
114701
114823
114952
115087
115232
115394
115572
115766
115974
116197
116408
116576
116718
121006
120861
120679
120496
120315
120137
119962
119793
119629
119466
119294
119107
118908
118721
118562
118430
118327
118253
118207
118192
118205
118248
118318
118405
118495
118587
118683
118788
118902
119023
119152
119287
119414
119515
119597
123311
123216
123095
122973
122852
122732
122614
122499
122388
122276
122157
122027
121887
121754
121639
121541
121464
121406
121368
121351
121354
121376
121417
121469
121523
121579
121638
121702
121771
121844
121922
122004
122080
122141
122191
125671
125608
125527
125446
125364
125283
125204
125125
125048
124971
124889
124798
124699
124604
124520
124448
124389
124344
124312
124294
124290
124299
124320
124350
124381
124414
124448
124486
124527
124571
124617
124666
124711
124748
124777
128042
128000
127946
127891
127835
127780
127726
127672
127619
127566
127509
127445
127376
127308
127247
127195
127150
127115
127089
127071
127063
127064
127073
127088
127105
127122
127142
127163
127187
127212
127239
127267
127294
127315
127332
130434
130405
130368
130331
130293
130256
130218
130181
130145
130108
130068
130023
129974
129926
129882
129843
129810
129782
129761
129745
129736
129732
129734
129740
129747
129756
129766
129778
129790
129804
129819
129835
129850
129862
129872
132841
132822
132797
132771
132745
132719
132693
132668
132642
132617
132589
132557
132523
132488
132456
132428
132403
132381
132364
132350
132341
132335
132333
132334
132337
132340
132345
132350
132357
132364
132372
132380
132388
132395
132400
135262
135248
135231
135213
135196
135178
135160
135142
135124
135106
135087
135065
135040
135015
134992
134971
134953
134936
134922
134911
134902
134896
134892
134891
134891
134892
134893
134895
134898
134901
134905
134909
134913
134917
134919
137692
137683
137671
137659
137647
137634
137622
137610
137597
137585
137571
137556
137538
137521
137504
137489
137475
137463
137452
137443
137435
137429
137425
137423
137422
137421
137421
137422
137422
137424
137425
137427
137429
137430
137431
140130
140124
140116
140107
140099
140090
140082
140074
140065
140057
140047
140036
140024
140012
140000
139989
139980
139971
139963
139956
139950
139945
139941
139939
139937
139936
139936
139935
139935
139935
139936
139936
139937
139938
139938
142573
142569
142564
142558
142553
142547
142541
142536
142530
142525
142518
142511
142503
142495
142487
142480
142473
142467
142461
142456
142452
142448
142446
142444
142442
142441
142441
142440
142440
142440
142440
142440
142440
142440
142441
145021
145018
145015
145011
145008
145004
145001
144997
144994
144990
144986
144982
144977
144972
144967
144963
144959
144955
144952
144949
144946
144944
144943
144942
144941
144940
144940
144940
144940
144940
144940
144940
144940
144940
144940
147470
147469
147467
147465
147463
147462
147460
147458
147456
147454
147453
147450
147448
147446
147444
147442
147440
147439
147437
147436
147436
147435
147435
147435
147435
147435
147436
147436
147436
147437
147437
147438
147438
147438
147439
149921
149921
149920
149920
149919
149919
149919
149918
149918
149918
149917
149917
149917
149917
149917
149918
149918
149919
149920
149921
149922
149923
149925
149926
149927
149928
149929
149930
149931
149932
149933
149934
149935
149936
149936
152373
152373
152374
152374
152375
152376
152376
152377
152378
152379
152381
152382
152384
152387
152389
152392
152395
152397
152400
152404
152407
152410
152413
152416
152418
152420
152422
152424
152426
152428
152430
152431
152433
152434
152435
154823
154824
154826
154827
154829
154831
154833
154835
154837
154840
154843
154846
154850
154855
154859
154864
154869
154875
154880
154885
154891
154896
154901
154906
154909
154913
154916
154919
154922
154924
154927
154930
154932
154934
154935
157272
157274
157276
157279
157282
157285
157288
157291
157295
157298
157303
157308
157314
157321
157328
157335
157343
157351
157358
157366
157374
157382
157389
157396
157401
157406
157410
157415
157419
157423
157427
157431
157434
157436
157438
159717
159720
159724
159727
159731
159736
159740
159745
159749
159754
159760
159767
159776
159785
159795
159805
159815
159826
159836
159847
159858
159868
159878
159887
159895
159901
159907
159913
159919
159924
159930
159935
159939
159943
159945
162159
162163
162167
162172
162178
162183
162189
162195
162201
162207
162215
162224
162235
162247
162260
162273
162286
162300
162314
162328
162342
162356
162369
162381
162390
162399
162407
162415
162422
162429
162437
162444
162450
162454
162458
164596
164600
164606
164612
164619
164625
164632
164640
164648
164656
164665
164677
164690
164706
164722
164739
164756
164773
164790
164808
164826
164844
164861
164876
164889
164900
164910
164920
164930
164940
164949
164958
164966
164972
164977
167027
167032
167039
167046
167054
167062
167070
167079
167089
167099
167110
167124
167141
167160
167180
167201
167222
167243
167266
167288
167311
167333
167355
167375
167391
167405
167418
167431
167444
167456
167468
167480
167490
167498
167504
169449
169455
169463
169472
169481
169490
169500
169511
169522
169534
169548
169564
169585
169608
169632
169658
169684
169710
169738
169766
169794
169823
169851
169875
169896
169914
169931
169947
169963
169979
169995
170010
170024
170034
170042
171862
171869
171878
171887
171898
171909
171920
171933
171945
171959
171976
171995
172020
172048
172077
172107
172139
172172
172206
172241
172276
172312
172347
172378
172405
172427
172449
172470
172491
172511
172531
172551
172568
172582
172592
174263
174270
174280
174291
174302
174314
174327
174341
174355
174371
174390
174413
174442
174475
174510
174546
174585
174625
174667
174710
174755
174800
174844
174883
174916
174945
174973
175000
175026
175052
175078
175104
175126
175143
175156
176650
176657
176667
176677
176689
176702
176716
176731
176748
176765
176786
176813
176846
176884
176926
176970
177017
177066
177117
177170
177225
177282
177338
177387
177429
177467
177501
177536
177570
177604
177637
177670
177699
177721
177739
179019
179025
179034
179044
179055
179068
179083
179099
179116
179135
179158
179188
179225
179270
179318
179371
179427
179487
179550
179616
179684
179755
179825
179888
179942
179990
180034
180079
180123
180167
180210
180252
180290
180319
180342
181367
181371
181377
181385
181395
181407
181420
181435
181453
181473
181497
181529
181572
181623
181679
181741
181808
181881
181958
182040
182125
182214
182303
182383
182451
182512
182570
182627
182684
182741
182797
182852
182902
182940
182969
183685
183684
183685
183688
183693
183701
183712
183725
183741
183760
183785
183818
183864
183922
183987
184060
184141
184230
184325
184427
184534
184646
184759
184862
184950
185029
185103
185177
185251
185325
185398
185471
185536
185586
185625
185941
185932
185923
185917
185914
185915
185919
185927
185938
185954
185977
186009
186058
186122
186197
186284
186382
186491
186610
186739
186875
187020
187167
187301
187416
187519
187616
187713
187810
187907
188004
188100
188187
188252
188303
188167
188142
188115
188091
188073
188060
188053
188051
188055
188065
188083
188115
188165
188236
188322
188424
188540
188671
188816
188974
189143
189325
189511
189682
189831
189964
190091
190218
190346
190473
190601
190729
190844
190930
190998
190553
190501
190444
190394
190352
190317
190292
190275
190269
190273
190290
190324
190380
190457
190552
190665
190797
190948
191116
191300
191498
191709
191925
192123
192296
192454
192608
192764
192924
193087
193251
193418
193570
193687
193782
192605
192525
192433
192353
192283
192222
192171
192131
192103
192087
192085
192103
192153
192240
192358
192508
192689
192899
193135
193396
193678
193979
194285
194561
194795
195005
195206
195410
195617
195825
196034
196245
196438
196588
196711
191822
191670
191468
191288
191140
191023
190933
190863
190806
190754
190709
190690
190739
190881
191093
191361
191675
192031
192427
192862
193340
193869
194442
194994
195471
195886
196261
196621
196974
197319
197656
197990
198287
198494
198620
192336
191968
191609
191298
191041
190834
190676
190572
190534
190576
190702
190904
191141
191349
191548
191765
192011
192290
192602
192942
193301
193664
193985
194244
194501
194789
195124
195502
195915
196356
196824
197312
197756
198139
198538
224297
224520
224704
224859
224972
225048
225101
225125
225097
224993
224808
224547
224247
223970
223694
223405
223102
222784
222457
222130
221815
221531
221322
221195
221074
220934
220763
220574
220380
220184
219986
219792
219645
219502
219273
225495
225657
225825
225963
226066
226137
226179
226189
226168
226121
226042
225914
225716
225447
225130
224774
224386
223969
223528
223071
222601
222121
221649
221225
220878
220590
220339
220106
219888
219687
219504
219338
219204
219119
219069
222832
222894
222961
223009
223040
223052
223047
223024
222986
222934
222862
222758
222600
222385
222136
221863
221571
221261
220940
220610
220277
219943
219621
219342
219121
218941
218784
218638
218501
218375
218260
218156
218074
218022
217985
222470
222504
222535
222557
222567
222565
222549
222516
222468
222402
222310
222183
222010
221799
221562
221303
221025
220730
220421
220104
219781
219459
219153
218892
218684
218513
218363
218224
218097
217983
217882
217794
217729
217690
217658
217181
217172
217155
217130
217098
217058
217009
216951
216884
216806
216710
216585
216417
216215
215992
215751
215494
215223
214942
214653
214361
214070
213795
213564
213384
213240
213116
213005
212905
212818
212742
212677
212631
212604
212586
207734
207699
207651
207597
207538
207473
207402
207326
207243
207151
207041
206903
206727
206523
206306
206076
205834
205582
205323
205059
204795
204535
204294
204097
203946
203828
203728
203639
203561
203494
203438
203391
203358
203340
203327
198252
198199
198129
198054
197977
197895
197810
197721
197628
197529
197415
197274
197100
196902
196696
196480
196257
196026
195791
195554
195320
195091
194882
194715
194590
194493
194414
194345
194285
194235
194194
194160
194137
194125
194116
188786
188726
188646
188563
188478
188390
188300
188207
188113
188013
187900
187763
187595
187410
187221
187026
186825
186621
186414
186209
186008
185815
185641
185504
185405
185329
185268
185216
185172
185136
185106
185083
185067
185058
185052
179270
179212
179135
179055
178973
178890
178805
178719
178631
178539
178435
178311
178162
177998
177832
177662
177490
177316
177143
176972
176807
176649
176509
176399
176320
176261
176214
176174
176141
176114
176092
176075
176064
176057
176053
169699
169653
169591
169526
169460
169391
169321
169250
169177
169101
169015
168912
168788
168652
168515
168376
168236
168096
167957
167822
167691
167569
167462
167379
167319
167274
167238
167208
167182
167161
167144
167131
167121
167116
167111
160070
160046
160010
159972
159930
159886
159840
159791
159741
159688
159627
159553
159462
159360
159257
159152
159045
158939
158833
158731
158633
158542
158463
158401
158356
158322
158294
158270
158249
158232
158217
158204
158195
158190
158185
150414
150419
150419
150415
150407
150395
150378
150358
150336
150309
150277
150236
150181
150118
150050
149979
149906
149831
149757
149684
149615
149549
149492
149446
149411
149385
149362
149343
149326
149311
149297
149286
149277
149272
149267
140790
140829
140869
140904
140932
140954
140970
140981
140986
140988
140986
140977
140958
140930
140896
140856
140812
140765
140717
140668
140621
140575
140534
140500
140474
140453
140436
140420
140405
140392
140380
140369
140360
140355
140350
131295
131362
131439
131509
131569
131621
131665
131703
131733
131760
131782
131801
131812
131813
131805
131789
131768
131742
131712
131681
131649
131618
131588
131563
131543
131526
131512
131499
131486
131475
131464
131454
131446
131440
131436
122035
122121
122219
122308
122388
122458
122520
122574
122620
122662
122700
122736
122765
122784
122792
122790
122781
122766
122747
122725
122701
122676
122652
122631
122614
122600
122587
122575
122564
122554
122544
122535
122527
122522
122517
113083
113167
113262
113350
113430
113502
113567
113624
113674
113719
113761
113801
113835
113857
113868
113868
113861
113846
113827
113804
113780
113754
113729
113708
113691
113677
113665
113654
113644
113635
113627
113619
113612
113607
113603
104293
104383
104479
104567
104646
104718
104781
104837
104885
104928
104967
105001
105028
105041
105042
105031
105012
104986
104954
104920
104885
104849
104816
104789
104769
104752
104739
104727
104716
104707
104699
104693
104687
104683
104679
100059
100161
100278
100384
100478
100561
100631
100690
100738
100777
100808
100830
100838
100829
100805
100768
100722
100669
100611
100551
100492
100435
100383
100343
100313
100292
100275
100261
100251
100244
100239
100236
100233
100231
100228
100345
100542
100741
100898
101021
101117
101191
101246
101284
101309
101320
101314
101286
101235
101168
101088
100999
100904
100806
100709
100614
100525
100446
100386
100343
100313
100291
100275
100265
100259
100258
100258
100257
100256
100248
105637
105630
105612
105585
105548
105501
105444
105377
105299
105206
105088
104929
104713
104445
104139
103797
103422
103017
102584
102126
101643
101142
100644
100203
99834.4
99516.9
99227.6
98953.3
98697
98464.9
98264.9
98108.2
98023.6
98015.4
98008.3
105976
105968
105943
105911
105869
105817
105756
105683
105598
105498
105369
105197
104961
104668
104334
103961
103557
103125
102668
102189
101687
101169
100654
100194
99809.6
99479
99182.5
98907.8
98658.7
98441.5
98263.4
98131.3
98058.3
98050.1
98047.8
106423
106414
106380
106342
106293
106235
106166
106085
105992
105882
105741
105552
105293
104971
104606
104200
103764
103301
102815
102308
101782
101245
100717
100255
99874.4
99553.2
99270.8
99015.8
98791.9
98603.7
98456.7
98352.9
98297.4
98289.3
98286
106965
106953
106910
106864
106809
106743
106667
106577
106475
106353
106198
105989
105704
105351
104951
104508
104032
103530
103004
102458
101895
101320
100759
100271
99872.5
99538.8
99247.9
98986.7
98758.2
98566
98414.9
98303.5
98239.3
98220.5
98213.4
107604
107590
107535
107481
107417
107344
107258
107159
107046
106911
106740
106509
106194
105805
105364
104876
104354
103803
103228
102632
102017
101390
100777
100245
99811.6
99450.1
99135.7
98853.5
98607
98399.7
98236.6
98114.4
98044.6
98013.1
98001.3
108338
108320
108252
108187
108114
108031
107935
107825
107699
107550
107361
107105
106757
106327
105840
105301
104724
104115
103480
102822
102142
101446
100763
100168
99682
99275.2
98919.8
98600
98319.9
98084.5
97899.6
97761.1
97685.3
97643.1
97630.6
109164
109140
109056
108977
108893
108797
108689
108566
108426
108261
108050
107767
107383
106910
106371
105775
105135
104460
103755
103022
102263
101482
100710
100032
99475
99005.1
98591.6
98216.6
97885.4
97604.9
97382.4
97213.6
97121.5
97068.7
97059.4
110055
110025
109920
109826
109727
109618
109495
109356
109200
109016
108782
108469
108046
107527
106936
106280
105574
104826
104043
103225
102373
101488
100603
99818.4
99166.5
98612.5
98121
97672.2
97273.2
96933.8
96662.7
96453.5
96332.7
96262.3
96255.6
110951
110913
110787
110676
110561
110434
110293
110137
109963
109759
109502
109161
108706
108151
107516
106807
106037
105216
104350
103437
102475
101459
100423
99482.8
98682.3
97986.7
97356.1
96768.5
96237.6
95783.1
95422.9
95151.1
94999.6
94923.6
94932.5
112036
111969
111775
111603
111436
111266
111090
110906
110710
110491
110223
109872
109408
108837
108175
107419
106580
105677
104720
103707
102627
101465
100243
99082
98038.2
97075
96141.8
95203
94272
93378.7
92555.8
91817.1
91297.7
91027.2
90969.5
113710
113460
113094
112789
112524
112282
112053
111831
111606
111360
111066
110691
110209
109623
108933
108119
107195
106200
105157
104059
102887
101615
100251
98902.4
97626.6
96377.4
95087.4
93691.2
92175.5
90539.5
88766.2
86782.7
84765.7
82970.3
81422.1
97337.9
96421.9
95540.8
94737.2
94003.4
93325
92684.3
92065.3
91453.7
90840.8
90249.6
89723.8
89042.4
87330.6
85239.8
97415.4
96547.9
95714
94954.9
94262.9
93624.3
93022
92441
91867.6
91293.3
90741.3
90254.6
89612.6
88093.8
87133.5
97587.7
96790.9
96023.5
95324.9
94688
94100
93545.1
93009.5
92480.1
91949.5
91441.1
90992.1
90385.1
89119.4
88950.1
97814.1
97108.6
96425.7
95801.9
95231.8
94704.4
94205.6
93723.2
93245.8
92767.9
92313.7
91911.7
91369.2
90436
90763.1
98078.5
97475.3
96886.5
96345.3
95848.1
95385.9
94946.6
94519.4
94094.7
93668.7
93264.6
92901.3
92426.4
91783
92314.6
98338.8
97834.5
97337.1
96876.4
96449.9
96050.5
95668.1
95293.3
94918
94540.5
94181.4
93851.8
93439.9
93001.3
93570.1
98603.8
98194
97784.7
97401.6
97043.4
96704.4
96376
96050.4
95721
95387.3
95067.6
94768.1
94411.5
94110.2
94638.3
98873.4
98553.5
98228.2
97919.4
97626.5
97344.9
97067.6
96788.3
96501.4
96207.7
95922.8
95649.9
95339.2
95125.7
95579.9
99146.5
98911.8
98666.1
98427.7
98196.5
97969.1
97740
97503.8
97256.5
96999.3
96745.4
96496.3
96222.3
96061.6
96430.2
99424.3
99270.7
99100.4
98928.7
98756
98579.8
98396
98200.4
97990
97766.5
97540.8
97313.2
97068.1
96936.8
97218.6
99722.2
99649.7
99554.6
99449.3
99334.5
99209
99069.9
98914.4
98740.3
98549.6
98351.1
98143.9
97922.4
97805.1
97999.4
100063
100077
100061
100025
99971.3
99898.7
99806.3
99692.3
99555.7
99398.6
99227.7
99041.1
98838.9
98722.9
98827.5
100471
100580
100652
100692
100704
100688
100646
100576
100479
100357
100215
100049
99862.1
99736.1
99749.1
100936
101146
101308