/*--------------------------------*- C++ -*----------------------------------*\
| =========                 |                                                 |
| \\      /  F ield         | OpenFOAM: The Open Source CFD Toolbox           |
|  \\    /   O peration     | Version:  2406                                  |
|   \\  /    A nd           | Website:  www.openfoam.com                      |
|    \\/     M anipulation  |                                                 |
\*---------------------------------------------------------------------------*/
FoamFile
{
    version     2.0;
    format      ascii;
    arch        "LSB;label=32;scalar=64";
    class       volScalarField;
    location    "0/fluidRegion";
    object      powerDensityNeutronicsToLiquid;
}
// * * * * * * * * * * * * * * * * * * * * * * * * * * * * * * * * * * * * * //

dimensions      [1 -1 -3 0 0 0 0];

internalField   nonuniform List<scalar> 
8595
(
13251.4
24484.7
32330.9
38039.3
42155.5
45201
47461.3
49107.3
50247.4
50954.3
51281.8
51272.1
50918.2
50306.4
49217
47896.1
45861.1
43556
39588.4
36643
34434.6
32689.8
31269.3
30103.1
29140.5
28341.6
27675.2
27116.9
26647.1
26249.8
25911.9
25622.7
25373.3
25156.3
24965.7
24796.3
24643.8
24504.4
24374.9
24252.2
24133.7
24016.5
23897.9
23774.8
23643.4
23499
23334.8
23141.4
22904
22600.1
22193.3
21626.6
20804.7
19621.1
17836.9
15398
8767.98
18076.5
33925.7
45034
53057.6
58831
63099.3
66262.5
68567.7
70165.5
71156.7
71617.2
71608.1
71121.3
70229.6
68744.7
66843.5
64049.3
60765.6
55339.2
51252.7
48165.9
45722.2
43732.9
42099.8
40752.1
39633.9
38701.7
37921.1
37264.7
36709.9
36238.4
35835.2
35487.9
35186.1
34921.2
34686.1
34474.6
34281.5
34102.2
33932.5
33768.5
33606.5
33442.4
33272
33090
32889.7
32661.8
32393.1
32063.2
31640.7
31074.9
30286.1
29140.3
27476
24923.4
21205.3
11862.7
22757.5
43053.3
57259.6
67441
74743.8
80148.7
84174.4
87110.2
89145.8
90408.7
90997.5
90984.5
90372.2
89209.1
87345.4
84875.5
81365.3
77092.4
70456.5
65326.1
61402.2
58281.9
55739.1
53650.3
51926
50495.2
49302.5
48304
47464.5
46755.3
46152.9
45638
45194.6
44809.6
44471.9
44172.4
43903.1
43657.4
43429.4
43213.7
43005.3
42799.4
42591
42374.4
42143.1
41888.6
41599.2
41258.2
40840.1
40305.5
39591
38596
37150.6
35032.9
31735.8
26711.2
14779
27430.6
51967
69041.8
81205.6
89925.6
96404.3
101243
104769
107213
108730
109437
109416
108683
107263
105031
102017
97823
92618.4
84925.9
78844.8
74133.7
70366.2
67289.2
64758.3
62667.1
60930.9
59483.3
58271.3
57252.4
56391.8
55660.9
55036.3
54498.8
54032.2
53623.2
53260.6
52934.9
52637.7
52362.1
52101.4
51849.7
51601
51349.2
51087.7
50808.4
50501.1
50152
49741.2
49238.7
48598
47744.4
46559
44839.2
42304.2
38310
32019.1
17639.1
32271.9
60803.9
80457.7
94394.4
104395
111857
117439
121501
124311
126056
126869
126838
125986
124322
121738
118211
113371
107307
98695.4
91752.9
86307.6
81926
78337
75380.1
72934.1
70902
69206.9
67787.5
66594.1
65586.1
64730.2
63999
63369.8
62823.8
62345.5
61921.5
61540.8
61193.8
60871.9
60567.6
60273.8
59983.6
59689.8
59384.7
59059
58701
58294.8
57817.8
57236.2
56497.4
55517.6
54162.7
52202.3
49302.6
44692
37248.3
20578.8
37492.2
69703.6
91576.1
107038
118184
126519
132746
137277
140409
142353
143256
143211
142244
140354
137436
133431
127991
121148
111733
104015
97891.4
92933
88857.9
85493.6
82706.9
80389.6
78455.6
76835.5
75473.1
74322.3
73345.1
72510.4
71792.4
71169.5
70623.9
70140.5
69706.6
69311.1
68944.5
68598
68263.5
67933.1
67598.9
67251.7
66881.4
66474.7
66014.1
65474.7
64819.4
63991.2
62899.2
61397.9
59236.1
56037.9
50924.6
42510.8
23754.8
43388.8
78808.5
102456
119152
131286
140360
147130
152059
155467
157583
158563
158500
157425
155324
152095
147652
141662
134126
124010
115599
108854
103359
98825.5
95074.6
91963
89372.7
87209.3
85396.3
83871.3
82582.9
81488.9
80554.4
79750.7
79053.6
78443.1
77902.5
77417.3
76975.2
76565.5
76178.3
75804.7
75435.8
75062.5
74675.1
74262
73809
73297
72699.2
71976.2
71067.9
69878.7
68256.3
65936.6
62517.5
57044.8
47917.5
27376.9
50397.6
88254.6
113131
130747
143656
153322
160538
165798
169442
171708
172754
172676
171502
169209
165696
160857
154375
146229
135505
126478
119171
113178
108217
104103
100683
97833.4
95451.3
93453.9
91773.3
90353.1
89147.1
88117
87231
86462.7
85790.1
85194.5
84660.1
84173.4
83722.4
83296.3
82885.2
82479.3
82068.8
81643
81189.2
80692.3
80132
79480
78695.6
77716.7
76446
74728.7
72297.2
68742.5
63078.5
53574.4
31750.7
59222.6
98161.8
123587
141765
155213
165328
172905
178448
182299
184700
185810
185722
184461
181998
178230
173039
166123
157448
146200
136634
128819
122373
117016
112561
108852
105758
103168
100996
99167.5
97621.8
96309.1
95187.8
94223.3
93387.2
92655.2
92007.2
91425.9
90896.6
90406.3
89943.1
89496.3
89055.3
88609.4
88147
87654.8
87116.5
86511
85809.3
84969.7
83929.8
82593
80807.1
78310.4
74707.9
69035.3
59571.2
37345.4
70748.2
108437
133646
152041
165841
176305
184189
189982
194025
196554
197728
197636
196301
193690
189698
184199
176907
167779
156083
146047
137780
130921
125201
120431
116453
113129
110345
108008
106040
104375
102962
101754
100715
99814.9
99026.8
98329.1
97703.5
97133.9
96606.2
96108
95627.4
95153.2
94673.8
94176.9
93648.5
93071.5
92424.2
91677
90788.4
89696.9
88308.8
86479.3
83962
80395.3
74895.6
65938.5
44901.3
40155.9
31903.5
26250.9
22074.2
18766.9
15986.2
13526.6
11256
9079.69
6928.31
59490
52034.2
45489.1
39700.4
34488.4
29700.2
25212.1
20925.9
16759
12650.2
68751.6
61773.5
55109.5
48765.6
42711.2
36905.9
31308.3
25881.1
20591.8
15415.2
74640.9
67827.3
61081.7
54446.4
47939.3
41567.3
35330.4
29225.7
23248.4
17389.5
78577.5
71791.7
64955.7
58123.5
51331.9
44608.6
37973.5
31441.7
25024
18720.8
81387.4
74568.8
67636
60649.6
53655.2
46690.7
39786.4
32966.4
26250.7
19644.2
83452.4
76576.6
69550.6
62438.3
55290.4
48150.5
41054.3
34031.4
27107.2
20289.4
85024.8
78084.4
70972.3
63755.1
56486.3
49212.9
41974.1
34802.3
27726.6
20756
86259.7
79255
72065.7
64759.9
57393.2
50014.8
42665.8
35380.8
28190.7
21105.7
87259.3
80194
72936
65554.5
58106.7
50643
43206.1
35831.6
28551.9
21377.8
88092.1
80970.9
73651.7
66204.7
58688.1
51153.2
43643.8
36196.2
28843.7
21597.7
88805.6
81633.2
74259.2
66754.5
59178.1
51582.2
44011.1
36501.7
29088.1
21781.9
89434
82214.5
74790.6
67234.2
59604.7
51954.9
44329.8
36766.7
29300
21941.7
90003.1
82739.5
75269.6
67665.7
59987.8
52289.3
44615.5
37004
29489.8
22084.8
90532.7
83227.3
75713.9
68065.4
60342.4
52598.6
44879.5
37223.3
29665.1
22217.1
91039.2
83693.3
76138
68446.7
60680.4
52893.1
45130.9
37432
29832
22343
91536.9
84150.8
76554
68820.5
61011.6
53181.7
45377.1
37636.5
29995.4
22466.4
92038.7
84611.9
76973.2
69196.9
61345
53472.1
45624.8
37842.1
30159.8
22590.4
92557.2
85088.1
77405.8
69585.4
61689
53771.6
45880.3
38054.1
30329.3
22718.3
93105
85591
77862.7
69995.5
62052
54087.7
46149.8
38277.7
30507.9
22853.1
93695.4
86133
78354.9
70437.2
62442.9
54427.9
46439.9
38518.3
30700.1
22998
94343.1
86727.3
78894.6
70921.4
62871.3
54800.7
46757.6
38781.8
30910.5
23156.5
95064.3
87389
79495.2
71460.1
63347.8
55215.2
47110.8
39074.5
31144.2
23332.5
95877.5
88134.8
80172.1
72067.1
63884.6
55682
47508.4
39404.1
31407
23530.4
96804.1
88984.4
80942.9
72758
64495.5
56213.2
47960.7
39778.8
31705.8
23755.1
97868.6
89960.2
81828
73551.3
65196.7
56822.7
48479.5
40208.4
32048.3
24012.6
99099.8
91088.5
82851.1
74467.9
66006.6
57526.5
49078.5
40704.4
32443.5
24309.6
100531
92399.7
84039.6
75532.5
66947.1
58343.5
49773.6
41279.7
32901.8
24653.8
102201
93928.9
85425.3
76773.3
68042.9
59295.3
50583.1
41949.6
33435.2
25054.2
104154
95716.7
87044.9
78223.1
69322.9
60406.7
51528.2
42731.4
34057.5
25521.3
106441
97809.5
88940.1
79919
70819.8
61706.2
52633
43645.1
34784.6
26066.7
109119
100259
91158
81903.3
72570.8
63225.9
53924.6
44713.1
35634.3
26703.9
112252
103125
93751.3
84222.9
74617.3
65001.8
55433.8
45960.7
36626.7
27447.7
115910
106469
96778
86929.8
77005.3
67073.8
57194.5
47416.3
37784.2
28315.1
120168
110362
100301
90080.9
79785.7
69486.7
59245.2
49111.5
39132.2
29324.9
125101
114874
104386
93737.1
83013.4
72289.3
61628.1
51082.1
40699.4
30498.7
130781
120073
109099
97960.1
86746.9
75535.5
64391.3
53369.2
42519
31861.1
137278
126034
114516
102830
91067.3
79305.4
67611.8
56043.2
44651.2
33458.9
144699
132872
120763
108481
96117.2
83750.1
71446
59260.1
47242.2
35412
152856
140408
127687
114798
101832
88861.9
75946.9
63130.4
50452
37875.8
158608
145569
132271
118821
105306
91795.7
78347.5
65009.6
51832
38833.5
162712
149199
135462
121606
107715
93855
80079.5
66431.7
52957.6
39674.9
165327
151450
137390
123247
109100
95014.6
81044.5
67226
53593.5
40157.2
166773
152661
138408
124105
109825
95626.7
81555.5
67645.3
53928.4
40411.3
167279
153044
138697
124329
110007
95778.7
81681.8
67748.7
54010.7
40474.8
167033
152772
138418
124064
109763
95559.4
81489.9
67586.3
53877.7
40376.6
166075
151873
137591
123308
109082
94956.6
80968
67147.8
53521.8
40111.1
164330
150260
136115
121970
107885
93902.8
80060.1
66387.4
52908.7
39652.7
161651
147780
133846
119918
106053
92294.4
78677.7
65232.3
51981.1
38958.8
157856
144258
130615
116991
103438
89999.3
76706.3
63586.9
50663.1
37972.2
152709
139460
126195
112974
99843.3
86839
73990.1
61320.6
48849.8
36614.3
145908
133078
120284
107577
94995.2
82567
70313.3
58251.5
46395
34775.2
137030
124666
112432
100365
88487.7
76814.9
65353.1
54107.5
43079.9
32290.4
125465
113571
101972
90685.3
79709.8
69030.9
58629.2
48486.3
38583.3
28920.3
110216
98670.7
87755.9
77440
67656
58328
49384.3
40763.7
32411.7
24298.1
89432
77879.1
67754.6
58803.2
50760.1
43404.5
36563.8
30107.9
23932.8
17969.7
58067.2
46090.2
37778.1
31567.2
26616.7
22452.3
18791.7
15460
12332.4
9329.38
116096
134660
158772
189838
229900
281984
350764
443967
575714
776234
1.13137e+06
130844
151737
178890
213869
258970
317586
394954
499704
647522
871495
1.26043e+06
148646
172349
203170
242861
294009
360432
447997
566302
732547
981849
1.39954e+06
170516
197688
233013
278470
336986
412865
512661
646950
834200
1.11009e+06
1.55016e+06
194003
224940
265106
316723
383063
468890
581375
731846
939384
1.23833e+06
1.69147e+06
216577
251175
295995
353496
427251
522412
646612
811622
1.03649e+06
1.35308e+06
1.81224e+06
238121
276252
325512
388584
469301
573126
708007
885893
1.12531e+06
1.45513e+06
1.91606e+06
258556
300067
353533
421837
509035
620822
765333
954468
1.20591e+06
1.54541e+06
2.00549e+06
277809
322527
379944
453122
546295
665323
818414
1.01724e+06
1.27844e+06
1.62479e+06
2.08236e+06
295992
343753
404885
482603
581283
706886
867595
1.07473e+06
1.34377e+06
1.69471e+06
2.14862e+06
313900
364665
429429
511544
615494
747286
914993
1.12945e+06
1.40489e+06
1.7587e+06
2.20785e+06
332295
386145
454601
541132
650301
788101
962399
1.18341e+06
1.46401e+06
1.819e+06
2.26196e+06
351454
408510
480751
571743
686083
829681
1.01008e+06
1.23674e+06
1.521e+06
1.8752e+06
2.30998e+06
369570
429641
505377
600398
719279
867768
1.05298e+06
1.28352e+06
1.5692e+06
1.92016e+06
2.34468e+06
384242
446730
525192
623256
745422
897220
1.08531e+06
1.31744e+06
1.60211e+06
1.94766e+06
2.36063e+06
394762
458950
539245
639243
763334
916800
1.10585e+06
1.33749e+06
1.6191e+06
1.95761e+06
2.35825e+06
401097
466267
547513
648368
773084
926693
1.11498e+06
1.3443e+06
1.62113e+06
1.95131e+06
2.33901e+06
403250
468690
550024
650694
774802
927132
1.11309e+06
1.3385e+06
1.6091e+06
1.92989e+06
2.30417e+06
401239
466254
546834
646317
768645
918368
1.10057e+06
1.32063e+06
1.58377e+06
1.89431e+06
2.25488e+06
395131
459043
538059
635397
754835
900710
1.07784e+06
1.29127e+06
1.54586e+06
1.84549e+06
2.19224e+06
385007
447162
523835
618111
733605
874460
1.04527e+06
1.25089e+06
1.49595e+06
1.78413e+06
2.11714e+06
370979
430752
504337
594679
705225
839944
1.00327e+06
1.19994e+06
1.43456e+06
1.71084e+06
2.03037e+06
353220
410020
479817
565402
670056
797580
952288
1.1389e+06
1.36219e+06
1.6262e+06
1.93272e+06
333316
386822
452468
532892
631207
751064
896688
1.07286e+06
1.28468e+06
1.53684e+06
1.83178e+06
313894
364213
425869
501357
593640
706230
843282
1.00967e+06
1.21088e+06
1.45246e+06
1.73795e+06
295500
342823
400738
471615
558274
664098
793173
950454
1.14186e+06
1.37388e+06
1.65155e+06
277595
322016
376319
442751
523995
623302
744680
893152
1.07505e+06
1.29792e+06
1.56873e+06
259272
300737
351368
413288
489034
581718
695247
834689
1.00677e+06
1.22024e+06
1.48449e+06
239967
278332
325117
382315
452309
538048
643309
773159
934691
1.13796e+06
1.39553e+06
219709
254834
297605
349880
413871
492344
588908
708563
858687
1.05068e+06
1.30106e+06
198536
230284
268881
316041
373790
444683
532116
640936
778665
957949
1.20005e+06
176535
204784
239063
280936
332227
395254
473145
570489
694742
859488
1.09126e+06
153776
178406
208234
244663
289299
344194
412152
497382
606993
754916
972782
130689
151644
176976
207910
245821
292472
350295
422995
517006
645673
843891
111803
129739
151406
177867
210299
250216
299714
361999
442693
553709
728751
52067.9
56672
62194.1
67518.3
72546.8
77273.1
81689
85797.9
89605.2
93236.7
96870.1
100591
104257
107362
109648
111117
111774
111628
110680
108943
106431
103122
99174.9
95076.2
91168.7
87372.4
83513.7
79415.4
75042.5
70397.8
65485.4
60317.6
55445.3
51436
48086.9
70386.9
73322
76979.7
80630
84180.1
87601.3
90866
93958.1
96866.6
99675.6
102517
105453
108368
110842
112655
113793
114256
114042
113156
111610
109417
106579
103241
99819.9
96600.6
93513.3
90417.7
87180.2
83787.2
80257.8
76615.3
72891.6
69496.5
66787.3
64583.9
78720.5
81210.6
84261.3
87272.6
90182.9
92978.5
95643.2
98168
100546
102846
105177
107592
109995
112038
113535
114469
114834
114630
113859
112530
110656
108249
105429
102554
99860
97285.5
94711.5
92025.7
89215.2
86293.4
83274.4
80177.2
77333.6
75042.7
73159.4
83997.9
86324.3
89139.1
91887.5
94519.5
97028.6
99405.3
101646
103747
105774
107822
109938
112039
113821
115122
115930
116240
116051
115366
114191
112536
110411
107920
105377
102990
100705
98414
96016.7
93498.3
90867.2
88131.8
85304.4
82685.3
80558.2
78796.6
87490.9
89760.1
92485.2
95127.1
97640.5
100022
102266
104370
106335
108222
110123
112079
114014
115650
116841
117577
117858
117682
117051
115971
114450
112495
110199
107847
105633
103505
101366
99118.4
96746.6
94256.3
91652.9
88945.3
86420.3
84358
82642.6
89995.7
92251.4
94949.5
97554.9
100024
102356
104544
106590
108495
110319
112151
114032
115887
117452
118589
119292
119561
119396
118799
117776
116330
114469
112278
110026
107900
105851
103786
101609
99304.2
96876
94328
91667.4
89175.7
87133.7
85431
91839.7
94101.4
96801.3
99403.2
101864
104183
106355
108383
110267
112068
113874
115726
117550
119087
120204
120896
121165
121010
120435
119444
118039
116226
114087
111884
109799
107786
105752
103605
101326
98920.3
96389.7
93741
91254.1
89211.8
87506.2
93253.5
95529.6
98244.1
100857
103327
105651
107826
109854
111737
113537
115339
117186
119005
120537
121651
122345
122618
122473
121911
120937
119553
117763
115647
113463
111394
109393
107369
105229
102956
100552
98020
95366.1
92870.5
90818.4
89102.9
94374.4
96667.7
99402
102033
104518
106855
109042
111081
112972
114779
116589
118443
120269
121807
122928
123628
123909
123772
123219
122253
120878
119097
116987
114808
112741
110740
108715
106571
104293
101881
99338.3
96671.2
94161.1
92095.5
90367.4
95292.5
97603.6
100359
103010
105513
107867
110069
112121
114026
115845
117667
119533
121371
122921
124052
124761
125049
124919
124371
123410
122038
120257
118146
115963
113890
111884
109851
107699
105410
102986
100429
97745.9
95219.1
93138.8
91397.7
96067.6
98396
101172
103843
106365
108736
110954
113022
114940
116772
118608
120488
122341
123905
125047
125765
126061
125936
125392
124432
123058
121274
119157
116967
114886
112871
110828
108665
106363
103925
101353
98652.6
96108.8
94014
92260.3
96741.1
99085.7
101882
104571
107111
109500
111734
113816
115748
117594
119444
121339
123206
124784
125938
126665
126967
126847
126305
125344
123968
122178
120053
117853
115762
113737
111684
109509
107194
104742
102154
99436.6
96876.3
94767.7
93002
97342.4
99702.3
102517
105225
107781
110186
112436
114532
116478
118337
120200
122109
123992
125583
126747
127483
127791
127674
127133
126172
124791
122995
120860
118650
116549
114514
112450
110263
107935
105469
102866
100132
97555.7
95433.8
93657
97893.7
100268
103100
105825
108398
110818
113082
115193
117152
119023
120899
122822
124718
126322
127497
128240
128554
128440
127900
126936
125551
123747
121603
119383
117271
115225
113151
110952
108612
106131
103513
100764
98172.8
96038.5
94251.1
98412.3
100800
103649
106391
108979
111414
113693
115816
117788
119671
121560
123496
125405
127021
128206
128956
129275
129164
128623
127657
126267
124456
122303
120071
117950
115893
113807
111597
109245
106751
104119
101354
98748.4
96602.2
94804.7
98912.8
101314
104180
106937
109541
111990
114282
116419
118402
120298
122198
124147
126070
127697
128891
129649
129972
129863
129322
128354
126958
125139
122976
120734
118602
116535
114439
112218
109852
107345
104699
101919
99299.8
97141.9
95334.6
99408
101823
104705
107478
110096
112560
114866
117015
119011
120919
122831
124792
126728
128367
129570
130335
130662
130555
130014
129042
127642
125815
123641
121389
119246
117168
115061
112829
110451
107931
105270
102476
99842.2
97672.6
95855.5
99909.9
102339
105237
108026
110660
113138
115458
117620
119629
121548
123473
125447
127396
129046
130258
131030
131362
131256
130715
129740
128333
126498
124314
122050
119897
117808
115691
113446
111056
108522
105847
103037
100389
98207.9
96380.9
100430
102873
105788
108594
111244
113738
116072
118248
120269
122201
124138
126126
128088
129751
130972
131751
132087
131983
131441
130463
129050
127206
125011
122736
120570
118471
116342
114084
111681
109133
106444
103618
100955
98761.2
96923.9
100981
103439
106373
109196
111863
114373
116722
118913
120947
122892
124843
126845
128821
130497
131729
132515
132856
132754
132210
131228
129809
127956
125749
123461
121283
119172
117030
114760
112342
109780
107074
104232
101553
99345.9
97497.7
101576
104051
107004
109847
112532
115059
117425
119631
121680
123640
125605
127622
129614
131303
132546
133340
133686
133586
133041
132055
130628
128765
126546
124243
122053
119928
117773
115489
113056
110477
107754
104893
102197
99976.3
98116.2
102230
104722
107697
110561
113267
115813
118197
120421
122486
124461
126442
128476
130485
132189
133444
134246
134598
134500
133954
132963
131529
129654
127420
125103
122897
120759
118589
116289
113839
111242
108500
105620
102905
100668
98794.9
102959
105471
108471
111358
114086
116654
119059
121301
123385
125377
127376
129429
131457
133178
134446
135258
135616
135520
134972
133976
132533
130645
128396
126061
123839
121684
119498
117180
114712
112095
109332
106429
103692
101438
99550.7
103782
106318
109345
112259
115013
117605
120032
122297
124401
126413
128432
130506
132556
134296
135579
136402
136766
136672
136123
135121
133667
131765
129497
127143
124902
122729
120524
118187
115697
113057
110270
107341
104581
102307
100403
104723
107285
110343
113288
116071
118691
121145
123434
125561
127596
129639
131737
133811
135573
136873
137708
138079
137988
137437
136427
134962
133043
130754
128378
126115
123921
121695
119334
116820
114154
111339
108382
105594
103297
101374
105808
108400
111495
114475
117292
119944
122428
124746
126900
128961
131030
133156
135259
137045
138365
139213
139593
139505
138950
137932
136452
134514
132200
129798
127511
125292
123041
120654
118111
115415
112568
109577
106758
104435
102491
107070
109698
112834
115856
118711
121401
123920
126271
128456
130548
132647
134805
136940
138755
140097
140961
141350
141264
140706
139678
138181
136219
133877
131444
129128
126881
124600
122182
119606
116875
113991
110961
108105
105752
103782
108547
111216
114402
117471
120372
123105
125665
128055
130276
132403
134538
136733
138905
140753
142120
143002
143401
143318
142754
141713
140196
138206
135830
133362
131011
128730
126415
123961
121346
118574
115647
112571
109671
107283
105283
110286
113003
116246
119371
122326
125109
127717
130152
132416
134583
136759
138997
141212
143098
144493
145395
145805
145724
145154
144097
142555
140532
138115
135604
133212
130892
128537
126039
123379
120558
117579
114450
111500
109070
107035
112342
115115
118427
121617
124634
127477
130141
132628
134941
137155
139379
141666
143931
145860
147288
148212
148634
148554
147974
146897
145325
143261
140796
138233
135793
133425
131022
128474
125759
122881
119842
116649
113639
111160
109085
114782
117622
121013
124280
127371
130283
133012
135560
137929
140199
142478
144822
147144
149121
150586
151534
151967
151886
151293
150191
148582
146469
143944
141321
138822
136398
133938
131329
128551
125605
122494
119226
116146
113610
111486
117688
120605
124089
127447
130623
133616
136420
139039
141475
143807
146150
148560
150946
152978
154482
155456
155899
155815
155203
154069
152413
150240
147645
144947
142379
139887
137359
134679
131824
128798
125603
122247
119084
116479
114299
121155
124163
127757
131220
134495
137582
140474
143174
145686
148091
150506
152989
155447
157539
159086
160085
160537
160444
159808
158631
156918
154671
151989
149203
146551
143979
141370
138605
135660
132538
129244
125783
122522
119837
117590
125300
128415
132136
135721
139111
142305
145298
148091
150689
153175
155671
158236
160774
162929
164520
165543
165999
165891
165219
163989
162203
159865
157078
154186
151434
148766
146061
143195
140143
136909
133497
129914
126538
123759
121434
130264
133502
137368
141093
144614
147930
151037
153935
156628
159205
161790
164443
167065
169287
170920
171962
172414
172279
171560
170260
168383
165934
163020
159999
157128
154347
151528
148542
145365
142000
138450
134723
131213
128324
125907
136207
139585
143618
147500
151168
154620
157852
160864
163662
166335
169014
171761
174467
176753
178423
179475
179911
179735
178949
177560
175570
172984
169917
166745
163733
160817
157865
154740
151416
147898
144188
140295
136629
133613
131091
143315
146850
151066
155121
158949
162548
165913
169047
171953
174726
177500
180337
183124
185463
187157
188204
188606
188368
187494
185989
183859
181109
177860
174508
171331
168261
165154
161868
158375
154681
150787
146704
142860
139699
137056
151851
155553
159963
164199
168192
171942
175443
178697
181709
184577
187439
190357
193209
195583
197279
198295
198636
198307
197312
195660
193355
190405
186937
183374
180005
176753
173468
169998
166313
162418
158317
154019
149977
146653
143873
162155
166024
170625
175038
179190
183080
186705
190067
193171
196119
199052
202028
204917
207294
208957
209906
210147
209688
208535
206696
204177
200985
197260
193449
189856
186397
182908
179228
175326
171207
166874
162337
158073
154570
151642
174103
178126
182901
187469
191756
195764
199488
202933
206103
209104
212075
215073
217955
220291
221878
222720
222824
222196
220845
218781
216012
212545
208532
204449
200615
196932
193225
189320
185186
180827
176246
171455
166957
163262
160176
183489
187674
192630
197362
201794
205927
209757
213291
216535
219596
222615
225645
228535
230842
232367
233113
233089
232303
230765
228485
225473
221737
217439
213085
209006
205095
201165
197030
192657
188052
183219
178169
173432
169546
166301
190997
195317
200427
205300
209856
214097
218021
221635
224945
228060
231125
234186
237083
239365
240830
241484
241338
240402
238685
236201
232958
228966
224397
219784
215473
211348
207207
202857
198265
193434
188372
183092
178148
174096
170717
196676
201108
206345
211331
215988
220318
224318
227996
231359
234517
237614
240694
243591
245842
247249
247818
247561
246488
244611
241943
238494
234274
229463
224620
220103
215786
211459
206921
202135
197109
191851
186375
181258
177071
173582
200800
205313
210641
215709
220438
224830
228884
232607
236005
239190
242305
245394
248279
250496
251845
252335
251976
250782
248763
245935
242307
237890
232871
227830
223135
218656
214170
209472
204526
199340
193926
188299
183053
178767
175201
203497
208062
213448
218567
223340
227770
231854
235600
239015
242211
245331
248413
251277
253454
254747
255163
254716
253417
251280
248319
244544
239967
234781
229581
224746
220137
215529
210708
205641
200339
194816
189089
183761
179416
175805
204874
209463
214873
220013
224803
229245
233337
237087
240502
243694
246803
249865
252698
254832
256070
256420
255898
254515
252285
249223
245339
240645
235338
230027
225093
220396
215705
210805
205664
200295
194714
188941
183580
179214
175589
204966
209552
214957
220090
224871
229301
233381
237117
240515
243688
246773
249806
252599
254684
255871
256166
255585
254140
251844
248713
244760
239995
234619
229246
224260
219519
214788
209853
204684
199295
193705
187932
182578
178221
174604
203753
208311
213683
218782
223529
227927
231975
235678
239046
242186
245237
248230
250977
253016
254156
254407
253783
252297
249963
246797
242813
238021
232626
227242
222249
217504
212775
207846
202688
197319
191756
186018
180701
176377
172789
201145
205653
210964
216006
220698
225044
229043
232700
236024
239122
242129
245075
247774
249768
250871
251091
250442
248937
246591
243422
239442
234665
229294
223941
218980
214269
209575
204686
199572
194253
188745
183069
177814
173542
170000
196987
201422
206651
211614
216232
220511
224446
228047
231318
234368
237327
240225
242879
244836
245912
246117
245462
243961
241630
238485
234540
229810
224500
219213
214318
209669
205038
200214
195170
189924
184495
178904
173734
169534
166054
191043
195386
200513
205381
209914
214114
217981
221521
224740
227742
230658
233517
236138
238075
239146
239356
238718
237245
234951
231854
227969
223313
218088
212891
208081
203515
198966
194228
189272
184118
178786
173300
168233
164123
160720
182981
187219
192232
197000
201445
205572
209378
212867
216047
219018
221911
224756
227377
229330
230429
230679
230088
228669
226436
223406
219595
215023
209892
204790
200071
195594
191134
186489
181631
176577
171351
165979
161027
157017
153702
172327
176459
181367
186051
190433
194515
198294
201772
204953
207938
210859
213750
216438
218474
219662
220002
219501
218168
216016
213063
209327
204828
199772
194743
190095
185687
181299
176732
171956
166991
161857
156587
151741
147828
144600
158374
162432
167290
171959
176356
180480
184323
187882
191160
194257
197311
200363
203243
205480
206857
207369
207017
205810
203758
200879
197192
192723
187679
182655
178009
173606
169227
164675
159921
154983
149885
144661
139872
136021
132858
139996
144107
149092
153942
158559
162933
167045
170887
174453
177850
181229
184646
187925
190548
192264
193061
192939
191904
189965
187140
183449
178917
173763
168603
163820
159283
154770
150082
145192
140122
134898
129558
124683
120785
117603
115360
119920
125543
131090
136420
141502
146304
150807
155000
159008
163014
167091
171051
174296
176530
177744
177940
177126
175309
172508
168736
164018
158575
153068
147924
143016
138112
132995
127641
122077
116333
110458
105098
100831
97373.3
81159.1
87837.8
95765.6
103351
110457
117089
123243
128933
134172
139135
144064
149064
153928
157965
160838
162555
163129
162571
160893
158105
154215
149232
143372
137341
131625
126095
120494
114561
108247
101554
94484.7
87053.1
80042.7
74269.2
69446
734472
851808
983033
1.10363e+06
1.21433e+06
1.31707e+06
1.41311e+06
1.5035e+06
1.58903e+06
1.67306e+06
1.76064e+06
1.85566e+06
1.95781e+06
2.05659e+06
2.14437e+06
2.22039e+06
2.28385e+06
2.33386e+06
2.36933e+06
2.38907e+06
2.39177e+06
2.3759e+06
2.34102e+06
2.29259e+06
2.23793e+06
2.17804e+06
2.111e+06
2.03316e+06
1.94253e+06
1.83725e+06
1.71472e+06
1.57125e+06
1.41822e+06
1.27682e+06
1.1456e+06
556006
649423
760350
866535
966505
1.06063e+06
1.14918e+06
1.23261e+06
1.31133e+06
1.38824e+06
1.46775e+06
1.55305e+06
1.64333e+06
1.72878e+06
1.80276e+06
1.86473e+06
1.91408e+06
1.95009e+06
1.97187e+06
1.97841e+06
1.96858e+06
1.941e+06
1.89577e+06
1.83913e+06
1.77829e+06
1.71367e+06
1.64303e+06
1.56278e+06
1.47146e+06
1.36818e+06
1.25199e+06
1.12208e+06
992119
880245
783669
442837
518049
609115
697939
782900
863903
940815
1.01372e+06
1.08275e+06
1.15026e+06
1.21995e+06
1.2944e+06
1.37254e+06
1.44544e+06
1.50729e+06
1.55757e+06
1.59579e+06
1.62137e+06
1.6336e+06
1.63168e+06
1.61473e+06
1.58171e+06
1.53327e+06
1.47595e+06
1.41643e+06
1.35484e+06
1.28899e+06
1.21584e+06
1.13452e+06
1.04486e+06
946812
840568
737857
651930
579366
360528
421997
496974
570696
641761
709989
775154
837210
896152
953895
1.01353e+06
1.07713e+06
1.14355e+06
1.2049e+06
1.25612e+06
1.29671e+06
1.32624e+06
1.34423e+06
1.35015e+06
1.3434e+06
1.32338e+06
1.28941e+06
1.24251e+06
1.18902e+06
1.13484e+06
1.07986e+06
1.02209e+06
958976
890006
815283
734998
649541
568344
501283
445165
296950
347667
409717
470946
530182
587250
641924
694121
743791
792503
842818
896416
952185
1.00331e+06
1.04542e+06
1.07808e+06
1.10089e+06
1.11349e+06
1.11545e+06
1.1064e+06
1.08593e+06
1.05365e+06
1.01078e+06
963107
915679
868237
818990
765822
708387
646859
581467
512580
447745
394557
350253
246390
288508
340100
391085
440487
488153
533881
577586
619205
660031
702186
747031
793543
835903
870417
896679
914364
923177
922820
913041
893600
864309
826407
785014
744353
704090
662653
618277
570707
520117
466718
410817
358499
315745
280227
205595
240756
283841
326439
367735
407599
445857
482429
517257
551410
586648
624078
662784
697836
726130
747315
761123
767326
765711
756122
738428
712557
679687
644246
609746
575825
541121
504160
464740
423018
379171
333449
290806
256039
227202
172437
201939
238084
273819
308462
341900
373988
404656
433849
462460
491951
523228
555485
584555
607840
625043
635946
640375
638179
629265
613569
591083
562877
532737
503581
475054
445986
415138
382349
347750
311491
273773
238668
210089
186405
145383
170264
200740
230865
260061
288236
315265
341087
365655
389718
414499
440745
467751
491996
511299
525413
534163
537415
535061
527049
513351
493991
469913
444338
419700
395668
371241
345376
317937
289037
258796
227383
198180
174423
154745
123233
144334
170176
195718
220469
244351
267256
289132
309938
330306
351267
373445
396229
416629
432807
444557
451737
454244
451998
444971
433156
416587
396080
374371
353502
333178
312543
290712
267569
243208
217728
191269
166681
146682
130121
104964
122961
145018
166832
187978
208383
227954
246646
264420