/*--------------------------------*- C++ -*----------------------------------*\
| =========                 |                                                 |
| \\      /  F ield         | OpenFOAM: The Open Source CFD Toolbox           |
|  \\    /   O peration     | Version:  2406                                  |
|   \\  /    A nd           | Website:  www.openfoam.com                      |
|    \\/     M anipulation  |                                                 |
\*---------------------------------------------------------------------------*/
FoamFile
{
    version     2.0;
    format      ascii;
    arch        "LSB;label=32;scalar=64";
    class       volScalarField;
    location    "0/fluidRegion";
    object      Re;
}
// * * * * * * * * * * * * * * * * * * * * * * * * * * * * * * * * * * * * * //

dimensions      [0 0 0 0 0 0 0];

internalField   nonuniform List<scalar> 
8595
(
9513.4
171634
235021
302547
341401
357034
339896
301000
248228
189864
132117
77585.4
33182
16906.1
37195.4
99078.9
92908.5
275248
7455.39
11164.9
11372.4
11243.2
11300.2
11319.5
11278.7
11224.4
11173
11126.6
11086.3
11052.9
11026.6
11006.5
10992
10982.2
10976.2
10973.3
10972.6
10973.6
10975.5
10977.7
10979.5
10980.1
10978.5
10973.3
10962.8
10944.4
10914.3
10866.7
10792.9
10680.4
10505.3
10253.8
9789.21
9441.59
7237.41
219040
9610.4
51654.4
149158
192235
245481
273636
280470
258533
217996
166123
111291
59550.8
27624.5
49316.4
85741.1
110592
162025
179277
338540
7793.87
11345
11539.1
11456.6
11549.3
11598.1
11584.7
11554.2
11523.4
11494.6
11469.2
11448.6
11432.9
11422
11415
11411.5
11410.7
11412.1
11414.9
11418.6
11422.7
11426.5
11429.5
11430.8
11429.6
11424.6
11414.1
11395.5
11365.1
11317.3
11243.6
11131.8
10958.4
10710.8
10254.5
9940.54
7770.04
285902
83651.4
67646.5
128429
148441
186874
203699
200711
173951
133960
88111.2
52191.2
53940.1
84551
116910
149668
174396
220296
243386
387494
8124.26
11533.1
11612.1
11507.7
11595.5
11643.5
11633.5
11608.1
11582.3
11558.1
11536.7
11519.4
11506.4
11497.4
11492
11489.6
11489.5
11491.1
11494
11497.6
11501.4
11504.8
11507.3
11508.2
11506.6
11501.3
11490.7
11472.5
11443.1
11397.4
11327.3
11221.6
11058.4
10827.9
10398
10147
8039.51
324112
140020
84951.1
117237
110091
128117
127582
108989
80749.9
61091.7
70576.4
100923
135757
168271
196439
223640
245230
284850
305817
435825
8504.94
11805.4
11745.3
11588.8
11655
11689.1
11671
11641.1
11612.8
11586.9
11564.4
11546.3
11532.7
11523.1
11517
11513.9
11513.1
11514.1
11516.3
11519.2
11522.3
11525
11526.9
11527.2
11525.3
11519.8
11509.4
11491.9
11463.9
11420.7
11354.9
11256.3
11104.7
10894.1
10493.3
10309
8254.68
357652
208306
94613.5
110699
80603.9
71185.3
41487.8
23306.2
74880
124520
169261
207404
239710
266610
288395
308774
324837
356526
369686
483008
8911.28
12138.2
11931.4
11702.2
11736.8
11750.4
11718.4
11679.6
11645.3
11615.1
11589.6
11569
11553.4
11542.3
11534.8
11530.4
11528.5
11528.4
11529.6
11531.6
11534
11536
11537.4
11537.3
11535.1
11529.7
11519.8
11503.1
11476.9
11436.8
11376
11285.6
11146.9
10958.6
10589.6
10474.4
8469.34
391553
278783
98097.2
107069
71538
49132.8
71083
139647
204172
258131
301388
334823
360098
378990
392632
404684
413029
434762
435938
529541
9329.23
12507.3
12154.4
11840.8
11838.2
11828.2
11778.8
11728.3
11686
11649.9
11619.8
11595.7
11577.2
11563.6
11554.1
11547.9
11544.5
11543
11543
11543.9
11545.3
11546.6
11547.3
11546.8
11544.4
11539.2
11529.8
11514.4
11490.4
11453.9
11399.1
11318.3
11194.9
11032.2
10699.4
10658.8
8706.73
428841
351545
96922.5
104526
93932
122309
211797
295707
364080
415869
453090
478405
494364
503480
507403
509635
508276
517999
503902
574827
9744.61
12891.5
12397.7
11994.6
11952.3
11916.9
11848.2
11784.7
11733.1
11690.1
11654.7
11626.4
11604.5
11588
11576.1
11567.8
11562.5
11559.4
11558
11557.7
11558
11558.4
11558.3
11557.4
11554.8
11549.7
11541
11527
11505.6
11473.3
11425.3
11355.5
11249.5
11115.7
10823.8
10866.7
8977.2
470826
427368
87441.1
107606
160138
270008
391096
482002
547450
591448
618497
632725
637437
635468
628584
619922
607326
603335
571522
617392
10144
13270.4
12643.4
12152.3
12071.4
12009.6
11920.9
11843.8
11782.7
11732.5
11691.6
11658.9
11633.5
11614
11599.5
11589.1
11581.8
11577.1
11574.1
11572.6
11571.7
11571.2
11570.4
11569
11566.2
11561.3
11553.4
11541.1
11522.5
11495
11454.6
11397.1
11310.2
11208.4
10961.7
11098.7
9282.77
517436
506914
80872.9
166544
345341
500650
616620
695621
745729
773714
785483
785817
778106
764871
747378
727982
703769
685432
634823
654590
10513.7
13623.6
12870.3
12300
12184.1
12096.6
11989.4
11899.8
11829.7
11772.9
11726.8
11690.2
11661.4
11639.3
11622.5
11609.9
11600.9
11594.6
11590.3
11587.4
11585.5
11584.1
11582.7
11580.9
11578
11573.5
11566.5
11556.1
11540.6
11518.2
11486.1
11441.6
11375.2
11307.9
11110.3
11355
9632.46
570050
592281
86605.6
479072
670473
789590
867645
912913
933923
937777
930188
915389
895954
873391
847787
820192
786339
755420
687788
683098
10842.7
13936.5
13059.2
12427.4
12278.3
12165.9
12042.7
11942.8
11865.9
11804.1
11754.5
11715.1
11684.1
11660.1
11641.7
11627.7
11617.5
11610
11604.6
11600.9
11598.2
11596.2
11594.4
11592.3
11589.5
11585.6
11579.8
11571.5
11559.5
11542.8
11519.6
11489.3
11444.7
11413.7
11266.1
11628.2
9989.56
622894
682370
709973
597555
496912
408296
327229
252435
182812
118071
67424.2
5738.26
652862
591822
532659
483888
442171
406663
374220
339294
293073
210413
10528.4
10114.8
9732.65
9417.8
9152.24
8927.16
8723.58
8507.23
8203.8
7590.5
12243.3
11921.2
11641.4
11400.8
11195.9
11021.1
10867.1
10711.3
10485.9
9900.12
11773.2
11603
11450.6
11314.7
11198.3
11100.6
11017.3
10930
10768.1
10205.5
11840.6
11735.5
11642.3
11558.8
11487.3
11427.4
11376
11317
11180.6
10623
11811.3
11750.7
11696.8
11648.3
11606.9
11572.3
11541.6
11500.3
11378.9
10822.1
11805.8
11771.3
11740.4
11712.7
11689.2
11669.3
11650.6
11619.2
11506.1
10949.3
11797
11778.7
11762.1
11747.3
11734.8
11724.1
11712.6
11687.1
11578.4
11021.1
11789.2
11780.8
11773.1
11766.4
11760.6
11755.6
11748.5
11726.4
11620.2
11062.1
11781.7
11779.7
11777.5
11775.7
11774.3
11772.8
11768.5
11748.3
11643.3
11084.5
11775
11776.9
11778.3
11779.7
11781
11781.8
11779.3
11760.3
11655.8
11096.4
11769
11773.6
11777.2
11780.7
11783.8
11786.2
11784.9
11766.5
11662.3
11102.5
11763.9
11770.1
11775.3
11780.2
11784.6
11788.1
11787.6
11769.8
11665.6
11105.8
11759.4
11766.9
11773.1
11779
11784.4
11788.7
11788.9
11771.4
11667.6
11108.1
11755.5
11763.8
11770.8
11777.5
11783.7
11788.7
11789.5
11772.4
11669
11110.4
11751.7
11760.8
11768.4
11775.8
11782.6
11788.3
11789.8
11773.1
11670.4
11113.2
11748
11757.6
11765.7
11773.7
11781.2
11787.5
11789.6
11773.6
11671.9
11116.9
11743.9
11754
11762.6
11771.1
11779.1
11786.2
11789
11773.7
11673.4
11121.4
11739
11749.6
11758.5
11767.5
11776.2
11783.9
11787.6
11773.2
11674.9
11126.8
11733
11743.9
11753.2
11762.6
11771.8
11780.3
11784.8
11771.7
11675.8
11132.7
11725.2
11736.3
11745.8
11755.6
11765.4
11774.7
11780.2
11768.5
11675.7
11138.9
11714.9
11726.1
11735.8
11745.9
11756.3
11766.3
11772.9
11762.9
11673.8
11144.9
11701.5
11712.5
11722.1
11732.4
11743.2
11754.1
11762
11753.8
11669.2
11149.8
11684
11694.5
11703.7
11713.9
11725.1
11736.7
11745.9
11740
11660.7
11152.8
11661.2
11670.6
11679.1
11689
11700.3
11712.5
11723.1
11719.7
11646.4
11152.5
11631.6
11639.3
11646.6
11655.5
11666.6
11679.4
11691.4
11690.7
11624.2
11147.1
11593.5
11598.5
11603.7
11611.1
11621.5
11634.5
11647.8
11650.2
11591.3
11133.9
11544.9
11545.7
11547.7
11552.5
11561.4
11574.2
11588.6
11594.3
11543.9
11109.5
11483
11477.7
11474.8
11475.7
11482
11493.7
11508.9
11517.9
11477
11069.1
11404.6
11390.2
11380.2
11375
11377.1
11386.6
11401.8
11414
11383.4
11006.1
11306
11278.3
11257.8
11243.5
11238.9
11244.3
11258.4
11273.4
11253.9
10911.4
11183.9
11137.4
11101.4
11073.8
11058.6
11057.1
11068.2
11085.1
11077.3
10774.5
11036.7
10962.9
10903.9
10855.9
10824.2
10810.8
10815.2
10832.2
10836
10578.1
10846.5
10731.9
10638.9
10560.8
10503.5
10470.6
10462.3
10474.8
10488.2
10279.6
10587.2
10415.8
10274.5
10153.8
10059.6
9997.29
9968.63
9971.86
9993.73
9840.24
10466.2
10223.9
10004.5
9807.61
9644.11
9524.77
9456.28
9441.41
9474.15
9392.06
10753.1
10366.2
10009.9
9681.97
9390.14
9147.87
8968.06
8862.65
8840.56
8799.32
8435.09
7979.53
7538.21
7130.05
6752.06
6406.54
6101.99
5852.96
5688.8
5560.03
500688
470792
435451
397426
357507
315628
271654
225706
183995
135542
395871
355626
313185
270139
226638
182156
136453
91723.5
76575.9
123748
319588
271670
224307
179099
136785
99964
80039.9
90403.5
125045
176413
238082
186271
138344
98759.1
76958.7
84708.9
112051
146585
185067
229465
178478
124039
77106.1
50845.5
65870.8
100353
137569
174413
211523
251296
131741
76075.4
31419.4
39077.3
78217.1
117357
154403
189592
224194
259882
103722
48670.1
3342.34
45687.7
86195.4
123493
158229
191015
223053
255106
86296.7
36196.5
16265.6
52186
88340.7
122258
154113
184286
213763
242623
77538.1
34874.9
24759.3
53589.4
85411
115936
144882
172428
199375
225347
71886.1
35343.1
28898.9
52393.6
80050.5
107151
133117
157955
182319
205515
67822.6
36067.1
30584.5
49418.8
73157.4
96948.4
119985
142132
163914
184400
64396.1
36582
31049.8
45488.4
65384.4
85911.3
106054
125523
144736
162552
60792.6
36795.2
31299.3
41621.6
57631.5
74855.6
92092.3
108876
125540
140708
57178.8
37126.9
31475.1
37591.6
49428
63141
77346.5
91347.4
105434
117937
52556.6
37365.6
32749.7
35644.1
43213.6
53041.1
63886.4
74813.3
86181.3
95917.5
47295.5
37438.7
33764.7
33740.3
36582.6
41510.1
47961.6
54828.1
62906
69281.8
42868.9
41447.8
41082.5
40806.3
40314.1
39997.4
40572.8
41228
44632
47225.9
23391.7
27239.9
29158.2
29208.6
27843.6
24777.8
21252.8
14992.6
11657.2
1077.04
1.09086e+06
829693
739499
680402
648202
636429
643701
665387
702436
798597
1.01682e+06
1.12181e+06
926030
848735
798147
771334
762095
768364
787249
821149
906575
1.0717e+06
1.12115e+06
975572
909265
865463
842337
834402
839678
855864
886114
961147
1.09379e+06
1.11267e+06
1.00647e+06
950282
912509
892513
886020
891367
906627
935164
1.00116e+06
1.10713e+06
1.10634e+06
1.02837e+06
981181
948746
931469
926360
932143
947285
975084
1.03336e+06
1.1181e+06
1.10333e+06
1.04515e+06
1.00583e+06
978328
963761
960175
966613
981842
1.00893e+06
1.0607e+06
1.12937e+06
1.10261e+06
1.05929e+06
1.02705e+06
1.00422e+06
992354
990345
997504
1.01278e+06
1.03895e+06
1.08496e+06
1.1411e+06
1.10324e+06
1.07176e+06
1.04603e+06
1.02765e+06
1.01847e+06
1.01804e+06
1.02591e+06
1.04124e+06
1.06634e+06
1.10723e+06
1.15353e+06
1.10428e+06
1.08278e+06
1.0632e+06
1.04914e+06
1.04263e+06
1.04379e+06
1.05234e+06
1.06768e+06
1.09164e+06
1.12804e+06
1.16659e+06
1.10489e+06
1.09219e+06
1.07859e+06
1.06887e+06
1.06512e+06
1.06789e+06
1.07716e+06
1.09248e+06
1.11524e+06
1.14767e+06
1.17999e+06
1.10435e+06
1.09973e+06
1.09223e+06
1.08718e+06
1.08655e+06
1.09121e+06
1.10134e+06
1.11666e+06
1.1382e+06
1.16693e+06
1.19385e+06
1.10197e+06
1.105e+06
1.10386e+06
1.10399e+06
1.107e+06
1.11395e+06
1.12515e+06
1.14046e+06
1.16059e+06
1.18566e+06
1.20765e+06
1.09692e+06
1.1071e+06
1.11244e+06
1.11815e+06
1.12538e+06
1.13513e+06
1.14772e+06
1.16309e+06
1.18169e+06
1.20309e+06
1.22048e+06
1.08838e+06
1.10493e+06
1.11634e+06
1.12744e+06
1.13885e+06
1.15144e+06
1.16549e+06
1.18097e+06
1.19811e+06
1.21627e+06
1.22992e+06
1.07684e+06
1.09855e+06
1.11503e+06
1.13076e+06
1.14589e+06
1.1611e+06
1.1766e+06
1.19237e+06
1.20847e+06
1.22418e+06
1.23512e+06
1.06335e+06
1.08904e+06
1.10959e+06
1.12915e+06
1.14745e+06
1.16496e+06
1.18184e+06
1.19804e+06
1.21347e+06
1.22746e+06
1.23658e+06
1.04852e+06
1.07736e+06
1.10121e+06
1.12393e+06
1.1449e+06
1.16442e+06
1.18255e+06
1.19922e+06
1.21426e+06
1.22709e+06
1.23502e+06
1.03284e+06
1.06429e+06
1.09085e+06
1.11621e+06
1.13943e+06
1.16066e+06
1.17989e+06
1.19703e+06
1.21185e+06
1.22389e+06
1.23108e+06
1.01665e+06
1.05039e+06
1.07927e+06
1.10687e+06
1.13199e+06
1.15466e+06
1.17481e+06
1.19235e+06
1.20707e+06
1.21857e+06
1.22528e+06
1.00019e+06
1.03609e+06
1.06705e+06
1.09661e+06
1.12336e+06
1.14725e+06
1.16816e+06
1.18602e+06
1.20067e+06
1.21176e+06
1.21814e+06
983603
1.02171e+06
1.05461e+06
1.08596e+06
1.11414e+06
1.13906e+06
1.16059e+06
1.17869e+06
1.19326e+06
1.20403e+06
1.21016e+06
967000
1.00752e+06
1.04231e+06
1.07536e+06
1.10481e+06
1.13061e+06
1.15265e+06
1.17093e+06
1.1854e+06
1.1959e+06
1.20183e+06
950479
993789
1.0305e+06
1.0652e+06
1.09582e+06
1.12238e+06
1.14482e+06
1.1632e+06
1.17757e+06
1.18783e+06
1.19359e+06
934539
981111
1.01976e+06
1.0561e+06
1.08778e+06
1.11501e+06
1.13777e+06
1.15623e+06
1.1705e+06
1.18058e+06
1.1862e+06
920410
970423
1.01088e+06
1.04873e+06
1.08131e+06
1.10907e+06
1.13207e+06
1.15057e+06
1.16475e+06
1.17469e+06
1.18021e+06
907724
961329
1.00348e+06
1.04271e+06
1.07607e+06
1.10426e+06
1.12744e+06
1.14594e+06
1.16004e+06
1.16986e+06
1.17532e+06
895582
953095
996953
1.03748e+06
1.07154e+06
1.10011e+06
1.12342e+06
1.14193e+06
1.15593e+06
1.16567e+06
1.1711e+06
883011
945025
990716
1.03257e+06
1.06731e+06
1.09621e+06
1.11965e+06
1.13813e+06
1.15206e+06
1.16173e+06
1.16716e+06
868936
936446
984241
1.02753e+06
1.06298e+06
1.09224e+06
1.1158e+06
1.13428e+06
1.14813e+06
1.15775e+06
1.16324e+06
852334
926705
977010
1.02193e+06
1.0582e+06
1.08786e+06
1.11157e+06
1.13007e+06
1.14388e+06
1.15349e+06
1.15909e+06
831355
914455
967923
1.01484e+06
1.05214e+06
1.08235e+06
1.10634e+06
1.12493e+06
1.13876e+06
1.14844e+06
1.15426e+06
802420
896728
954386
1.00399e+06
1.04283e+06
1.07396e+06
1.0985e+06
1.11743e+06
1.13144e+06
1.14134e+06
1.14756e+06
758130
866397
929631
983131
1.02451e+06
1.05742e+06
1.08322e+06
1.10306e+06
1.11773e+06
1.12824e+06
1.13529e+06
679102
802568
872055
930801
976308
1.01261e+06
1.04125e+06
1.0635e+06
1.08021e+06
1.09256e+06
1.10182e+06
516626
646524
716246
776970
824632
863471
894945
920273
940265
956207
970158
767619
829719
869233
903199
928839
943415
948046
944764
935380
920458
899579
872028
838845
805604
774885
748574
727741
713378
706235
706981
731837
774039
824775
879612
929137
971639
1.00633e+06
1.03326e+06
1.04966e+06
1.05201e+06
1.03652e+06
999562
942582
884895
818755
659322
691309
709663
720356
725913
727357
725625
721560
716015
709428
701787
692570
681283
669223
658135
649285
642970
639129
637396
636315
641727
652928
665994
679357
691779
703636
715147
726091
735671
742853
745956
742590
731966
715612
689096
10266.1
10525.4
10763.9
10965.5
11130.2
11264
11371.4
11457
11524.9
11574.3
11606.1
11621.2
11627.4
11638.9
11644.7
11644.5
11637.2
11621.6
11596.2
11572
11601.1
11664.7
11726.3
11793.2
11841.2
11868.1
11870.3
11854.4
11817.4
11752.7
11651
11502.2
11311.4
11090.8
10841.9
11762.4
11937.8
12103.7
12256.5
12397.5
12527.2
12645.9
12753.9
12851.6
12943.6
13032.6
13119.1
13199.4
13265.1
13316.6
13355.6
13383.6
13402.3
13413.5
13420.1
13427.4
13430.6
13422
13399.6
13364.4
13318.2
13262
13193.3
13111
13014.5
12903.2
12775.9
12634.1
12500.8
12373.7
11349.4
11442.9
11537
11627
11713.2
11795.6
11874.1
11948.5
12018.8
12088.1
12159.4
12234.4
12310.2
12377
12432.7
12477.9
12512.8
12537.9
12553.7
12559.4
12554.8
12539.2
12511.9
12475.9
12436.8
12395.4
12351.1
12301.7
12246.5
12185.7
12119.6
12048.4
11976
11911.7
11850.3
11470.1
11531.4
11593
11652.6
11710.4
11766.3
11820.1
11871.6
11920.8
11969.7
12020.4
12074.6
12130.6
12181.5
12225.1
12260.9
12289.2
12309.9
12323.1
12328.9
12326.1
12314.9
12296.3
12272.2
12246.5
12219.5
12191.1
12159.7
12125.1
12087.4
12047
12004.1
11961.1
11923.8
11888.6
11482.7
11521.5
11561.7
11601.2
11640
11677.9
11714.8
11750.5
11785
11819.9
11856.6
11896.5
11938.8
11978.2
12012.5
12041.6
12065.1
12083
12095.3
12101.8
12101.7
12095.2
12083.6
12068.1
12051.7
12034.7
12016.9
11997.6
11976.5
11953.9
11929.8
11904.4
11879.3
11858.4
11839.6
11515.9
11541.6
11569
11596.1
11622.8
11648.9
11674.4
11699.2
11723.2
11747.6
11773.6
11802.1
11832.7
11861.8
11887.8
11910.1
11928.9
11943.8
11954.8
11961.9
11964.9
11963.3
11957.7
11949.8
11941
11931.7
11921.9
11911
11899.2
11886.4
11872.7
11858.2
11843.9
11832
11821.9
11538.7
11556.3
11575.4
11594.4
11613
11631.3
11649.2
11666.6
11683.6
11700.8
11719.3
11739.9
11762.2
11783.9
11803.6
11821
11836.1
11848.7
11858.7
11866.1
11871
11872.9
11871.8
11869
11865.3
11861.1
11856.5
11851.2
11845.3
11838.8
11831.7
11824.1
11816.4
11810.1
11805.1
11557
11569.5
11583.3
11597
11610.4
11623.5
11636.2
11648.6
11660.7
11673.1
11686.4
11701.3
11717.8
11734.1
11749.2
11763
11775.3
11786
11795.2
11802.7
11808.6
11812.9
11815.1
11815.5
11815.2
11814.3
11813.1
11811.4
11809.3
11806.8
11803.9
11800.7
11797.2
11794.3
11792.1
11570.5
11579.8
11590.2
11600.4
11610.4
11619.9
11629.2
11638.2
11647
11656
11665.7
11676.7
11689.1
11701.6
11713.4
11724.5
11734.8
11744.2
11752.6
11760.1
11766.6
11772.1
11776.4
11779.4
11781
11782.2
11783.1
11783.8
11784.1
11784.1
11783.9
11783.4
11782.5
11781.8
11781.4
11580.4
11587.6
11595.9
11603.8
11611.4
11618.6
11625.5
11632.2
11638.7
11645.3
11652.6
11660.9
11670.4
11680.2
11689.7
11698.9
11707.6
11716
11723.8
11731.1
11738
11744.2
11749.7
11754.1
11757.4
11760
11762.2
11764.2
11766.1
11767.8
11769.2
11770.5
11771.2
11771.8
11772.5
11587.5
11593.4
11600.3
11606.7
11612.7
11618.4
11623.7
11628.7
11633.6
11638.6
11644.1
11650.5
11657.9
11665.7
11673.6
11681.3
11689
11696.5
11703.9
11711.1
11718
11724.8
11731
11736.2
11740.4
11744
11747.2
11750.1
11753
11755.7
11758.2
11760.6
11762.4
11763.8
11765.2
11592.5
11597.7
11603.6
11609
11614
11618.5
11622.7
11626.6
11630.4
11634.2
11638.4
11643.4
11649.3
11655.7
11662.3
11669
11675.9
11682.8
11689.8
11696.8
11703.8
11710.8
11717.5
11723.3
11728
11732.1
11736
11739.7
11743.1
11746.5
11749.8
11752.8
11755.3
11757.3
11759.1
11596.1
11600.8
11606.1
11611
11615.2
11618.9
11622.3
11625.3
11628.2
11631.1
11634.4
11638.3
11643
11648.4
11654
11660
11666.2
11672.7
11679.3
11686.1
11693.2
11700.3
11707.3
11713.5
11718.7
11723.2
11727.4
11731.5
11735.5
11739.3
11743.1
11746.6
11749.5
11751.8
11754
11598.6
11603.1
11608.1
11612.6
11616.3
11619.5
11622.2
11624.6
11626.7
11629
11631.4
11634.4
11638.3
11642.8
11647.7
11653
11658.7
11664.7
11671.1
11677.8
11684.8
11692.1
11699.3
11705.8
11711.2
11716
11720.5
11724.9
11729.2
11733.5
11737.5
11741.4
11744.6
11747.2
11749.5
11600.7
11605.1
11610
11614.1
11617.4
11620.2
11622.3
11624.2
11625.8
11627.4
11629.2
11631.4
11634.5
11638.2
11642.5
11647.2
11652.5
11658.2
11664.3
11670.9
11677.8
11685.2
11692.6
11699.3
11705
11710
11714.7
11719.3
11723.9
11728.3
11732.6
11736.8
11740.2
11742.9
11745.4
11602.7
11607.1
11611.9
11615.8
11618.9
11621.2
11622.9
11624.2
11625.3
11626.3
11627.5
11629.1
11631.3
11634.4
11638
11642.2
11647
11652.4
11658.3
11664.7
11671.6
11679
11686.6
11693.4
11699.3
11704.5
11709.4
11714.2
11718.9
11723.5
11728
11732.3
11735.9
11738.7
11741.3
11604.9
11609.4
11614.2
11618
11620.8
11622.7
11624
11624.9
11625.4
11625.8
11626.3
11627.1
11628.7
11631
11634
11637.7
11642
11647
11652.6
11658.8
11665.6
11673
11680.7
11687.7
11693.7
11699.1
11704.1
11709
11713.9
11718.7
11723.3
11727.8
11731.4
11734.3
11736.9
11607.9
11612.5
11617.3
11621
11623.5
11625.1
11626
11626.3
11626.2
11626
11625.8
11625.9
11626.5
11628.1
11630.4
11633.4
11637.3
11641.8
11647
11653
11659.7
11667
11674.7
11681.8
11687.9
11693.4
11698.5
11703.5
11708.5
11713.4
11718.1
11722.7
11726.5
11729.3
11732
11611.9
11616.8
11621.7
11625.2
11627.4
11628.6
11628.9
11628.7
11627.9
11627
11626.1
11625.2
11624.9
11625.6
11627.1
11629.5
11632.6
11636.6
11641.4
11647
11653.4
11660.6
11668.2
11675.3
11681.5
11687
11692.2
11697.3
11702.3
11707.2
11712
11716.6
11720.4
11723.3
11725.9
11617.7
11622.7
11627.6
11631
11632.9
11633.6
11633.4
11632.4
11631
11629.2
11627.3
11625.5
11624.1
11623.7
11624.3
11625.7
11628.2
11631.5
11635.7
11640.7
11646.7
11653.5
11661
11668.1
11674.2
11679.7
11684.8
11689.9
11694.8
11699.7
11704.5
11709.1
11712.8
11715.6
11718.2
11625.5
11630.8
11635.8
11639
11640.5
11640.7
11639.7
11638
11635.7
11633
11630
11627
11624.3
11622.7
11622
11622.4
11623.8
11626.2
11629.6
11634
11639.3
11645.7
11652.9
11659.7
11665.7
11671.1
11676
11680.9
11685.7
11690.5
11695.2
11699.6
11703.2
11705.9
11708.3
11636.3
11641.8
11646.9
11649.8
11650.9
11650.4
11648.6
11645.9
11642.6
11638.8
11634.6
11630.1
11625.9
11622.8
11620.7
11619.7
11619.9
11621.1
11623.4
11626.8
11631.3
11636.9
11643.5
11650
11655.7
11660.7
11665.4
11670
11674.5
11679
11683.4
11687.6
11690.9
11693.3
11695.5
11650.7
11656.5
11661.6
11664.3
11664.7
11663.4
11660.7
11657
11652.4
11647.3
11641.7
11635.5
11629.5
11624.5
11620.7
11618.1
11616.6
11616.4
11617.2
11619.3
11622.6
11627.1
11632.8
11638.6
11643.8
11648.3
11652.5
11656.5
11660.5
11664.5
11668.4
11672.2
11675.1
11677.1
11678.9
11669.7
11675.8
11680.9
11683.2
11683
11680.7
11676.9
11671.9
11666
11659.5
11652.1
11643.9
11635.7
11628.5
11622.6
11618
11614.5
11612.3
11611.4
11611.7
11613.2
11616.2
11620.6
11625.4
11629.7
11633.4
11636.8
11640.1
11643.3
11646.4
11649.6
11652.7
11655
11656.3
11657.5
11694.3
11700.9
11706
11707.9
11706.9
11703.6
11698.5
11692
11684.6
11676.2
11666.9
11656.5
11645.7
11635.9
11627.4
11620.2
11614.3
11609.6
11606.3
11604.3
11603.6
11604.4
11606.9
11610.2
11613.2
11615.7
11618
11620
11622
11624
11626
11628
11629.3
11629.8
11630.1
11726.1
11733.2
11738.3
11739.7
11737.8
11733.4
11726.9
11718.8
11709.6
11699.2
11687.6
11674.6
11660.8
11648
11636.5
11626.2
11617.1
11609.4
11603
11597.9
11594.2
11592.1
11592
11593.1
11594.2
11595
11595.5
11595.8
11596
11596.2
11596.6
11597.1
11596.9
11596.1
11595.2
11766.7
11774.4
11779.7
11780.6
11777.8
11772.1
11764.1
11754.2
11743
11730.5
11716.3
11700.3
11683.1
11666.8
11651.7
11637.7
11624.9
11613.2
11602.9
11593.8
11586.1
11580
11576.3
11574.3
11572.7
11571
11569.1
11566.9
11564.6
11562.3
11560.3
11558.4
11556.3
11553.7
11550.9
11818
11826.8
11832.4
11832.9
11829.2
11822.2
11812.6
11800.9
11787.6
11772.7
11755.8
11736.6
11715.6
11695.3
11675.9
11657.4
11639.9
11623.4
11608.1
11593.9
11580.9
11569.6
11560.8
11554.6
11549.3
11544
11538.6
11532.9
11527.1
11521.3
11515.8
11510.7
11505.7
11500.5
11495.4
11882.2
11892.5
11898.9
11899.2
11894.8
11886.7
11875.7
11862.2
11846.7
11829.4
11809.5
11786.8
11761.7
11736.8
11712.5
11688.8
11665.7
11643.2
11621.6
11600.8
11581
11562.6
11547.2
11535.1
11524.6
11514.6
11504.3
11493.7
11482.9
11472.2
11461.9
11452.2
11443.2
11434.5
11425.9
11963
11975.6
11983.3
11984.1
11979.3
11970.5
11958.4
11943.3
11925.8
11906
11883.3
11857.1
11827.7
11797.8
11767.8
11737.9
11707.9
11678.1
11648.5
11619.3
11590.6
11562.8
11538.4
11518.4
11500.7
11484
11467
11449.6
11432
11414.5
11397.5
11381.2
11366.6
11352.9
11339.6
12068.6
12084.8
12094.9
12096.9
12092.6
12084
12071.4
12055.2
12036.3
12014.5
11989.3
11959.8
11926.1
11890.9
11854.6
11817.2
11778.8
11739.7
11699.9
11659.7
11619
11578.7
11541.8
11510.6
11482.9
11456.7
11430.4
11403.6
11376.4
11349.4
11323
11297.7
11275.1
11254.5
11234.7
12202
12223.6
12238.2
12243
12241
12233.9
12222.2
12205.9
12186.1
12163
12135.8
12103.5
12065.7
12024.9
11981.5
11935.7
11887.6
11837.4
11785.4
11731.7
11676.2
11619.9
11566.8
11520.9
11479.6
11440.5
11401.5
11361.6
11321.4
11281.2
11241.7
11203.6
11170
11139.8
11110.9
12331.8
12362
12384
12394.4
12397
12394.1
12385
12369.8
12349.9
12325.6
12296.3
12260.4
12217.7
12170.9
12120.2
12065.6
12007.4
11945.6
11880.5
11812.2
11740.9
11667.5
11597.4
11536
11479.9
11426.1
11371.9
11316.2
11259.4
11202.4
11145.7
11090.3
11041.5
10997.7
10955.7
12502.9
12543.4
12575.2
12593
12602.1
12605.6
12601.6
12589.3
12571.3
12548
12518.5
12481.2
12434.7
12381.1
12320.7
12253.6
12180.2
12100.5
12015
11923.7
11827.2
11726.6
11629.6
11544.7
11467.8
11394.5
11320.3
11244.1
11166.3
11087.8
11009.3
10932.5
10864.9
10804.1
10745
13157.1
13215.6
13268.5
13302.3
13324.3
13338.9
13342
13333.7
13319.8
13302.6
13281.2
13251.4
13205.7
13140.6
13060.1
12967.2
12863.5
12749.4
12625.3
12490.9
12345.3
12188.1
12026.7
11877.1
11742.4
11618.9
11499.6
11380.9
11262
11143.5
11025.8
10911.1
10812
10729.5
10655.9
14112.2
14221.8
14312.5
14375.8
14422.3
14458.8
14475.1
14470.4
14454.4
14429.2
14393.1
14342.7
14274.8
14192.3
14098.7
13994.1
13878.3
13751.3
13613.1
13463.7
13303.6
13134.5
12964.2
12803.4
12648.8
12497.2
12343.7
12186.1
12023.7
11856.5
11685.1
11511.6
11348.5
11197.8
11058
11078.3
11141.2
11207.3
11257.5
11279.5
11273.4
11268.4
11273.5
11271.5
11252.3
11210.6
11145.1
11065.1
10991
10920.7
10849.2
10773.2
10690.5
10599.4
10497.5
10382.2
10252.1
10119.4
10006.8
9911.53
9823.55
9730.02
9624.87
9507.75
9379.91
9242.3
9098
8979.46
8892.15
8808.37
697557
704232
709487
712060
712578
711639
709633
707093
704518
702070
699709
697349
694856
692270
689585
686783
683824
680591
676887
672443
666946
660067
652047
643801
635134
626101
616425
606077
595039
583279
570784
557594
545557
535033
525626
715132
728636
738898
743736
744511
742529
739022
734664
729742
724252
717962
710668
702512
694455
686714
679106
671426
663425
654812
645254
634428
622127
609010
596337
583682
570786
557055
542321
526630
510087
492783
474855
458579
444344
431254
790464
808166
821720
828427
830175
828616
825014
820125
814384
807827
800126
790860
779938
768362
756621
744550
731940
718476
703789
687423
668855
647687
624862
602695
581245
560088
538299
515521
491880
467607
442893
417975
395804
377214
360960
826740
847027
862126
869436
871395
869891
866215
861158
855170
848284
840120
830149
818063
804717
790741
776004
760272
743177
724234
702798
678098
649504
618133
587252
557568
528728
499648
469865
439583
409114
378706
348605
322041
300269
281907
864863
886614
902107
909369
911288
909867
906277
901253
895241
888246
879865
869477
856631
842080
826547
809877
791780
771796
749311
723439
693094
657294
617307
577541
539753
503713
468189
432526
396964
361872
327499
294066
264956
241739
222697
896140
918595
933716
940417
941933
940293
936662
931682
925713
918718
910262
899700
886418
871009
854318
836162
816183
793847
768416
738780
703476
661130
613022
564826
519664
477406
436643
396481
357150
319031
282346
247249
217101
193600
174738
925858
948826
963352
969349
970344
968357
964472
959280
953123
945979
937388
926622
912942
896687
878939
859465
837871
813548
785710
753041
713756
666055
611047
555590
504335
457179
412510
369179
327436
287682
250109
214795
184948
162183
144226
953873
977592
991602
996872
997263
994801
990526
984972
978452
970921
961884
950588
936283
919302
900571
879901
856895
830828
801050
766083
723938
672445
612285
551039
494880
443718
395806
349816
306086
265096
227031
191890
162674
140808
123821
981145
1.00624e+06
1.01998e+06
1.02454e+06
1.02423e+06
1.02115e+06
1.01631e+06
1.01022e+06
1.00316e+06
995082
985429
973419
958249
940196
920276
898324
874002
846703
815502
779007
735221
681797
618743
553519
493520
438856
387815
339034
293073
250609
211916
176973
148489
127508
111396
1.00743e+06
1.03491e+06
1.04875e+06
1.05261e+06
1.0515e+06
1.04765e+06
1.04208e+06
1.03527e+06
1.02751e+06
1.01871e+06
1.00828e+06
995384
979195
959994
938888
915728
890196
861708
829381
791903
747370
693484
629838
562962
500546
443002
388944
337114
288331
243575
203345
167713
139233
118637
103084
1.03169e+06
1.0631e+06
1.07756e+06
1.08074e+06
1.07872e+06
1.07397e+06
1.06753e+06
1.05988e+06
1.05128e+06
1.04164e+06
1.0303e+06
1.01641e+06
999104
978706
956434
932161
905604
876226
843224
805403
761013
707848
645077
578103
514399
454599
397659
342432
290056
241970
199120
161855
132739
112156
96935.6
1.05166e+06
1.08935e+06
1.10513e+06
1.1077e+06
1.10473e+06
1.09901e+06
1.09163e+06
1.08309e+06
1.07362e+06
1.0631e+06
1.05084e+06
1.03592e+06
1.0175e+06
995965
972633
947409
920034
890031
856691
818964
775288
723606
662827
597189
533513
472418
413113
354497
297971
245514
198761
158653
128050
107004
91848.6
1.06405e+06
1.11153e+06
1.12954e+06
1.13161e+06
1.12775e+06
1.12112e+06
1.11288e+06
1.1035e+06
1.09323e+06
1.08192e+06
1.06882e+06
1.05299e+06
1.03358e+06
1.0111e+06
986920
960979
933046
902700
869324
832008
789398
739635
681543
618396
556079
494908
434153
372615
311777
254090
202032
157540
124283
102143
86747.8
1.06517e+06
1.12742e+06
1.14849e+06
1.15025e+06
1.14568e+06
1.13836e+06
1.12947e+06
1.11947e+06
1.10862e+06
1.09672e+06
1.08301e+06
1.06651e+06
1.04641e+06
1.02328e+06
998578
972249
944084
913713
880590
843950
802624
755001
699967
640139
580412
520561
459684
396242
331537
268258
209671
159033
121575
97507.9
81532.9
1.05288e+06
1.13599e+06
1.1602e+06
1.16173e+06
1.15679e+06
1.14914e+06
1.13995e+06
1.12968e+06
1.11856e+06
1.10639e+06
1.09238e+06
1.07557e+06
1.05515e+06
1.03179e+06
1.00698e+06
980664
952656
922617
890077
854376
814519
769132
717285
661218
604997
547829
488386
424550
357010
288275
222137
163272
119328
91960.1
74856.8
1.03215e+06
1.14037e+06
1.16547e+06
1.1664e+06
1.16119e+06
1.15343e+06
1.14418e+06
1.13388e+06
1.12273e+06
1.11053e+06
1.09651e+06
1.07971e+06
1.05935e+06
1.03619e+06
1.01171e+06
985849
958442
929158
897587
863149
824995
781955
733314
681156
628992
575611
519253
457067
388634
315532
241396
172103
118660
86020.7
67005.5
1.01374e+06
1.14484e+06
1.16628e+06
1.16577e+06
1.16e+06
1.15196e+06
1.14256e+06
1.1322e+06
1.12106e+06
1.10893e+06
1.09505e+06
1.07848e+06
1.05853e+06
1.03601e+06
1.01235e+06
987478
961203
933212
903116
870401
834316
793870
748515
700280
652365
603416
551463
493095
426599
351688
270258
187868
119628
78330.8
56926.7
1.01531e+06
1.14853e+06
1.16164e+06
1.15886e+06
1.15211e+06
1.14354e+06
1.13389e+06
1.12346e+06
1.11242e+06
1.10053e+06
1.08704e+06
1.07107e+06
1.05203e+06
1.03075e+06
1.00855e+06
985308
960810
934737
906710
876248
842676
805131
763176
718770
674951
630425
583308
530127
468370
395774
310711
214059
119605
54477.2
24339.3
853183
926204
950842
967492
983090
999532
1.01749e+06
1.03723e+06
1.05876e+06
1.08266e+06
1.11047e+06
1.1438e+06
1.18302e+06
1.22443e+06
1.26195e+06
1.29075e+06
1.31012e+06
1.32403e+06
1.33619e+06
1.34792e+06
1.35881e+06
1.36724e+06
1.37043e+06
1.3654e+06
1.35111e+06
1.32818e+06
1.29602e+06
1.25374e+06
1.20003e+06
1.13305e+06
1.04961e+06
945988
837842
744154
640064
842971
911347
934749
950988
966617
983393
1.00192e+06
1.0224e+06
1.04481e+06
1.0697e+06
1.09856e+06
1.13292e+06
1.17304e+06
1.21524e+06
1.25292e+06
1.28126e+06
1.30016e+06
1.31384e+06
1.3259e+06
1.33741e+06
1.34778e+06
1.35508e+06
1.35628e+06
1.34808e+06