/*--------------------------------*- C++ -*----------------------------------*\
| =========                 |                                                 |
| \\      /  F ield         | OpenFOAM: The Open Source CFD Toolbox           |
|  \\    /   O peration     | Version:  2406                                  |
|   \\  /    A nd           | Website:  www.openfoam.com                      |
|    \\/     M anipulation  |                                                 |
\*---------------------------------------------------------------------------*/
FoamFile
{
    version     2.0;
    format      ascii;
    arch        "LSB;label=32;scalar=64";
    class       volScalarField;
    location    "145";
    object      gradTx;
}
// * * * * * * * * * * * * * * * * * * * * * * * * * * * * * * * * * * * * * //

dimensions      [0 -1 0 1 0 0 0];

internalField   nonuniform List<scalar> 
20000
(
7.58181
7.23396
6.89258
6.55806
6.23053
5.91034
5.59802
5.294
4.99782
4.70976
4.43052
4.15996
3.89784
3.64428
3.39945
3.16339
2.93601
2.71719
2.50684
2.3049
2.11127
1.92587
1.74856
1.5792
1.41762
1.26366
1.11714
0.977895
0.845731
0.720467
0.601912
0.489872
0.38415
0.284548
0.190865
0.102899
0.0204493
-0.0566846
-0.128703
-0.195804
-0.258186
-0.316041
-0.369563
-0.418942
-0.464362
-0.506009
-0.54406
-0.578692
-0.610077
-0.638384
-0.663775
-0.686411
-0.706446
-0.724033
-0.739318
-0.752443
-0.763546
-0.772759
-0.780213
-0.786031
-0.790333
-0.793235
-0.794848
-0.795279
-0.794632
-0.793004
-0.79049
-0.787182
-0.783165
-0.778522
-0.773333
-0.767672
-0.761612
-0.755221
-0.748564
-0.741702
-0.734694
-0.727595
-0.720458
-0.713331
-0.70626
-0.69929
-0.692461
-0.685812
-0.679377
-0.673191
-0.667284
-0.661683
-0.656417
-0.651507
-0.646977
-0.642844
-0.639128
-0.635843
-0.633003
-0.630618
-0.6287
-0.627254
-0.626287
-0.625803
22.7436
21.7002
20.676
19.6724
18.6899
17.7299
16.793
15.8803
14.992
14.1284
13.2907
12.4788
11.6924
10.9319
10.1976
9.48946
8.80733
8.15089
7.51988
6.9141
6.33329
5.77715
5.24527
4.73722
4.25252
3.79067
3.35116
2.93344
2.53698
2.16122
1.80559
1.46949
1.15236
0.853574
0.572546
0.308671
0.0613428
-0.17004
-0.386077
-0.587365
-0.774493
-0.948045
-1.1086
-1.25672
-1.39297
-1.5179
-1.63205
-1.73593
-1.83008
-1.91499
-1.99116
-2.05906
-2.11917
-2.17192
-2.21777
-2.25714
-2.29045
-2.31809
-2.34045
-2.3579
-2.3708
-2.37951
-2.38435
-2.38564
-2.3837
-2.37882
-2.37128
-2.36135
-2.3493
-2.33537
-2.31981
-2.30283
-2.28465
-2.26548
-2.24551
-2.22492
-2.2039
-2.18261
-2.1612
-2.13982
-2.11861
-2.0977
-2.07721
-2.05727
-2.03796
-2.01941
-2.00169
-1.98489
-1.96909
-1.95436
-1.94077
-1.92837
-1.91723
-1.90737
-1.89885
-1.8917
-1.88594
-1.88161
-1.87871
-1.87725
37.8999
36.1612
34.4542
32.7817
31.1447
29.5451
27.9838
26.4627
24.9825
23.5436
22.1476
20.7944
19.484
18.2168
16.9932
15.8132
14.6765
13.5826
12.531
11.5216
10.5537
9.627
8.74069
7.89408
7.08638
6.31675
5.58434
4.88827
4.22761
3.60144
3.00881
2.44875
1.92028
1.42239
0.954087
0.514367
0.102221
-0.283353
-0.643356
-0.97878
-1.29061
-1.57982
-1.84736
-2.09419
-2.32124
-2.52942
-2.71963
-2.89275
-3.04963
-3.19113
-3.31805
-3.43121
-3.53136
-3.61927
-3.69568
-3.76129
-3.81679
-3.86284
-3.9001
-3.92918
-3.95069
-3.96519
-3.97326
-3.97542
-3.97218
-3.96404
-3.95148
-3.93494
-3.91486
-3.89165
-3.86571
-3.83741
-3.80712
-3.77517
-3.7419
-3.7076
-3.67257
-3.63708
-3.6014
-3.56577
-3.53043
-3.49559
-3.46145
-3.42821
-3.39605
-3.36512
-3.33559
-3.3076
-3.28127
-3.25673
-3.23408
-3.21343
-3.19485
-3.17843
-3.16423
-3.15231
-3.14272
-3.1355
-3.13066
-3.12824
53.0468
50.6134
48.2243
45.8831
43.5918
41.3527
39.1676
37.0386
34.9668
32.953
30.999
29.1049
27.2708
25.4973
23.7847
22.1331
20.542
19.0108
17.5391
16.1262
14.7716
13.4745
12.234
11.049
9.91849
8.84128
7.81615
6.84188
5.91719
5.04077
4.2113
3.42741
2.68772
1.99085
1.33539
0.719935
0.143074
-0.396597
-0.900477
-1.36995
-1.80641
-2.2112
-2.58567
-2.93115
-3.24893
-3.54031
-3.80654
-4.04885
-4.26843
-4.46648
-4.64413
-4.8025
-4.94269
-5.06573
-5.17267
-5.2645
-5.34218
-5.40665
-5.45879
-5.4995
-5.5296
-5.5499
-5.56119
-5.56421
-5.55968
-5.54829
-5.5307
-5.50755
-5.47945
-5.44696
-5.41066
-5.37105
-5.32865
-5.28394
-5.23736
-5.18935
-5.14032
-5.09065
-5.04072
-4.99085
-4.94138
-4.89262
-4.84484
-4.79831
-4.75329
-4.71001
-4.66868
-4.6295
-4.59265
-4.5583
-4.5266
-4.49769
-4.47169
-4.44871
-4.42883
-4.41215
-4.39873
-4.38861
-4.38185
-4.37846
68.1803
65.053
61.9825
58.9732
56.0281
53.1502
50.3418
47.6055
44.9426
42.3543
39.8427
37.4082
35.0509
32.7715
30.5704
28.4476
26.4025
24.4344
22.5428
20.7268
18.9858
17.3186
15.7242
14.2012
12.7482
11.3636
10.046
8.79381
7.60531
6.47886
5.41274
4.40522
3.45451
2.55882
1.71637
0.925326
0.183892
-0.509743
-1.15737
-1.76079
-2.32176
-2.84203
-3.32334
-3.76738
-4.17583
-4.55033
-4.89251
-5.20395
-5.48618
-5.74073
-5.96906
-6.17262
-6.35279
-6.51094
-6.64839
-6.76642
-6.86626
-6.94912
-7.01614
-7.06846
-7.10715
-7.13324
-7.14775
-7.15163
-7.1458
-7.13117
-7.10856
-7.07881
-7.04269
-7.00094
-6.95427
-6.90337
-6.84887
-6.7914
-6.73154
-6.66983
-6.60681
-6.54297
-6.47879
-6.4147
-6.35111
-6.28844
-6.22703
-6.16723
-6.10937
-6.05374
-6.00061
-5.95025
-5.90289
-5.85874
-5.818
-5.78084
-5.74742
-5.71788
-5.69234
-5.6709
-5.65364
-5.64064
-5.63195
-5.62759
83.2969
79.4762
75.7252
72.0487
68.4506
64.9347
61.5036
58.1605
54.9072
51.7451
48.6766
45.7023
42.8224
40.0376
37.3485
34.755
32.2564
29.852
27.5409
25.3224
23.1953
21.1585
19.2106
17.3499
15.5747
13.8832
12.2734
10.7436
9.29155
7.91535
6.61285
5.38194
4.22044
3.12616
2.09692
1.13049
0.224664
-0.622763
-1.41399
-2.15119
-2.83654
-3.47217
-4.06018
-4.60268
-5.10169
-5.55923
-5.97728
-6.35776
-6.70257
-7.01356
-7.29252
-7.5412
-7.76133
-7.95455
-8.12247
-8.26667
-8.38864
-8.48987
-8.57176
-8.63567
-8.68294
-8.71482
-8.73254
-8.73728
-8.73017
-8.71229
-8.68467
-8.64832
-8.60419
-8.55318
-8.49617
-8.43398
-8.3674
-8.29719
-8.22405
-8.14866
-8.07167
-7.99368
-7.91526
-7.83696
-7.75928
-7.6827
-7.60768
-7.53462
-7.46393
-7.39597
-7.33107
-7.26954
-7.21168
-7.15774
-7.10797
-7.06257
-7.02174
-6.98565
-6.95444
-6.92825
-6.90717
-6.89128
-6.88066
-6.87534
98.3931
93.88
89.4492
85.1064
80.8563
76.7031
72.6502
68.7012
64.8583
61.1231
57.4985
53.9851
50.5833
47.2938
44.1174
41.0538
38.1024
35.2622
32.5323
29.9116
27.3991
24.9932
22.6923
20.4943
18.3974
16.3993
14.4978
12.6907
10.9755
9.34988
7.81133
6.35733
4.98532
3.69273
2.47695
1.33537
0.26538
-0.735629
-1.67025
-2.54106
-3.35062
-4.10144
-4.79603
-5.43684
-6.02629
-6.56676
-7.06057
-7.51001
-7.91731
-8.28466
-8.61418
-8.90793
-9.16795
-9.39619
-9.59455
-9.76487
-9.90896
-10.0285
-10.1253
-10.2008
-10.2566
-10.2942
-10.3152
-10.3208
-10.3124
-10.2913
-10.2586
-10.2157
-10.1636
-10.1033
-10.036
-9.96251
-9.88387
-9.80093
-9.71453
-9.62548
-9.53454
-9.44241
-9.34978
-9.25729
-9.16553
-9.07508
-8.98645
-8.90016
-8.81666
-8.73637
-8.65971
-8.58704
-8.51869
-8.45497
-8.39618
-8.34255
-8.29432
-8.25169
-8.21483
-8.18389
-8.15899
-8.14022
-8.12768
-8.12139
113.465
108.261
103.151
98.1432
93.242
88.4526
83.7789
79.225
74.7933
70.4861
66.3062
62.2546
58.3317
54.5384
50.8754
47.3425
43.9389
40.6636
37.5156
34.4935
31.5962
28.8217
26.1683
23.6337
21.2155
18.9113
16.7186
14.6346
12.6567
10.7821
9.00787
7.33115
5.74898
4.25839
2.85637
1.53993
0.306031
-0.848315
-1.9261
-2.93031
-3.86387
-4.72971
-5.5307
-6.26967
-6.94941
-7.57266
-8.14212
-8.66041
-9.1301
-9.55372
-9.93371
-10.2725
-10.5723
-10.8355
-11.0643
-11.2607
-11.4268
-11.5647
-11.6763
-11.7633
-11.8277
-11.8711
-11.8953
-11.9017
-11.892
-11.8677
-11.8301
-11.7806
-11.7204
-11.651
-11.5733
-11.4886
-11.3979
-11.3022
-11.2026
-11.0999
-10.9951
-10.8888
-10.782
-10.6753
-10.5695
-10.4652
-10.363
-10.2635
-10.1672
-10.0746
-9.98622
-9.90241
-9.82359
-9.75012
-9.68232
-9.62048
-9.56486
-9.5157
-9.47319
-9.43751
-9.40879
-9.38716
-9.37269
-9.36544
128.509
122.615
116.828
111.156
105.605
100.18
94.8869
89.7292
84.71
79.8316
75.0975
70.5087
66.0657
61.7695
57.6209
53.6195
49.7646
46.0551
42.4896
39.0669
35.7854
32.6432
29.6379
26.7672
24.0284
21.4188
18.9353
16.575
14.3349
12.2117
10.2022
8.30316
6.51122
4.823
3.23509
1.7441
0.346606
-0.960791
-2.18148
-3.31883
-4.37617
-5.35681
-6.26399
-7.10094
-7.87081
-8.5767
-9.22166
-9.80866
-10.3406
-10.8204
-11.2508
-11.6345
-11.9741
-12.2722
-12.5312
-12.7537
-12.9419
-13.098
-13.2244
-13.323
-13.3959
-13.4451
-13.4724
-13.4798
-13.4688
-13.4412
-13.3986
-13.3425
-13.2744
-13.1957
-13.1078
-13.0118
-12.9091
-12.8008
-12.6879
-12.5716
-12.4529
-12.3325
-12.2115
-12.0907
-11.9709
-11.8528
-11.737
-11.6243
-11.5152
-11.4104
-11.3103
-11.2153
-11.1261
-11.0429
-10.9661
-10.896
-10.833
-10.7774
-10.7292
-10.6888
-10.6563
-10.6318
-10.6154
-10.6072
143.521
136.938
130.475
124.141
117.941
111.883
105.972
100.211
94.6057
89.1575
83.8703
78.7454
73.7834
68.9854
64.3521
59.8833
55.578
51.4351
47.4532
43.6307
39.9659
36.4565
33.1002
29.8942
26.8354
23.9209
21.1473
18.5113
16.0094
13.6382
11.394
9.27313
7.27185
5.38641
3.61301
1.94784
0.387095
-1.07303
-2.43632
-3.70653
-4.88739
-5.98258
-6.99575
-7.93047
-8.79027
-9.57862
-10.2989
-10.9545
-11.5486
-12.0844
-12.5651
-12.9936
-13.3729
-13.7058
-13.9951
-14.2436
-14.4537
-14.6281
-14.7692
-14.8794
-14.9608
-15.0157
-15.0463
-15.0544
-15.0422
-15.0114
-14.9638
-14.9012
-14.8251
-14.7372
-14.639
-14.5318
-14.4171
-14.2962
-14.1701
-14.0402
-13.9076
-13.7732
-13.6381
-13.5032
-13.3693
-13.2374
-13.1081
-12.9822
-12.8604
-12.7433
-12.6315
-12.5255
-12.4258
-12.3329
-12.2471
-12.1689
-12.0985
-12.0364
-11.9826
-11.9375
-11.9011
-11.8738
-11.8555
-11.8463
158.498
151.228
144.091
137.095
130.249
123.559
117.03
110.669
104.478
98.4614
92.6225
86.9628
81.483
76.1843
71.0674
66.1323
61.3778
56.8025
52.4051
48.1837
44.1364
40.2609
36.5543
33.0137
29.6358
26.4171
23.3541
20.443
17.6801
15.0614
12.583
10.2408
8.03069
5.9485
3.99004
2.1511
0.427488
-1.18501
-2.69056
-4.09332
-5.39741
-6.60689
-7.72578
-8.75804
-9.70756
-10.5782
-11.3736
-12.0976
-12.7537
-13.3455
-13.8763
-14.3495
-14.7684
-15.136
-15.4555
-15.7299
-15.962
-16.1546
-16.3105
-16.4321
-16.522
-16.5827
-16.6164
-16.6254
-16.6119
-16.5779
-16.5253
-16.4561
-16.3722
-16.2751
-16.1666
-16.0483
-15.9216
-15.788
-15.6488
-15.5054
-15.3589
-15.2105
-15.0613
-14.9123
-14.7645
-14.6188
-14.476
-14.337
-14.2025
-14.0731
-13.9497
-13.8326
-13.7225
-13.6198
-13.5251
-13.4387
-13.3611
-13.2924
-13.233
-13.1832
-13.143
-13.1128
-13.0926
-13.0825
173.436
165.481
157.671
150.016
142.524
135.203
128.06
121.099
114.325
107.741
101.352
95.1586
89.1624
83.3643
77.7652
72.3649
67.1623
62.1559
57.344
52.7248
48.2961
44.0553
39.9994
36.1251
32.4288
28.9068
25.5551
22.3696
19.3463
16.4809
13.7689
11.206
8.78754
6.50911
4.36608
2.35383
0.467776
-1.29669
-2.94413
-4.4791
-5.90609
-7.22956
-8.4539
-9.58344
-10.6225
-11.5751
-12.4456
-13.2378
-13.9557
-14.6033
-15.1841
-15.7019
-16.1602
-16.5625
-16.9122
-17.2124
-17.4664
-17.6771
-17.8476
-17.9807
-18.0791
-18.1455
-18.1824
-18.1923
-18.1775
-18.1402
-18.0827
-18.0071
-17.9152
-17.809
-17.6903
-17.5608
-17.4221
-17.2759
-17.1237
-16.9667
-16.8064
-16.644
-16.4807
-16.3177
-16.1559
-15.9965
-15.8403
-15.6882
-15.541
-15.3995
-15.2643
-15.1362
-15.0158
-14.9035
-14.7998
-14.7053
-14.6203
-14.5451
-14.4802
-14.4256
-14.3817
-14.3487
-14.3265
-14.3155
188.331
179.693
171.212
162.899
154.764
146.815
139.058
131.499
124.143
116.994
110.056
103.331
96.8198
90.5238
84.4439
78.5798
72.9303
67.4939
62.2688
57.2529
52.4439
47.8389
43.4347
39.2276
35.2139
31.3894
27.7498
24.2908
21.0078
17.8963
14.9514
12.1683
9.54223
7.06813
4.74104
2.55598
0.507948
-1.40805
-3.19698
-4.86377
-6.41332
-7.85045
-9.17993
-10.4065
-11.5347
-12.5692
-13.5144
-14.3747
-15.1543
-15.8574
-16.4881
-17.0504
-17.5481
-17.9849
-18.3646
-18.6906
-18.9664
-19.1953
-19.3804
-19.5249
-19.6318
-19.7039
-19.744
-19.7547
-19.7386
-19.6982
-19.6357
-19.5535
-19.4538
-19.3384
-19.2095
-19.0689
-18.9184
-18.7596
-18.5943
-18.4238
-18.2498
-18.0734
-17.8961
-17.7191
-17.5434
-17.3703
-17.2007
-17.0355
-16.8757
-16.722
-16.5753
-16.4362
-16.3053
-16.1834
-16.0709
-15.9682
-15.8759
-15.7943
-15.7237
-15.6645
-15.6169
-15.5809
-15.5569
-15.5449
203.18
193.86
184.711
175.743
166.966
158.39
150.021
141.866
133.931
126.218
118.733
111.478
104.453
97.6609
91.1016
84.7752
78.6803
72.8153
67.1782
61.7669
56.5787
51.6107
46.8592
42.3205
37.9903
33.8642
29.9376
26.2059
22.6641
19.3073
16.1302
13.1277
10.2946
7.62539
5.11484
2.7575
0.547994
-1.51907
-3.44904
-5.24725
-6.91896
-8.4694
-9.9037
-11.227
-12.4442
-13.5602
-14.5799
-15.508
-16.3491
-17.1076
-17.7881
-18.3947
-18.9316
-19.4029
-19.8125
-20.1643
-20.4618
-20.7087
-20.9084
-21.0643
-21.1796
-21.2574
-21.3006
-21.3122
-21.2948
-21.2512
-21.1839
-21.0952
-20.9875
-20.8631
-20.7241
-20.5724
-20.41
-20.2387
-20.0603
-19.8764
-19.6886
-19.4984
-19.3071
-19.1161
-18.9266
-18.7398
-18.5568
-18.3786
-18.2062
-18.0404
-17.8821
-17.732
-17.5909
-17.4593
-17.3379
-17.2272
-17.1276
-17.0396
-16.9634
-16.8995
-16.8481
-16.8094
-16.7835
-16.7705
217.978
207.98
198.164
188.543
179.127
169.926
160.948
152.199
143.686
135.411
127.381
119.597
112.061
104.774
97.7369
90.9497
84.4109
78.1187
72.0711
66.2656
60.6996
55.3697
50.2722
45.4028
40.7572
36.3306
32.1181
28.1146
24.3148
20.7135
17.305
14.0839
11.0444
8.18078
5.48737
2.95834
0.587905
-1.62971
-3.70025
-5.62943
-7.4229
-9.08626
-10.625
-12.0447
-13.3505
-14.5479
-15.6418
-16.6375
-17.5399
-18.3537
-19.0837
-19.7344
-20.3105
-20.8161
-21.2556
-21.6329
-21.9521
-22.217
-22.4313
-22.5985
-22.7222
-22.8057
-22.852
-22.8644
-22.8458
-22.799
-22.7268
-22.6316
-22.5161
-22.3827
-22.2335
-22.0707
-21.8965
-21.7128
-21.5214
-21.3241
-21.1226
-20.9185
-20.7133
-20.5084
-20.3051
-20.1047
-19.9084
-19.7172
-19.5322
-19.3544
-19.1845
-19.0235
-18.8721
-18.731
-18.6007
-18.4819
-18.3751
-18.2806
-18.199
-18.1304
-18.0752
-18.0337
-18.0059
-17.992
232.723
222.048
211.568
201.296
191.244
181.421
171.835
162.494
153.405
144.571
135.997
127.687
119.641
111.861
104.348
97.1018
90.1207
83.4029
76.9461
70.748
64.8055
59.1151
53.6727
48.474
43.5142
38.7881
34.2907
30.0163
25.9596
22.1146
18.4756
15.0365
11.7914
8.73415
5.85855
3.15845
0.627671
-1.73995
-3.95055
-6.01022
-7.925
-9.70088
-11.3437
-12.8594
-14.2536
-15.5319
-16.6999
-17.7629
-18.7263
-19.5952
-20.3745
-21.0693
-21.6843
-22.2242
-22.6933
-23.0962
-23.437
-23.7198
-23.9486
-24.1272
-24.2592
-24.3483
-24.3978
-24.4111
-24.3912
-24.3412
-24.2641
-24.1625
-24.0392
-23.8967
-23.7374
-23.5636
-23.3776
-23.1815
-22.9771
-22.7665
-22.5514
-22.3335
-22.1144
-21.8956
-21.6786
-21.4647
-21.2551
-21.0509
-20.8534
-20.6636
-20.4822
-20.3103
-20.1487
-19.998
-19.8589
-19.7321
-19.618
-19.5172
-19.43
-19.3568
-19.2979
-19.2535
-19.2238
-19.209
247.41
236.061
224.92
214
203.313
192.87
182.679
172.749
163.086
153.695
144.58
135.745
127.192
118.921
110.934
103.23
95.8082
88.6664
81.8022
75.2129
68.8954
62.8458
57.06
51.5332
46.2604
41.2361
36.4548
31.9107
27.5979
23.5102
19.6416
15.9855
12.5356
9.28536
6.22828
3.35778
0.667282
-1.84976
-4.19987
-6.38952
-8.42515
-10.3131
-12.0596
-13.671
-15.1531
-16.5121
-17.7538
-18.884
-19.9081
-20.8318
-21.6604
-22.399
-23.0528
-23.6267
-24.1255
-24.5538
-24.9161
-25.2168
-25.46
-25.6498
-25.7902
-25.8849
-25.9376
-25.9516
-25.9305
-25.8774
-25.7954
-25.6874
-25.5563
-25.4048
-25.2355
-25.0508
-24.853
-24.6445
-24.4272
-24.2033
-23.9746
-23.743
-23.5101
-23.2775
-23.0468
-22.8193
-22.5965
-22.3795
-22.1695
-21.9676
-21.7749
-21.5921
-21.4203
-21.2601
-21.1122
-20.9774
-20.8561
-20.7489
-20.6562
-20.5784
-20.5158
-20.4686
-20.4371
-20.4213
262.036
250.017
238.217
226.651
215.333
204.272
193.479
182.962
172.727
162.781
153.127
143.77
134.711
125.951
117.492
109.333
101.472
93.9081
86.6381
79.6593
72.9683
66.5611
60.4333
54.5798
48.9952
43.6738
38.6099
33.7971
29.2294
24.9001
20.8027
16.9305
13.2766
9.83428
6.59647
3.55628
0.706727
-1.95911
-4.44815
-6.76726
-8.92322
-10.9228
-12.7726
-14.4792
-16.0489
-17.4883
-18.8034
-20.0003
-21.085
-22.0633
-22.9409
-23.7232
-24.4157
-25.0235
-25.5518
-26.0054
-26.3891
-26.7075
-26.9651
-27.1662
-27.3149
-27.4152
-27.4709
-27.4858
-27.4634
-27.4072
-27.3203
-27.206
-27.0671
-26.9067
-26.7273
-26.5317
-26.3222
-26.1014
-25.8713
-25.6341
-25.3919
-25.1466
-24.8999
-24.6536
-24.4092
-24.1683
-23.9323
-23.7025
-23.4801
-23.2663
-23.0621
-22.8686
-22.6866
-22.5169
-22.3603
-22.2175
-22.089
-21.9755
-21.8773
-21.7949
-21.7286
-21.6787
-21.6452
-21.6285
276.597
263.91
251.455
239.247
227.299
215.624
204.231
193.129
182.326
171.826
161.637
151.76
142.197
132.95
124.021
115.408
107.111
99.1266
91.4527
84.086
77.0232
70.26
63.7916
57.6128
51.7179
46.1008
40.7554
35.6753
30.8537
26.2838
21.9587
17.8713
14.0144
10.3808
6.96304
3.7539
0.745998
-2.06798
-4.69534
-7.14332
-9.41909
-11.5298
-13.4824
-15.2838
-16.9408
-18.4601
-19.8483
-21.1117
-22.2567
-23.2894
-24.2157
-25.0415
-25.7725
-26.4141
-26.9717
-27.4505
-27.8555
-28.1917
-28.4636
-28.6758
-28.8328
-28.9386
-28.9975
-29.0132
-28.9896
-28.9302
-28.8385
-28.7178
-28.5713
-28.4019
-28.2126
-28.0061
-27.785
-27.5518
-27.309
-27.0586
-26.803
-26.544
-26.2836
-26.0236
-25.7656
-25.5114
-25.2622
-25.0196
-24.7849
-24.5592
-24.3437
-24.1394
-23.9473
-23.7682
-23.6029
-23.4521
-23.3165
-23.1967
-23.0931
-23.0061
-22.9361
-22.8834
-22.8481
-22.8304
291.091
277.739
264.631
251.783
239.209
226.922
214.932
203.249
191.879
180.83
170.106
159.712
149.648
139.917
130.519
121.455
112.723
104.321
96.2446
88.492
81.0591
73.9415
67.1342
60.6316
54.4278
48.5164
42.891
37.5446
32.4703
27.661
23.1093
18.8077
14.7488
10.9247
7.32789
3.95059
0.785085
-2.17634
-4.94137
-7.51762
-9.91264
-12.1339
-14.1888
-16.0846
-17.8285
-19.4274
-20.8883
-22.218
-23.423
-24.5097
-25.4846
-26.3536
-27.1229
-27.7981
-28.3849
-28.8889
-29.3151
-29.6689
-29.955
-30.1784
-30.3436
-30.455
-30.5169
-30.5335
-30.5086
-30.4461
-30.3496
-30.2226
-30.0683
-29.8901
-29.6909
-29.4735
-29.2409
-28.9955
-28.7399
-28.4765
-28.2074
-27.9349
-27.6608
-27.3872
-27.1157
-26.8481
-26.5859
-26.3306
-26.0836
-25.8461
-25.6193
-25.4043
-25.2021
-25.0136
-24.8396
-24.681
-24.5383
-24.4122
-24.3031
-24.2116
-24.1379
-24.0824
-24.0453
-24.0267
305.512
291.499
277.741
264.257
251.06
238.164
225.58
213.318
201.386
189.789
178.534
167.624
157.062
146.848
136.986
127.473
118.308
109.489
101.013
92.8762
85.075
77.6048
70.4602
63.6355
57.1243
50.9201
45.0159
39.4046
34.079
29.0314
24.2542
19.7395
15.4794
11.4659
7.69093
4.14631
0.823977
-2.28417
-5.18618
-7.89006
-10.4037
-12.7351
-14.8918
-16.8815
-18.7117
-20.3899
-21.9232
-23.3187
-24.5834
-25.724
-26.7472
-27.6593
-28.4666
-29.1753
-29.7912
-30.3201
-30.7675
-31.1387
-31.4391
-31.6735
-31.8469
-31.9638
-32.0288
-32.0462
-32.0201
-31.9545
-31.8532
-31.7199
-31.558
-31.3709
-31.1618
-30.9337
-30.6895
-30.432
-30.1638
-29.8873
-29.6049
-29.3188
-29.0312
-28.744
-28.4591
-28.1782
-27.9031
-27.6351
-27.3758
-27.1266
-26.8885
-26.6629
-26.4506
-26.2528
-26.0702
-25.9037
-25.754
-25.6216
-25.5072
-25.4111
-25.3338
-25.2755
-25.2366
-25.217
319.858
305.187
290.783
276.666
262.849
249.348
236.173
223.335
210.842
198.701
186.917
175.495
164.437
153.744
143.418
133.458
123.863
114.63
105.756
97.2374
89.0699
81.2489
73.7689
66.6236
59.8067
53.3111
47.1297
41.255
35.6793
30.3946
25.3931
20.6664
16.2063
12.0043
8.05207
4.34101
0.862666
-2.39143
-5.42971
-8.26056
-10.8923
-13.3331
-15.591
-17.6742
-19.5904
-21.3474
-22.9526
-24.4137
-25.7378
-26.9319
-28.0031
-28.9581
-29.8033
-30.5453
-31.1901
-31.7438
-32.2122
-32.6009
-32.9154
-33.1608
-33.3423
-33.4647
-33.5328
-33.551
-33.5237
-33.455
-33.349
-33.2094
-33.0399
-32.844
-32.6251
-32.3863
-32.1306
-31.861
-31.5802
-31.2907
-30.995
-30.6956
-30.3944
-30.0938
-29.7955
-29.5014
-29.2133
-28.9328
-28.6613
-28.4004
-28.1511
-27.9149
-27.6927
-27.4856
-27.2944
-27.1201
-26.9633
-26.8247
-26.7049
-26.6043
-26.5234
-26.4624
-26.4216
-26.4012
334.125
318.799
303.753
289.006
274.573
260.47
246.707
233.297
220.247
207.563
195.254
183.323
171.772
160.602
149.815
139.411
129.388
119.743
110.473
101.575
93.0428
84.873
77.0593
69.5954
62.4744
55.6891
49.2319
43.0951
37.2707
31.7504
26.5258
21.5882
16.9292
12.5398
8.41123
4.53463
0.901143
-2.4981
-5.67191
-8.62902
-11.3781
-13.9278
-16.2865
-18.4626
-20.4642
-22.2995
-23.9764
-25.5027
-26.8858
-28.1332
-29.2522
-30.2497
-31.1327
-31.9078
-32.5814
-33.1598
-33.649
-34.0551
-34.3835
-34.6399
-34.8295
-34.9574
-35.0285
-35.0475
-35.019
-34.9472
-34.8365
-34.6907
-34.5136
-34.309
-34.0803
-33.8309
-33.5638
-33.2822
-32.9888
-32.6864
-32.3776
-32.0647
-31.7502
-31.4361
-31.1245
-30.8173
-30.5164
-30.2233
-29.9398
-29.6671
-29.4068
-29.16
-28.9279
-28.7116
-28.5119
-28.3298
-28.166
-28.0212
-27.8961
-27.791
-27.7064
-27.6427
-27.6001
-27.5788
348.31
332.333
316.649
301.275
286.23
271.528
257.181
243.201
229.597
216.375
203.544
191.106
179.064
167.42
156.175
145.33
134.881
124.827
115.163
105.887
96.9928
88.4761
80.3307
72.5499
65.1266
58.0532
51.322
44.9247
38.853
33.0983
27.6518
22.5047
17.6479
13.0721
8.76831
4.72714
0.939396
-2.60416
-5.9127
-8.99535
-11.8612
-14.5191
-16.9779
-19.2463
-21.333
-23.2462
-24.9943
-26.5853
-28.0272
-29.3276
-30.494
-31.5339
-32.4544
-33.2623
-33.9645
-34.5675
-35.0775
-35.5008
-35.8432
-36.1105
-36.3081
-36.4415
-36.5156
-36.5354
-36.5056
-36.4309
-36.3154
-36.1634
-35.9788
-35.7655
-35.5271
-35.2671
-34.9887
-34.6951
-34.3893
-34.074
-33.7521
-33.426
-33.0981
-32.7706
-32.4458
-32.1256
-31.8119
-31.5064
-31.2108
-30.9266
-30.6552
-30.398
-30.156
-29.9305
-29.7223
-29.5325
-29.3618
-29.2108
-29.0803
-28.9708
-28.8827
-28.8162
-28.7718
-28.7496
362.409
345.785
329.466
313.47
297.816
282.518
267.591
253.045
238.89
225.134
211.783
198.841
186.312
174.197
162.497
151.212
140.341
129.88
119.825
110.173
100.919
92.0574
83.5823
75.4866
67.7628
60.4031
53.3993
46.7431
40.4256
34.438
28.7711
23.4157
18.3622
13.6013
9.12322
4.91848
0.977418
-2.70957
-6.15203
-9.35947
-12.3413
-15.1068
-17.6651
-20.0254
-22.1965
-24.1872
-26.006
-27.6614
-29.1616
-30.5147
-31.7284
-32.8104
-33.7681
-34.6087
-35.3393
-35.9667
-36.4974
-36.9378
-37.2941
-37.5722
-37.7778
-37.9165
-37.9936
-38.0143
-37.9833
-37.9055
-37.7853
-37.6272
-37.4352
-37.2133
-36.9652
-36.6946
-36.405
-36.0995
-35.7813
-35.4533
-35.1183
-34.779
-34.4378
-34.0971
-33.7591
-33.426
-33.0996
-32.7817
-32.4741
-32.1784
-31.8961
-31.6284
-31.3766
-31.142
-30.9254
-30.7279
-30.5502
-30.3932
-30.2574
-30.1435
-30.0518
-29.9827
-29.9364
-29.9133
376.418
359.152
342.202
325.588
309.328
293.439
277.935
262.827
248.125
233.836
219.969
206.528
193.514
180.93
168.778
157.058
145.766
134.9
124.457
114.432
104.82
95.616
86.8133
78.4046
70.3822
62.738
55.4635
48.55
41.9883
35.7692
29.8833
24.3208
19.072
14.127
9.47589
5.10861
1.0152
-2.81431
-6.38985
-9.72127
-12.8183
-15.6907
-18.348
-20.7995
-23.0545
-25.1222
-27.0113
-28.7307
-30.2889
-31.6943
-32.9549
-34.0787
-35.0734
-35.9466
-36.7054
-37.357
-37.9082
-38.3657
-38.7357
-39.0246
-39.2382
-39.3822
-39.4623
-39.4837
-39.4516
-39.3708
-39.246
-39.0817
-38.8823
-38.6518
-38.3941
-38.1131
-37.8122
-37.4949
-37.1644
-36.8238
-36.4758
-36.1234
-35.769
-35.4152
-35.0641
-34.7181
-34.3791
-34.0489
-33.7295
-33.4223
-33.129
-32.851
-32.5895
-32.3458
-32.1209
-31.9157
-31.7312
-31.5681
-31.4271
-31.3087
-31.2134
-31.1417
-31.0937
-31.0696
390.334
372.43
354.853
337.625
320.764
304.288
288.21
272.544
257.298
242.481
228.102
214.163
200.668
187.619
175.018
162.864
151.155
139.888
129.058
118.662
108.695
99.1511
90.0229
81.3033
72.9843
65.0575
57.5141
50.3449
43.5407
37.0917
30.9881
25.22
19.7771
14.6493
9.82622
5.29747
1.05273
-2.91836
-6.62609
-10.0807
-13.2922
-16.2708
-19.0263
-21.5685
-23.9069
-26.0509
-28.0099
-29.7929
-31.4087
-32.866
-34.1732
-35.3386
-36.3701
-37.2755
-38.0624
-38.7382
-39.3097
-39.7841
-40.1678
-40.4673
-40.6888
-40.8382
-40.9213
-40.9435
-40.9101
-40.8263
-40.6969
-40.5266
-40.3198
-40.0808
-39.8136
-39.5222
-39.2102
-38.8812
-38.5384
-38.1852
-37.8244
-37.4589
-37.0914
-36.7245
-36.3605
-36.0016
-35.6501
-35.3077
-34.9765
-34.658
-34.3539
-34.0655
-33.7944
-33.5416
-33.3084
-33.0956
-32.9043
-32.7352
-32.589
-32.4662
-32.3674
-32.293
-32.2432
-32.2183
404.155
385.616
367.417
349.579
332.121
315.062
298.415
282.193
266.408
251.067
236.178
221.746
207.773
194.262
181.215
168.631
156.507
144.84
133.627
122.864
112.544
102.662
93.2102
84.1819
75.5684
67.3609
59.5504
52.1274
45.0822
38.4049
32.0853
26.1129
20.4773
15.168
10.1741
5.48503
1.09
-3.02169
-6.86069
-10.4376
-13.7629
-16.8469
-19.7
-22.3321
-24.7533
-26.9733
-29.0017
-30.8478
-32.5208
-34.0297
-35.3832
-36.5898
-37.6578
-38.5953
-39.4101
-40.1097
-40.7015
-41.1927
-41.59
-41.9001
-42.1294
-42.2841
-42.3701
-42.3931
-42.3586
-42.2718
-42.1378
-41.9615
-41.7473
-41.4998
-41.2232
-40.9215
-40.5985
-40.2578
-39.9029
-39.5371
-39.1636
-38.7852
-38.4047
-38.0248
-37.6479
-37.2763
-36.9123
-36.5578
-36.2148
-35.8851
-35.5702
-35.2717
-34.9909
-34.7292
-34.4877
-34.2674
-34.0693
-33.8942
-33.7428
-33.6157
-33.5134
-33.4364
-33.3848
-33.359
417.875
398.708
379.89
361.446
343.396
325.758
308.545
291.774
275.452
259.59
244.196
229.274
214.827
200.857
187.367
174.355
161.82
149.757
138.164
127.035
116.364
106.147
96.3746
87.0397
78.1338
69.6477
61.572
53.8971
46.6127
39.7087
33.1745
26.9994
21.1725
15.6829
10.5195
5.67124
1.127
-3.12428
-7.09361
-10.7919
-14.2301
-17.4189
-20.3688
-23.0903
-25.5937
-27.889
-29.9862
-31.895
-33.6248
-35.1849
-36.5844
-37.832
-38.9362
-39.9056
-40.748
-41.4714
-42.0833
-42.5911
-43.0019
-43.3226
-43.5597
-43.7196
-43.8085
-43.8323
-43.7966
-43.7069
-43.5684
-43.386
-43.1646
-42.9087
-42.6227
-42.3107
-41.9767
-41.6245
-41.2576
-40.8794
-40.4931
-40.1019
-39.7085
-39.3156
-38.926
-38.5418
-38.1654
-37.7989
-37.4443
-37.1033
-36.7777
-36.4691
-36.1788
-35.9082
-35.6585
-35.4308
-35.2259
-35.0449
-34.8883
-34.7569
-34.6512
-34.5715
-34.5182
-34.4915
431.492
411.7
392.27
373.225
354.587
336.373
318.6
301.282
284.429
268.049
252.153
236.745
221.827
207.403
193.473
180.037
167.093
154.638
142.666
131.174
120.156
109.606
99.5151
89.8761
80.68
71.9173
63.5785
55.6534
48.1317
41.0027
34.2555
27.8792
21.8625
16.194
10.8623
5.85604
1.16372
-3.22609
-7.32477
-11.1436
-14.6938
-17.9865
-21.0325
-23.8427
-26.4277
-28.7978
-30.9634
-32.9344
-34.7205
-36.3315
-37.7765
-39.0648
-40.2051
-41.206
-42.0758
-42.8228
-43.4547
-43.979
-44.4032
-44.7343
-44.9792
-45.1443
-45.2361
-45.2607
-45.2238
-45.1312
-44.9881
-44.7998
-44.5712
-44.307
-44.0116
-43.6895
-43.3446
-42.9809
-42.602
-42.2115
-41.8127
-41.4087
-41.0024
-40.5968
-40.1944
-39.7978
-39.4091
-39.0307
-38.6645
-38.3124
-37.9762
-37.6575
-37.3578
-37.0784
-36.8205
-36.5853
-36.3738
-36.1869
-36.0252
-35.8895
-35.7803
-35.6981
-35.643
-35.6155
445.003
424.591
404.553
384.911
365.689
346.906
328.576
310.715
293.335
276.442
260.049
244.158
228.773
213.897
199.531
185.674
172.325
159.48
147.133
135.282
123.919
113.038
102.631
92.6903
83.2062
74.1692
65.5693
57.396
49.6388
42.2865
35.3282
28.7522
22.547
16.701
11.2024
6.0394
1.20016
-3.32711
-7.55412
-11.4925
-15.1539
-18.5497
-21.6911
-24.5893
-27.2552
-29.6995
-31.9329
-33.9656
-35.8077
-37.4691
-38.9594
-40.288
-41.464
-42.4962
-43.3933
-44.1637
-44.8153
-45.3561
-45.7936
-46.135
-46.3875
-46.5579
-46.6525
-46.6779
-46.6399
-46.5443
-46.3968
-46.2026
-45.9668
-45.6943
-45.3897
-45.0575
-44.7018
-44.3267
-43.936
-43.5332
-43.1219
-42.7052
-42.2863
-41.868
-41.453
-41.0439
-40.6431
-40.2528
-39.8751
-39.512
-39.1653
-38.8366
-38.5275
-38.2393
-37.9734
-37.7309
-37.5128
-37.32
-37.1532
-37.0133
-36.9007
-36.8158
-36.7591
-36.7306
458.404
437.378
416.735
396.503
376.702
357.352
338.471
320.072
302.168
284.767
267.88
251.511
235.662
220.338
205.539
191.266
177.515
164.282
151.564
139.356
127.651
116.442
105.722
95.4816
85.7119
76.4028
67.5438
59.1245
51.1336
43.56
36.392
29.618
23.226
17.204
11.5398
6.22127
1.2363
-3.42731
-7.78161
-11.8386
-15.6103
-19.1083
-22.3443
-25.3298
-28.076
-30.5939
-32.8946
-34.9885
-36.886
-38.5975
-40.1326
-41.5012
-42.7126
-43.776
-44.7001
-45.4936
-46.1649
-46.722
-47.1726
-47.5244
-47.7845
-47.9599
-48.0575
-48.0835
-48.0444
-47.946
-47.794
-47.594
-47.3511
-47.0704
-46.7566
-46.4144
-46.048
-45.6616
-45.2591
-44.8442
-44.4205
-43.9913
-43.5597
-43.1288
-42.7013
-42.2799
-41.867
-41.465
-41.076
-40.7019
-40.3448
-40.0062
-39.6877
-39.3909
-39.117
-38.8671
-38.6424
-38.4438
-38.2721
-38.1279
-38.0119
-37.9245
-37.8661
-37.8368
471.692
450.056
428.816
407.996
387.621
367.711
348.282
329.35
310.927
293.022
275.645
258.801
242.494
226.725
211.497
196.81
182.66
169.044
155.958
143.395
131.351
119.817
108.786
98.2494
88.1965
78.6175
69.5018
60.8383
52.6158
44.8227
37.4469
30.4766
23.8993
17.7027
11.8743
6.40161
1.27213
-3.52666
-8.00719
-12.1818
-16.0628
-19.6622
-22.992
-26.064
-28.8898
-31.4808
-33.8481
-36.0027
-37.9553
-39.7163
-41.296
-42.7042
-43.9508
-45.0449
-45.9958
-46.8124
-47.5031
-48.0763
-48.54
-48.902
-49.1696
-49.3502
-49.4505
-49.4774
-49.4371
-49.3358
-49.1794
-48.9736
-48.7237
-48.4348
-48.112
-47.7598
-47.3828
-46.9852
-46.571
-46.1441
-45.7081
-45.2665
-44.8224
-44.379
-43.9391
-43.5055
-43.0806
-42.667
-42.2666
-41.8818
-41.5142
-41.1658
-40.8382
-40.5327
-40.2509
-39.9938
-39.7626
-39.5582
-39.3815
-39.2332
-39.1138
-39.0239
-38.9637
-38.9336
484.864
462.624
440.79
419.389
398.445
377.979
358.008
338.547
319.61
301.204
283.342
266.028
249.265
233.056
217.403
202.306
187.761
173.765
160.313
147.399
135.019
123.163
111.824
100.993
90.6593
80.8128
71.4425
62.5372
54.0851
46.0743
38.4926
31.3276
24.5666
18.197
12.2059
6.58037
1.30765
-3.62514
-8.23078
-12.522
-16.5113
-20.2112
-23.634
-26.7918
-29.6965
-32.3598
-34.7933
-37.008
-39.0151
-40.8254
-42.4491
-43.8967
-45.178
-46.3027
-47.2802
-48.1196
-48.8296
-49.4188
-49.8955
-50.2675
-50.5426
-50.7282
-50.8314
-50.859
-50.8176
-50.7135
-50.5527
-50.3411
-50.0842
-49.7873
-49.4554
-49.0934
-48.7059
-48.2972
-47.8715
-47.4327
-46.9845
-46.5305
-46.074
-45.6182
-45.1661
-44.7203
-44.2836
-43.8584
-43.4469
-43.0513
-42.6735
-42.3154
-41.9785
-41.6646
-41.3748
-41.1106
-40.8729
-40.6628
-40.4812
-40.3287
-40.206
-40.1136
-40.0517