/*--------------------------------*- C++ -*----------------------------------*\
| =========                 |                                                 |
| \\      /  F ield         | OpenFOAM: The Open Source CFD Toolbox           |
|  \\    /   O peration     | Version:  2406                                  |
|   \\  /    A nd           | Website:  www.openfoam.com                      |
|    \\/     M anipulation  |                                                 |
\*---------------------------------------------------------------------------*/
FoamFile
{
    version     2.0;
    format      ascii;
    arch        "LSB;label=32;scalar=64";
    class       volScalarField;
    location    "70";
    object      T;
}
// * * * * * * * * * * * * * * * * * * * * * * * * * * * * * * * * * * * * * //

dimensions      [0 0 0 1 0 0 0];

internalField   nonuniform List<scalar> 
20000
(
300.978
300.947
300.916
300.885
300.855
300.826
300.796
300.768
300.74
300.713
300.686
300.66
300.634
300.609
300.585
300.562
300.539
300.517
300.495
300.474
300.454
300.434
300.415
300.397
300.379
300.362
300.345
300.329
300.314
300.299
300.285
300.271
300.258
300.246
300.234
300.222
300.211
300.2
300.19
300.18
300.171
300.162
300.153
300.145
300.138
300.13
300.123
300.116
300.11
300.104
300.098
300.092
300.087
300.082
300.077
300.073
300.069
300.065
300.061
300.057
300.054
300.05
300.047
300.044
300.042
300.039
300.037
300.034
300.032
300.03
300.028
300.026
300.024
300.023
300.021
300.02
300.018
300.017
300.016
300.015
300.014
300.013
300.012
300.011
300.01
300.009
300.008
300.007
300.007
300.006
300.005
300.005
300.004
300.004
300.003
300.002
300.002
300.001
300.001
300
302.935
302.841
302.747
302.656
302.565
302.476
302.389
302.304
302.22
302.138
302.057
301.979
301.903
301.828
301.755
301.685
301.616
301.549
301.485
301.422
301.361
301.302
301.245
301.19
301.137
301.086
301.036
300.988
300.942
300.898
300.855
300.814
300.775
300.737
300.701
300.666
300.633
300.601
300.57
300.541
300.513
300.486
300.46
300.436
300.412
300.39
300.369
300.349
300.33
300.311
300.294
300.277
300.261
300.246
300.232
300.219
300.206
300.194
300.182
300.171
300.161
300.151
300.142
300.133
300.125
300.117
300.11
300.103
300.096
300.09
300.084
300.079
300.073
300.068
300.064
300.059
300.055
300.051
300.048
300.044
300.041
300.038
300.035
300.032
300.029
300.027
300.025
300.022
300.02
300.018
300.016
300.014
300.012
300.011
300.009
300.007
300.006
300.004
300.002
300.001
304.89
304.733
304.578
304.425
304.275
304.127
303.981
303.839
303.699
303.562
303.428
303.298
303.17
303.046
302.925
302.807
302.693
302.582
302.474
302.369
302.268
302.17
302.075
301.983
301.895
301.809
301.726
301.647
301.57
301.496
301.425
301.357
301.291
301.228
301.168
301.11
301.054
301.001
300.95
300.901
300.854
300.81
300.767
300.726
300.687
300.65
300.615
300.581
300.549
300.519
300.49
300.462
300.436
300.411
300.387
300.364
300.343
300.323
300.304
300.286
300.268
300.252
300.237
300.222
300.208
300.195
300.183
300.171
300.16
300.15
300.14
300.131
300.122
300.114
300.106
300.099
300.092
300.086
300.079
300.074
300.068
300.063
300.058
300.054
300.049
300.045
300.041
300.037
300.034
300.03
300.027
300.024
300.021
300.018
300.015
300.012
300.009
300.007
300.004
300.001
306.845
306.625
306.408
306.194
305.983
305.776
305.573
305.373
305.177
304.986
304.799
304.616
304.437
304.264
304.094
303.929
303.769
303.614
303.463
303.316
303.175
303.037
302.904
302.776
302.652
302.532
302.416
302.305
302.198
302.094
301.995
301.899
301.808
301.719
301.635
301.553
301.475
301.401
301.329
301.261
301.196
301.133
301.073
301.016
300.962
300.91
300.861
300.813
300.769
300.726
300.685
300.646
300.61
300.575
300.542
300.51
300.48
300.452
300.425
300.4
300.376
300.353
300.331
300.311
300.292
300.273
300.256
300.24
300.224
300.21
300.196
300.183
300.171
300.16
300.149
300.139
300.129
300.12
300.111
300.103
300.095
300.088
300.081
300.075
300.069
300.063
300.057
300.052
300.047
300.042
300.038
300.033
300.029
300.025
300.021
300.017
300.013
300.009
300.006
300.002
308.798
308.515
308.236
307.961
307.69
307.424
307.162
306.906
306.654
306.408
306.168
305.933
305.703
305.48
305.262
305.051
304.845
304.645
304.451
304.263
304.08
303.904
303.733
303.568
303.408
303.254
303.106
302.963
302.825
302.692
302.564
302.441
302.323
302.21
302.101
301.997
301.896
301.801
301.709
301.621
301.537
301.456
301.38
301.306
301.236
301.17
301.106
301.046
300.988
300.933
300.881
300.831
300.784
300.739
300.696
300.656
300.617
300.581
300.546
300.514
300.483
300.453
300.426
300.4
300.375
300.351
300.329
300.308
300.288
300.27
300.252
300.236
300.22
300.205
300.191
300.178
300.166
300.154
300.143
300.133
300.123
300.113
300.105
300.096
300.088
300.081
300.074
300.067
300.06
300.054
300.048
300.043
300.037
300.032
300.027
300.022
300.017
300.012
300.007
300.002
310.748
310.403
310.062
309.726
309.395
309.07
308.75
308.437
308.13
307.829
307.535
307.248
306.968
306.695
306.429
306.17
305.919
305.675
305.438
305.208
304.985
304.769
304.561
304.359
304.164
303.976
303.795
303.62
303.451
303.289
303.133
302.983
302.838
302.7
302.567
302.439
302.317
302.2
302.088
301.98
301.878
301.779
301.686
301.596
301.511
301.429
301.351
301.277
301.207
301.14
301.076
301.015
300.957
300.903
300.85
300.801
300.754
300.71
300.668
300.628
300.59
300.554
300.52
300.488
300.458
300.429
300.402
300.377
300.352
300.33
300.308
300.288
300.269
300.251
300.234
300.218
300.202
300.188
300.175
300.162
300.15
300.139
300.128
300.118
300.108
300.099
300.09
300.082
300.074
300.066
300.059
300.052
300.045
300.039
300.033
300.026
300.02
300.015
300.009
300.003
312.696
312.289
311.886
311.489
311.098
310.714
310.336
309.966
309.603
309.248
308.901
308.562
308.231
307.908
307.594
307.289
306.992
306.703
306.423
306.151
305.888
305.634
305.387
305.149
304.919
304.697
304.482
304.276
304.077
303.885
303.7
303.523
303.353
303.189
303.032
302.881
302.737
302.598
302.466
302.339
302.218
302.102
301.991
301.885
301.784
301.688
301.596
301.509
301.426
301.346
301.271
301.199
301.131
301.066
301.005
300.946
300.891
300.838
300.789
300.741
300.697
300.654
300.614
300.577
300.541
300.507
300.475
300.445
300.416
300.389
300.364
300.34
300.317
300.296
300.276
300.257
300.239
300.222
300.206
300.191
300.177
300.164
300.151
300.139
300.127
300.117
300.106
300.097
300.087
300.078
300.07
300.062
300.054
300.046
300.039
300.031
300.024
300.017
300.01
300.003
314.641
314.171
313.707
313.249
312.798
312.355
311.92
311.492
311.074
310.665
310.264
309.873
309.492
309.12
308.757
308.405
308.063
307.73
307.407
307.094
306.79
306.497
306.212
305.938
305.672
305.416
305.169
304.931
304.701
304.48
304.267
304.063
303.866
303.677
303.496
303.323
303.156
302.996
302.844
302.697
302.558
302.424
302.296
302.174
302.058
301.947
301.841
301.74
301.644
301.552
301.465
301.383
301.304
301.229
301.158
301.091
301.027
300.967
300.909
300.855
300.803
300.755
300.709
300.665
300.624
300.585
300.548
300.513
300.48
300.449
300.42
300.392
300.366
300.342
300.318
300.296
300.276
300.256
300.238
300.221
300.204
300.189
300.174
300.16
300.147
300.135
300.123
300.111
300.101
300.09
300.08
300.071
300.062
300.053
300.044
300.036
300.028
300.02
300.012
300.004
316.583
316.05
315.524
315.006
314.495
313.993
313.5
313.016
312.542
312.078
311.625
311.182
310.75
310.329
309.919
309.519
309.131
308.755
308.389
308.034
307.691
307.358
307.036
306.725
306.424
306.134
305.854
305.584
305.324
305.074
304.833
304.601
304.379
304.165
303.96
303.763
303.575
303.394
303.221
303.055
302.897
302.745
302.601
302.462
302.331
302.205
302.085
301.971
301.862
301.758
301.66
301.566
301.477
301.392
301.312
301.236
301.163
301.095
301.03
300.968
300.91
300.855
300.802
300.753
300.706
300.662
300.62
300.581
300.544
300.509
300.475
300.444
300.415
300.387
300.361
300.336
300.312
300.29
300.269
300.25
300.231
300.214
300.197
300.181
300.167
300.152
300.139
300.126
300.114
300.102
300.091
300.08
300.07
300.06
300.05
300.041
300.032
300.022
300.013
300.004
318.52
317.925
317.338
316.759
316.188
315.628
315.077
314.537
314.007
313.489
312.983
312.488
312.006
311.535
311.077
310.632
310.198
309.777
309.369
308.973
308.589
308.217
307.858
307.511
307.175
306.851
306.538
306.237
305.946
305.667
305.398
305.139
304.89
304.652
304.423
304.203
303.992
303.79
303.597
303.412
303.235
303.066
302.904
302.75
302.603
302.462
302.329
302.201
302.079
301.964
301.854
301.749
301.65
301.555
301.465
301.38
301.299
301.223
301.15
301.081
301.016
300.955
300.896
300.841
300.789
300.739
300.693
300.649
300.607
300.568
300.531
300.496
300.463
300.432
300.403
300.375
300.349
300.324
300.301
300.279
300.258
300.239
300.22
300.203
300.186
300.17
300.155
300.141
300.127
300.114
300.102
300.09
300.078
300.067
300.056
300.046
300.035
300.025
300.015
300.005
320.452
319.795
319.147
318.507
317.878
317.258
316.65
316.054
315.469
314.897
314.338
313.792
313.259
312.739
312.233
311.741
311.262
310.798
310.347
309.909
309.485
309.075
308.678
308.294
307.924
307.566
307.22
306.887
306.567
306.258
305.961
305.675
305.401
305.137
304.884
304.641
304.409
304.186
303.972
303.768
303.573
303.386
303.207
303.037
302.874
302.719
302.571
302.431
302.296
302.169
302.047
301.932
301.822
301.717
301.618
301.524
301.435
301.35
301.27
301.194
301.122
301.054
300.99
300.929
300.871
300.817
300.765
300.717
300.671
300.627
300.586
300.548
300.511
300.477
300.445
300.414
300.385
300.358
300.332
300.308
300.285
300.264
300.243
300.224
300.205
300.188
300.171
300.156
300.141
300.126
300.112
300.099
300.086
300.074
300.062
300.05
300.039
300.028
300.017
300.006
322.38
321.661
320.951
320.252
319.563
318.885
318.219
317.567
316.927
316.301
315.689
315.091
314.508
313.94
313.386
312.848
312.324
311.815
311.322
310.843
310.379
309.93
309.496
309.076
308.67
308.279
307.901
307.537
307.186
306.848
306.523
306.21
305.91
305.621
305.344
305.079
304.824
304.58
304.347
304.123
303.909
303.705
303.51
303.323
303.145
302.976
302.814
302.66
302.513
302.373
302.24
302.114
301.993
301.879
301.771
301.668
301.57
301.478
301.39
301.307
301.228
301.154
301.083
301.016
300.953
300.894
300.837
300.784
300.734
300.686
300.642
300.599
300.56
300.522
300.487
300.453
300.422
300.392
300.364
300.337
300.312
300.288
300.266
300.245
300.225
300.206
300.188
300.17
300.154
300.138
300.123
300.109
300.095
300.081
300.068
300.055
300.043
300.03
300.018
300.006
324.302
323.521
322.751
321.991
321.243
320.507
319.784
319.075
318.381
317.701
317.037
316.387
315.754
315.137
314.536
313.951
313.382
312.83
312.294
311.774
311.271
310.783
310.311
309.855
309.415
308.99
308.579
308.184
307.803
307.436
307.083
306.743
306.417
306.104
305.803
305.515
305.238
304.974
304.72
304.477
304.245
304.023
303.811
303.609
303.416
303.231
303.056
302.888
302.729
302.577
302.432
302.295
302.165
302.041
301.923
301.811
301.705
301.605
301.509
301.419
301.334
301.253
301.176
301.104
301.035
300.97
300.909
300.851
300.797
300.745
300.697
300.651
300.608
300.567
300.528
300.492
300.458
300.425
300.395
300.366
300.339
300.313
300.289
300.266
300.244
300.223
300.204
300.185
300.167
300.15
300.134
300.118
300.103
300.088
300.074
300.06
300.046
300.033
300.02
300.007
326.218
325.376
324.544
323.725
322.917
322.124
321.344
320.579
319.83
319.097
318.38
317.68
316.996
316.33
315.682
315.051
314.437
313.842
313.263
312.703
312.159
311.633
311.124
310.632
310.157
309.698
309.256
308.829
308.418
308.022
307.641
307.275
306.923
306.585
306.261
305.95
305.651
305.366
305.092
304.83
304.58
304.34
304.112
303.893
303.685
303.486
303.296
303.116
302.944
302.78
302.624
302.476
302.335
302.201
302.074
301.954
301.84
301.731
301.628
301.531
301.439
301.351
301.269
301.191
301.117
301.047
300.981
300.919
300.86
300.804
300.752
300.702
300.656
300.612
300.57
300.531
300.494
300.459
300.426
300.395
300.366
300.338
300.312
300.287
300.263
300.241
300.22
300.199
300.18
300.162
300.144
300.127
300.111
300.095
300.08
300.065
300.05
300.035
300.021
300.007
328.127
327.224
326.332
325.453
324.587
323.735
322.899
322.078
321.274
320.488
319.718
318.967
318.234
317.52
316.824
316.147
315.489
314.85
314.229
313.628
313.045
312.481
311.935
311.407
310.897
310.405
309.93
309.472
309.031
308.606
308.198
307.805
307.427
307.065
306.717
306.383
306.063
305.757
305.463
305.182
304.913
304.657
304.411
304.177
303.953
303.74
303.536
303.343
303.158
302.983
302.815
302.656
302.505
302.362
302.226
302.096
301.974
301.857
301.747
301.642
301.543
301.45
301.361
301.277
301.198
301.123
301.052
300.985
300.922
300.863
300.806
300.753
300.703
300.656
300.612
300.569
300.53
300.492
300.457
300.424
300.392
300.363
300.334
300.308
300.282
300.258
300.236
300.214
300.193
300.174
300.155
300.136
300.119
300.102
300.085
300.069
300.054
300.038
300.023
300.008
330.03
329.066
328.113
327.174
326.25
325.34
324.448
323.572
322.713
321.873
321.052
320.25
319.468
318.705
317.962
317.239
316.537
315.854
315.192
314.55
313.927
313.325
312.742
312.178
311.634
311.109
310.602
310.113
309.642
309.189
308.752
308.333
307.93
307.543
307.171
306.815
306.473
306.146
305.832
305.533
305.246
304.971
304.709
304.459
304.221
303.993
303.776
303.569
303.372
303.184
303.006
302.836
302.675
302.522
302.376
302.238
302.107
301.983
301.865
301.753
301.648
301.548
301.453
301.364
301.279
301.199
301.124
301.052
300.985
300.921
300.861
300.804
300.751
300.7
300.653
300.608
300.566
300.526
300.488
300.452
300.419
300.387
300.357
300.329
300.302
300.276
300.252
300.229
300.206
300.185
300.165
300.146
300.127
300.109
300.091
300.074
300.057
300.041
300.024
300.008
331.925
330.9
329.888
328.889
327.906
326.94
325.99
325.059
324.147
323.254
322.381
321.528
320.696
319.885
319.096
318.327
317.58
316.855
316.151
315.468
314.806
314.166
313.546
312.947
312.368
311.81
311.271
310.751
310.25
309.768
309.305
308.859
308.43
308.019
307.624
307.245
306.882
306.534
306.201
305.882
305.577
305.285
305.007
304.741
304.487
304.245
304.014
303.794
303.585
303.385
303.195
303.015
302.844
302.681
302.526
302.379
302.24
302.108
301.983
301.864
301.752
301.646
301.545
301.45
301.36
301.275
301.194
301.119
301.047
300.979
300.915
300.855
300.798
300.745
300.694
300.646
300.601
300.559
300.519
300.481
300.445
300.411
300.38
300.349
300.321
300.293
300.268
300.243
300.219
300.197
300.176
300.155
300.135
300.116
300.097
300.079
300.061
300.043
300.026
300.009
333.813
332.727
331.654
330.597
329.556
328.532
327.527
326.541
325.574
324.629
323.704
322.801
321.92
321.061
320.224
319.411
318.62
317.851
317.105
316.382
315.682
315.003
314.347
313.712
313.099
312.508
311.937
311.387
310.856
310.346
309.855
309.382
308.929
308.493
308.074
307.673
307.289
306.92
306.567
306.229
305.906
305.598
305.303
305.021
304.752
304.496
304.251
304.018
303.797
303.585
303.384
303.193
303.012
302.839
302.675
302.52
302.372
302.233
302.1
301.974
301.855
301.743
301.636
301.535
301.44
301.35
301.265
301.185
301.109
301.037
300.97
300.906
300.846
300.789
300.735
300.685
300.637
300.592
300.549
300.509
300.472
300.436
300.402
300.37
300.34
300.311
300.283
300.257
300.232
300.209
300.186
300.164
300.143
300.122
300.103
300.083
300.064
300.046
300.027
300.009
335.692
334.545
333.413
332.297
331.199
330.118
329.057
328.016
326.996
325.997
325.021
324.068
323.138
322.231
321.348
320.489
319.654
318.843
318.056
317.293
316.553
315.837
315.144
314.474
313.827
313.203
312.6
312.019
311.46
310.921
310.402
309.904
309.425
308.965
308.523
308.1
307.694
307.305
306.932
306.576
306.235
305.909
305.597
305.3
305.016
304.746
304.488
304.242
304.007
303.785
303.572
303.371
303.179
302.997
302.824
302.66
302.504
302.357
302.217
302.084
301.958
301.84
301.727
301.621
301.52
301.425
301.335
301.25
301.17
301.095
301.023
300.956
300.892
300.833
300.776
300.723
300.672
300.625
300.58
300.538
300.498
300.46
300.424
300.39
300.358
300.328
300.299
300.272
300.245
300.22
300.196
300.173
300.151
300.129
300.108
300.088
300.068
300.048
300.029
300.01
337.562
336.355
335.164
333.99
332.833
331.696
330.579
329.484
328.41
327.359
326.332
325.329
324.35
323.396
322.467
321.563
320.684
319.83
319.002
318.199
317.42
316.667
315.938
315.233
314.552
313.895
313.26
312.649
312.06
311.493
310.947
310.423
309.919
309.434
308.97
308.524
308.097
307.687
307.295
306.92
306.561
306.218
305.891
305.578
305.279
304.994
304.723
304.464
304.217
303.983
303.76
303.547
303.346
303.154
302.972
302.799
302.635
302.48
302.333
302.193
302.061
301.936
301.818
301.706
301.6
301.5
301.405
301.316
301.232
301.152
301.077
301.006
300.939
300.876
300.817
300.761
300.708
300.658
300.61
300.566
300.524
300.484
300.447
300.411
300.377
300.345
300.315
300.286
300.258
300.232
300.206
300.182
300.159
300.136
300.114
300.093
300.072
300.051
300.03
300.01
339.423
338.157
336.906
335.674
334.46
333.266
332.094
330.944
329.818
328.715
327.637
326.584
325.557
324.555
323.58
322.631
321.709
320.813
319.943
319.1
318.283
317.492
316.727
315.988
315.273
314.583
313.917
313.276
312.658
312.062
311.49
310.939
310.41
309.902
309.414
308.946
308.498
308.068
307.657
307.263
306.886
306.526
306.182
305.854
305.541
305.242
304.957
304.685
304.426
304.18
303.946
303.723
303.511
303.31
303.119
302.938
302.766
302.603
302.448
302.302
302.163
302.032
301.908
301.79
301.679
301.574
301.475
301.381
301.293
301.209
301.13
301.056
300.986
300.92
300.857
300.798
300.743
300.69
300.641
300.594
300.55
300.508
300.469
300.431
300.396
300.362
300.33
300.3
300.271
300.243
300.217
300.191
300.167
300.143
300.12
300.097
300.075
300.053
300.032
300.011
341.274
339.948
338.639
337.349
336.078
334.828
333.601
332.397
331.218
330.063
328.935
327.832
326.757
325.708
324.687
323.694
322.728
321.79
320.88
319.997
319.142
318.314
317.513
316.738
315.99
315.268
314.571
313.899
313.252
312.629
312.029
311.453
310.899
310.367
309.856
309.366
308.897
308.447
308.016
307.604
307.21
306.833
306.473
306.129
305.801
305.488
305.189
304.905
304.634
304.376
304.131
303.898
303.676
303.466
303.266
303.076
302.896
302.725
302.563
302.41
302.265
302.127
301.997
301.874
301.758
301.648
301.544
301.446
301.353
301.266
301.183
301.106
301.032
300.963
300.897
300.836
300.777
300.723
300.671
300.622
300.576
300.532
300.491
300.452
300.414
300.379
300.346
300.314
300.284
300.255
300.227
300.2
300.174
300.149
300.125
300.102
300.079
300.056
300.033
300.011
343.115
341.73
340.363
339.015
337.687
336.382
335.1
333.842
332.61
331.404
330.225
329.074
327.95
326.855
325.788
324.751
323.742
322.762
321.811
320.889
319.996
319.131
318.294
317.485
316.703
315.949
315.221
314.519
313.843
313.192
312.566
311.964
311.385
310.829
310.296
309.784
309.294
308.824
308.374
307.943
307.531
307.138
306.762
306.402
306.06
305.733
305.421
305.124
304.841
304.572
304.316
304.072
303.84
303.62
303.411
303.213
303.025
302.847
302.678
302.518
302.366
302.222
302.086
301.958
301.836
301.722
301.613
301.511
301.414
301.322
301.236
301.155
301.078
301.006
300.937
300.873
300.812
300.755
300.701
300.65
300.601
300.556
300.513
300.472
300.433
300.396
300.361
300.328
300.296
300.266
300.237
300.209
300.182
300.156
300.131
300.106
300.082
300.058
300.035
300.012
344.945
343.502
342.076
340.671
339.287
337.926
336.59
335.279
333.995
332.737
331.508
330.308
329.137
327.995
326.883
325.802
324.75
323.728
322.737
321.776
320.845
319.943
319.071
318.227
317.412
316.626
315.867
315.136
314.431
313.752
313.099
312.472
311.868
311.289
310.733
310.2
309.688
309.198
308.729
308.28
307.851
307.441
307.049
306.674
306.317
305.976
305.651
305.341
305.046
304.766
304.499
304.245
304.003
303.774
303.556
303.35
303.153
302.968
302.791
302.624
302.466
302.317
302.175
302.041
301.914
301.795
301.682
301.575
301.474
301.379
301.289
301.204
301.124
301.048
300.977
300.91
300.847
300.787
300.73
300.677
300.627
300.579
300.534
300.492
300.451
300.413
300.377
300.342
300.309
300.277
300.247
300.218
300.19
300.163
300.136
300.111
300.086
300.061
300.036
300.012
346.764
345.263
343.78
342.317
340.878
339.462
338.071
336.707
335.371
334.063
332.784
331.535
330.316
329.128
327.971
326.846
325.752
324.689
323.658
322.657
321.688
320.75
319.842
318.965
318.117
317.299
316.509
315.748
315.015
314.309
313.63
312.976
312.349
311.746
311.167
310.612
310.08
309.571
309.083
308.616
308.169
307.742
307.334
306.944
306.573
306.218
305.88
305.558
305.251
304.959
304.681
304.417
304.165
303.927
303.7
303.485
303.281
303.088
302.904
302.731
302.566
302.41
302.263
302.124
301.992
301.867
301.75
301.638
301.533
301.434
301.341
301.253
301.169
301.091
301.017
300.947
300.881
300.819
300.76
300.705
300.652
300.603
300.556
300.512
300.47
300.43
300.392
300.356
300.321
300.289
300.257
300.227
300.198
300.169
300.142
300.115
300.089
300.063
300.038
300.013
348.572
347.012
345.472
343.953
342.458
340.987
339.543
338.126
336.738
335.379
334.051
332.754
331.488
330.254
329.053
327.884
326.747
325.643
324.572
323.533
322.527
321.552
320.609
319.698
318.818
317.968
317.148
316.357
315.595
314.862
314.156
313.478
312.826
312.2
311.599
311.023
310.47
309.941
309.434
308.949
308.485
308.041
307.617
307.213
306.827
306.458
306.107
305.772
305.454
305.15
304.862
304.587
304.326
304.079
303.843
303.62
303.408
303.207
303.017
302.836
302.665
302.504
302.35
302.206
302.069
301.939
301.817
301.702
301.593
301.49
301.393
301.301
301.215
301.133
301.056
300.983
300.915
300.85
300.789
300.732
300.677
300.626
300.577
300.531
300.488
300.446
300.407
300.37
300.334
300.3
300.267
300.236
300.205
300.176
300.147
300.12
300.092
300.066
300.039
300.013
350.368
348.75
347.153
345.578
344.027
342.502
341.005
339.536
338.096
336.687
335.31
333.965
332.652
331.373
330.127
328.915
327.736
326.591
325.481
324.403
323.36
322.349
321.371
320.426
319.513
318.632
317.781
316.962
316.172
315.411
314.68
313.976
313.3
312.651
312.028
311.43
310.857
310.308
309.783
309.28
308.798
308.338
307.899
307.479
307.079
306.697
306.333
305.986
305.655
305.341
305.041
304.757
304.486
304.229
303.985
303.754
303.534
303.326
303.128
302.941
302.764
302.596
302.437
302.287
302.145
302.011
301.884
301.765
301.652
301.545
301.444
301.349
301.259
301.175
301.095
301.02
300.949
300.882
300.819
300.759
300.702
300.649
300.599
300.551
300.506
300.463
300.422
300.383
300.346
300.311
300.277
300.244
300.213
300.182
300.153
300.124
300.096
300.068
300.041
300.014
352.151
350.476
348.823
347.192
345.586
344.007
342.457
340.935
339.445
337.986
336.56
335.167
333.808
332.483
331.193
329.938
328.718
327.533
326.383
325.267
324.187
323.14
322.128
321.15
320.204
319.291
318.411
317.562
316.744
315.957
315.2
314.471
313.771
313.099
312.454
311.835
311.242
310.673
310.129
309.608
309.11
308.634
308.179
307.744
307.33
306.934
306.557
306.198
305.856
305.53
305.22
304.925
304.645
304.379
304.126
303.887
303.659
303.443
303.239
303.045
302.862
302.688
302.524
302.368
302.221
302.082
301.951
301.827
301.71
301.6
301.495
301.397
301.304
301.216
301.134
301.056
300.982
300.913
300.848
300.786
300.727
300.672
300.62
300.571
300.524
300.479
300.437
300.397
300.358
300.322
300.287
300.253
300.22
300.189
300.158
300.128
300.099
300.071
300.042
300.014
353.922
352.19
350.48
348.794
347.134
345.501
343.898
342.325
340.784
339.276
337.801
336.361
334.956
333.586
332.252
330.955
329.693
328.468
327.278
326.125
325.008
323.926
322.879
321.868
320.89
319.946
319.036
318.158
317.313
316.499
315.716
314.962
314.239
313.544
312.877
312.237
311.623
311.036
310.473
309.934
309.419
308.927
308.456
308.007
307.578
307.169
306.78
306.408
306.054
305.718
305.397
305.093
304.803
304.528
304.267
304.019
303.783
303.56
303.349
303.149
302.959
302.779
302.609
302.449
302.297
302.153
302.017
301.889
301.768
301.654
301.546
301.444
301.348
301.258
301.172
301.092
301.016
300.944
300.876
300.812
300.752
300.695
300.641
300.59
300.541
300.496
300.452
300.41
300.371
300.333
300.296
300.262
300.228
300.195
300.164
300.133
300.103
300.073
300.044
300.015
355.679
353.891
352.125
350.384
348.67
346.984
345.328
343.704
342.113
340.556
339.033
337.546
336.095
334.681
333.303
331.963
330.661
329.395
328.167
326.976
325.823
324.706
323.625
322.58
321.571
320.596
319.656
318.75
317.877
317.037
316.228
315.45
314.703
313.985
313.296
312.635
312.002
311.395
310.814
310.258
309.726
309.218
308.732
308.268
307.825
307.403
307.001
306.617
306.252
305.904
305.573
305.258
304.959
304.675
304.406
304.15
303.907
303.676
303.458
303.251
303.055
302.87
302.694
302.528
302.372
302.223
302.083
301.951
301.826
301.708
301.596
301.491
301.392
301.299
301.211
301.127
301.049
300.975
300.905
300.839
300.777
300.718
300.662
300.609
300.559
300.512
300.467
300.424
300.383
300.344
300.306
300.27
300.235
300.202
300.169
300.137
300.106
300.075
300.045
300.015
357.422
355.578
353.757
351.962
350.194
348.455
346.748
345.073
343.432
341.826
340.255
338.722
337.225
335.767
334.346
332.964
331.621
330.316
329.049
327.821
326.631
325.479
324.365
323.287
322.246
321.241
320.272
319.337
318.437
317.57
316.736
315.934
315.163
314.423
313.712
313.031
312.378
311.752
311.153
310.579
310.031
309.506
309.005
308.527
308.07
307.635
307.22
306.824
306.447
306.089
305.748
305.423
305.115
304.822
304.544
304.279
304.029
303.791
303.566
303.353
303.151
302.96
302.779
302.608
302.446
302.293
302.148
302.012
301.883
301.761
301.646
301.538
301.436
301.339
301.248
301.163
301.082
301.005
300.933
300.865
300.801
300.74
300.683
300.628
300.577
300.528
300.481
300.437
300.395
300.354
300.316
300.278
300.243
300.208
300.174
300.141
300.109
300.078
300.046
300.015
359.152
357.252
355.376
353.526
351.705
349.914
348.155
346.43
344.74
343.085
341.468
339.888
338.346
336.844
335.381
333.957
332.573
331.229
329.924
328.659
327.433
326.247
325.098
323.988
322.916
321.881
320.882
319.92
318.992
318.099
317.24
316.414
315.62
314.857
314.125
313.423
312.751
312.106
311.489
310.898
310.333
309.793
309.276
308.784
308.313
307.865
307.437
307.03
306.642
306.272
305.921
305.586
305.269
304.967
304.68
304.408
304.15
303.906
303.674
303.454
303.246
303.049
302.862
302.686
302.519
302.362
302.213
302.072
301.94
301.814
301.696
301.584
301.479
301.38
301.286
301.198
301.114
301.036
300.961
300.891
300.825
300.762
300.703
300.647
300.594
300.544
300.496
300.45
300.407
300.365
300.325
300.287
300.25
300.214
300.18
300.146
300.113
300.08
300.048
300.016
360.866
358.911
356.981
355.078
353.204
351.361
349.551
347.776
346.036
344.334
342.67
341.044
339.458
337.912
336.406
334.941
333.517
332.134
330.791
329.49
328.228
327.007
325.826
324.684
323.58
322.515
321.488
320.497
319.543
318.624
317.74
316.889
316.072
315.288
314.535
313.813
313.12
312.457
311.822
311.214
310.632
310.076
309.545
309.038
308.554
308.093
307.653
307.233
306.834
306.454
306.092
305.748
305.421
305.111
304.816
304.536
304.271
304.019
303.78
303.554
303.34
303.137
302.945
302.764
302.592
302.43
302.277
302.133
301.996
301.867
301.745
301.63
301.522
301.42
301.323
301.232
301.147
301.066
300.989
300.917
300.849
300.784
300.724
300.666
300.611
300.559
300.51
300.463
300.418
300.376
300.335
300.295
300.257
300.22
300.185
300.15
300.116
300.082
300.049
300.016
362.566
360.557
358.572
356.616
354.69
352.795
350.935
349.11
347.322
345.572
343.861
342.19
340.56
338.97
337.423
335.917
334.453
333.031
331.651
330.313
329.017
327.761
326.547
325.373
324.239
323.144
322.088
321.069
320.088
319.144
318.235
317.361
316.521
315.715
314.941
314.198
313.487
312.805
312.152
311.527
310.929
310.358
309.812
309.291
308.793
308.319
307.866
307.435
307.025
306.634
306.262
305.909
305.573
305.254
304.95
304.663
304.39
304.131
303.886
303.653
303.433
303.225
303.028
302.841
302.665
302.498
302.341
302.192
302.052
301.919
301.794
301.676
301.564
301.459
301.36
301.267
301.179
301.095
301.017
300.943
300.873
300.806
300.744
300.684
300.628
300.575
300.524
300.476
300.43
300.386
300.344
300.303
300.264
300.227
300.19
300.154
300.119
300.085
300.051
300.017
364.25
362.187
360.149
358.14
356.162
354.217
352.306
350.432
348.596
346.799
345.042
343.326
341.651
340.019
338.43
336.884
335.38
333.92
332.503
331.129
329.798
328.509
327.262
326.056
324.891
323.767
322.682
321.637
320.629
319.659
318.726
317.828
316.966
316.138
315.343
314.581
313.85
313.149
312.479
311.837
311.223
310.637
310.076
309.541
309.03
308.543
308.078
307.636
307.214
306.813
306.431
306.068
305.723
305.395
305.084
304.788
304.508
304.242
303.99
303.752
303.526
303.312
303.109
302.918
302.737
302.565
302.404
302.251
302.107
301.971
301.842
301.721
301.607
301.499
301.397
301.301
301.21
301.125
301.044
300.968
300.896
300.828
300.764
300.703
300.645
300.59
300.538
300.489
300.442
300.396
300.353
300.312
300.271
300.233
300.195
300.158
300.122
300.087
300.052
300.017
365.918
363.801
361.711
359.65
357.62
355.624
353.664
351.742
349.858
348.014
346.211
344.451
342.733
341.059
339.428
337.841
336.299
334.801
333.347
331.938
330.572
329.249
327.97
326.733
325.538
324.384
323.271
322.198
321.165
320.17
319.212
318.291
317.407
316.557
315.741
314.959
314.209
313.491
312.803
312.144
311.515
310.913
310.338
309.789
309.264
308.765
308.288
307.834
307.401
306.99
306.598
306.225
305.871
305.535
305.216
304.913
304.625
304.352
304.094
303.849
303.617
303.398
303.19
302.993
302.808
302.632
302.466
302.31
302.162
302.022
301.89
301.766
301.648
301.538
301.433
301.335
301.242
301.154
301.071
300.993
300.919
300.85
300.784
300.721
300.662
300.606
300.552
300.502
300.453
300.407
300.362
300.32
300.279
300.239
300.2
300.162
300.125
300.089
300.053
300.018
367.57
365.4
363.258
361.145
359.064
357.018
355.009
353.038
351.107
349.217
347.369
345.565
343.804
342.088
340.416
338.79
337.209
335.673
334.183
332.738
331.338
329.982
328.671
327.403
326.178
324.995
323.854
322.755
321.695
320.675
319.694
318.75
317.843
316.972
316.136
315.334
314.565
313.829
313.124
312.449
311.803
311.186
310.597
310.034
309.497
308.984
308.496
308.03
307.587
307.165
306.763
306.382
306.019
305.674
305.346
305.036
304.741
304.461
304.196
303.945
303.708
303.483
303.27
303.068
302.878
302.698
302.528
302.367
302.216
302.073
301.937
301.81
301.69
301.576
301.469
301.368
301.273
301.183
301.098
301.018
300.942
300.871
300.803
300.739
300.679
300.621
300.566
300.514
300.464