/*--------------------------------*- C++ -*----------------------------------*\
| =========                 |                                                 |
| \\      /  F ield         | OpenFOAM: The Open Source CFD Toolbox           |
|  \\    /   O peration     | Version:  2406                                  |
|   \\  /    A nd           | Website:  www.openfoam.com                      |
|    \\/     M anipulation  |                                                 |
\*---------------------------------------------------------------------------*/
FoamFile
{
    version     2.0;
    format      ascii;
    arch        "LSB;label=32;scalar=64";
    class       volScalarField;
    location    "90";
    object      T;
}
// * * * * * * * * * * * * * * * * * * * * * * * * * * * * * * * * * * * * * //

dimensions      [0 0 0 1 0 0 0];

internalField   nonuniform List<scalar> 
20000
(
300.859
300.846
300.832
300.818
300.803
300.788
300.772
300.756
300.74
300.723
300.706
300.689
300.672
300.655
300.637
300.62
300.603
300.586
300.569
300.552
300.535
300.519
300.503
300.487
300.471
300.455
300.44
300.425
300.41
300.396
300.382
300.368
300.354
300.341
300.328
300.316
300.304
300.292
300.28
300.269
300.258
300.248
300.238
300.228
300.218
300.209
300.2
300.191
300.183
300.175
300.167
300.16
300.152
300.145
300.139
300.132
300.126
300.12
300.114
300.109
300.103
300.098
300.093
300.089
300.084
300.08
300.076
300.072
300.068
300.064
300.061
300.057
300.054
300.051
300.048
300.045
300.043
300.04
300.038
300.035
300.033
300.031
300.029
300.026
300.025
300.023
300.021
300.019
300.017
300.016
300.014
300.012
300.011
300.009
300.008
300.006
300.005
300.004
300.002
300.001
302.577
302.538
302.497
302.454
302.41
302.364
302.316
302.268
302.218
302.168
302.118
302.066
302.015
301.963
301.912
301.86
301.809
301.757
301.706
301.656
301.606
301.556
301.508
301.459
301.412
301.365
301.32
301.275
301.23
301.187
301.145
301.103
301.063
301.024
300.985
300.948
300.911
300.876
300.841
300.808
300.775
300.743
300.713
300.683
300.654
300.627
300.6
300.574
300.549
300.524
300.501
300.479
300.457
300.436
300.416
300.396
300.378
300.36
300.342
300.326
300.31
300.295
300.28
300.266
300.252
300.239
300.227
300.215
300.204
300.193
300.182
300.172
300.162
300.153
300.144
300.136
300.128
300.12
300.113
300.105
300.099
300.092
300.086
300.079
300.074
300.068
300.062
300.057
300.052
300.047
300.042
300.037
300.033
300.028
300.024
300.019
300.015
300.011
300.006
300.002
304.294
304.23
304.161
304.09
304.016
303.939
303.86
303.779
303.697
303.613
303.529
303.444
303.358
303.272
303.186
303.1
303.014
302.928
302.843
302.759
302.676
302.594
302.512
302.432
302.353
302.275
302.199
302.124
302.05
301.978
301.908
301.839
301.771
301.706
301.642
301.579
301.518
301.459
301.402
301.346
301.292
301.239
301.188
301.138
301.091
301.044
300.999
300.956
300.914
300.874
300.835
300.797
300.761
300.726
300.693
300.66
300.629
300.599
300.571
300.543
300.516
300.491
300.466
300.443
300.42
300.399
300.378
300.358
300.339
300.321
300.303
300.287
300.271
300.255
300.241
300.227
300.213
300.2
300.188
300.176
300.164
300.153
300.143
300.132
300.122
300.113
300.104
300.095
300.086
300.078
300.07
300.062
300.054
300.047
300.039
300.032
300.025
300.018
300.011
300.004
306.01
305.92
305.824
305.724
305.62
305.513
305.402
305.289
305.174
305.057
304.939
304.82
304.7
304.579
304.459
304.338
304.218
304.099
303.98
303.862
303.746
303.63
303.516
303.404
303.293
303.185
303.078
302.973
302.87
302.769
302.67
302.574
302.479
302.387
302.298
302.21
302.125
302.042
301.962
301.884
301.808
301.734
301.663
301.593
301.526
301.462
301.399
301.338
301.28
301.223
301.169
301.116
301.065
301.017
300.97
300.924
300.881
300.839
300.799
300.76
300.723
300.687
300.653
300.62
300.588
300.558
300.529
300.501
300.475
300.449
300.425
300.401
300.379
300.357
300.337
300.317
300.298
300.28
300.263
300.246
300.23
300.214
300.199
300.185
300.171
300.158
300.145
300.133
300.121
300.109
300.098
300.087
300.076
300.065
300.055
300.045
300.035
300.025
300.015
300.005
307.725
307.609
307.486
307.357
307.224
307.086
306.944
306.798
306.65
306.5
306.348
306.195
306.041
305.886
305.731
305.576
305.422
305.268
305.115
304.964
304.814
304.666
304.519
304.375
304.233
304.093
303.956
303.821
303.688
303.559
303.432
303.308
303.187
303.069
302.953
302.841
302.732
302.625
302.522
302.421
302.323
302.229
302.137
302.048
301.962
301.879
301.798
301.72
301.645
301.572
301.502
301.435
301.369
301.307
301.246
301.188
301.132
301.078
301.026
300.977
300.929
300.883
300.839
300.797
300.756
300.717
300.68
300.644
300.61
300.577
300.546
300.516
300.487
300.459
300.433
300.407
300.383
300.36
300.337
300.316
300.295
300.275
300.256
300.238
300.22
300.203
300.187
300.171
300.155
300.14
300.126
300.112
300.098
300.084
300.071
300.058
300.045
300.032
300.019
300.006
309.438
309.296
309.146
308.989
308.825
308.657
308.483
308.306
308.125
307.941
307.756
307.568
307.38
307.191
307.001
306.812
306.624
306.436
306.25
306.065
305.881
305.7
305.522
305.345
305.171
305.001
304.833
304.668
304.506
304.348
304.193
304.041
303.893
303.749
303.608
303.471
303.337
303.207
303.081
302.958
302.839
302.723
302.611
302.502
302.397
302.295
302.197
302.102
302.01
301.921
301.835
301.753
301.673
301.596
301.522
301.451
301.383
301.317
301.254
301.193
301.135
301.079
301.025
300.973
300.924
300.876
300.831
300.787
300.745
300.705
300.667
300.63
300.595
300.561
300.529
300.498
300.468
300.44
300.412
300.386
300.361
300.337
300.313
300.291
300.269
300.248
300.228
300.209
300.19
300.171
300.154
300.136
300.119
300.103
300.086
300.07
300.054
300.039
300.023
300.008
311.148
310.981
310.803
310.618
310.425
310.226
310.021
309.811
309.598
309.381
309.161
308.94
308.717
308.494
308.27
308.047
307.824
307.602
307.382
307.164
306.947
306.733
306.522
306.314
306.109
305.907
305.709
305.514
305.323
305.136
304.953
304.774
304.599
304.428
304.262
304.1
303.942
303.788
303.639
303.494
303.353
303.216
303.084
302.956
302.831
302.711
302.595
302.482
302.374
302.269
302.168
302.07
301.976
301.886
301.798
301.714
301.634
301.556
301.481
301.409
301.34
301.274
301.211
301.15
301.091
301.035
300.981
300.93
300.881
300.833
300.788
300.744
300.703
300.663
300.625
300.588
300.553
300.519
300.487
300.456
300.426
300.398
300.37
300.344
300.318
300.293
300.27
300.247
300.224
300.203
300.182
300.161
300.141
300.121
300.102
300.083
300.064
300.046
300.027
300.009
312.856
312.663
312.458
312.244
312.022
311.792
311.556
311.314
311.068
310.818
310.565
310.31
310.053
309.795
309.537
309.28
309.023
308.767
308.513
308.261
308.012
307.765
307.521
307.281
307.044
306.812
306.583
306.358
306.138
305.923
305.711
305.505
305.303
305.107
304.915
304.728
304.546
304.369
304.196
304.029
303.867
303.709
303.556
303.408
303.265
303.126
302.992
302.863
302.737
302.617
302.5
302.387
302.279
302.174
302.074
301.977
301.884
301.794
301.708
301.625
301.546
301.47
301.396
301.326
301.259
301.194
301.132
301.072
301.015
300.961
300.909
300.858
300.81
300.764
300.72
300.678
300.638
300.599
300.562
300.526
300.491
300.458
300.427
300.396
300.367
300.338
300.311
300.284
300.259
300.234
300.209
300.186
300.163
300.14
300.118
300.096
300.074
300.053
300.032
300.011
314.561
314.341
314.11
313.868
313.616
313.355
313.088
312.814
312.535
312.252
311.965
311.676
311.386
311.094
310.802
310.51
310.219
309.929
309.642
309.356
309.074
308.794
308.519
308.246
307.978
307.715
307.456
307.201
306.952
306.708
306.469
306.235
306.007
305.784
305.566
305.355
305.148
304.948
304.753
304.563
304.379
304.201
304.028
303.86
303.698
303.541
303.389
303.242
303.1
302.963
302.831
302.704
302.581
302.463
302.349
302.239
302.134
302.032
301.935
301.841
301.751
301.664
301.581
301.502
301.425
301.352
301.282
301.215
301.15
301.088
301.029
300.972
300.918
300.866
300.816
300.768
300.722
300.678
300.636
300.595
300.557
300.519
300.483
300.449
300.415
300.383
300.352
300.322
300.293
300.265
300.237
300.21
300.184
300.158
300.133
300.108
300.084
300.06
300.036
300.012
316.262
316.017
315.758
315.488
315.206
314.916
314.617
314.311
313.999
313.683
313.363
313.04
312.716
312.39
312.064
311.738
311.413
311.089
310.768
310.449
310.134
309.822
309.514
309.21
308.91
308.616
308.327
308.043
307.764
307.491
307.224
306.963
306.708
306.459
306.217
305.98
305.75
305.526
305.308
305.096
304.891
304.692
304.498
304.311
304.13
303.955
303.785
303.621
303.463
303.31
303.162
303.02
302.883
302.75
302.623
302.501
302.383
302.27
302.161
302.056
301.955
301.859
301.766
301.677
301.592
301.51
301.432
301.356
301.284
301.215
301.149
301.086
301.025
300.967
300.911
300.858
300.807
300.757
300.71
300.665
300.622
300.58
300.54
300.501
300.464
300.428
300.393
300.36
300.327
300.295
300.265
300.235
300.206
300.177
300.149
300.121
300.094
300.067
300.04
300.013
317.959
317.688
317.403
317.104
316.793
316.472
316.142
315.804
315.46
315.111
314.758
314.401
314.043
313.683
313.322
312.962
312.604
312.246
311.892
311.54
311.191
310.847
310.506
310.171
309.84
309.515
309.196
308.882
308.574
308.273
307.978
307.69
307.408
307.134
306.865
306.604
306.35
306.103
305.862
305.628
305.401
305.181
304.968
304.761
304.561
304.367
304.18
303.999
303.824
303.655
303.492
303.335
303.183
303.037
302.897
302.762
302.632
302.506
302.386
302.27
302.159
302.053
301.95
301.852
301.758
301.668
301.581
301.498
301.418
301.342
301.269
301.199
301.132
301.068
301.006
300.947
300.891
300.836
300.784
300.734
300.686
300.64
300.596
300.553
300.512
300.473
300.434
300.397
300.361
300.326
300.292
300.259
300.227
300.195
300.164
300.134
300.104
300.074
300.044
300.015
319.651
319.355
319.043
318.716
318.376
318.024
317.663
317.294
316.917
316.535
316.149
315.758
315.366
314.972
314.578
314.184
313.791
313.401
313.012
312.627
312.246
311.869
311.497
311.129
310.768
310.412
310.062
309.719
309.383
309.053
308.73
308.415
308.107
307.806
307.513
307.227
306.948
306.678
306.414
306.159
305.91
305.67
305.436
305.21
304.991
304.779
304.574
304.376
304.184
303.999
303.821
303.649
303.483
303.324
303.17
303.022
302.88
302.743
302.611
302.484
302.363
302.246
302.134
302.027
301.924
301.825
301.73
301.639
301.552
301.469
301.389
301.312
301.239
301.168
301.101
301.037
300.975
300.915
300.858
300.804
300.751
300.701
300.652
300.606
300.561
300.517
300.475
300.435
300.395
300.357
300.32
300.284
300.248
300.214
300.18
300.146
300.113
300.081
300.048
300.016
321.339
321.018
320.678
320.323
319.954
319.572
319.18
318.779
318.37
317.955
317.535
317.112
316.686
316.258
315.83
315.402
314.976
314.552
314.13
313.712
313.298
312.888
312.484
312.085
311.692
311.306
310.926
310.554
310.188
309.83
309.48
309.137
308.803
308.476
308.158
307.847
307.545
307.251
306.965
306.688
306.418
306.157
305.903
305.657
305.419
305.189
304.967
304.751
304.544
304.343
304.149
303.963
303.783
303.609
303.442
303.281
303.127
302.978
302.835
302.698
302.566
302.439
302.317
302.201
302.089
301.982
301.879
301.78
301.685
301.595
301.508
301.425
301.345
301.269
301.196
301.126
301.058
300.994
300.932
300.873
300.816
300.761
300.708
300.658
300.609
300.562
300.516
300.472
300.429
300.388
300.347
300.308
300.27
300.232
300.195
300.159
300.123
300.088
300.053
300.017
323.021
322.675
322.309
321.925
321.527
321.116
320.693
320.26
319.819
319.371
318.918
318.461
318.001
317.54
317.078
316.617
316.157
315.699
315.244
314.793
314.346
313.904
313.468
313.038
312.614
312.198
311.788
311.386
310.992
310.605
310.227
309.858
309.497
309.144
308.801
308.466
308.14
307.823
307.514
307.215
306.924
306.642
306.368
306.103
305.847
305.598
305.358
305.126
304.902
304.685
304.476
304.275
304.081
303.894
303.714
303.54
303.373
303.213
303.059
302.91
302.768
302.631
302.5
302.374
302.254
302.138
302.027
301.92
301.818
301.721
301.627
301.537
301.451
301.369
301.29
301.214
301.142
301.072
301.006
300.942
300.88
300.821
300.764
300.709
300.657
300.606
300.557
300.509
300.463
300.418
300.375
300.332
300.291
300.25
300.211
300.172
300.133
300.095
300.057
300.019
324.698
324.326
323.933
323.522
323.095
322.653
322.2
321.735
321.262
320.782
320.296
319.806
319.312
318.817
318.322
317.827
317.333
316.842
316.354
315.87
315.391
314.917
314.449
313.988
313.533
313.086
312.647
312.215
311.792
311.378
310.972
310.576
310.189
309.811
309.442
309.083
308.733
308.393
308.062
307.74
307.428
307.126
306.832
306.548
306.273
306.006
305.748
305.499
305.259
305.027
304.803
304.586
304.378
304.177
303.984
303.798
303.619
303.447
303.281
303.122
302.97
302.823
302.682
302.547
302.418
302.293
302.174
302.06
301.951
301.846
301.745
301.649
301.557
301.469
301.384
301.303
301.225
301.15
301.079
301.01
300.944
300.881
300.82
300.761
300.704
300.65
300.597
300.546
300.497
300.449
300.402
300.357
300.312
300.269
300.226
300.184
300.143
300.102
300.061
300.02
326.369
325.972
325.552
325.113
324.657
324.186
323.701
323.206
322.7
322.188
321.669
321.145
320.619
320.09
319.561
319.033
318.506
317.981
317.461
316.944
316.432
315.926
315.427
314.934
314.449
313.971
313.502
313.041
312.59
312.147
311.715
311.291
310.878
310.474
310.081
309.697
309.324
308.96
308.607
308.264
307.931
307.608
307.294
306.991
306.697
306.412
306.137
305.871
305.615
305.367
305.127
304.897
304.674
304.46
304.254
304.055
303.864
303.68
303.503
303.334
303.171
303.014
302.864
302.72
302.581
302.449
302.321
302.2
302.083
301.971
301.864
301.761
301.662
301.568
301.478
301.391
301.308
301.228
301.152
301.078
301.008
300.94
300.875
300.813
300.752
300.694
300.638
300.583
300.53
300.479
300.429
300.381
300.333
300.287
300.241
300.196
300.152
300.108
300.065
300.022
328.033
327.611
327.165
326.698
326.213
325.712
325.197
324.67
324.133
323.588
323.036
322.48
321.92
321.358
320.796
320.234
319.674
319.116
318.562
318.013
317.469
316.931
316.4
315.876
315.36
314.853
314.354
313.864
313.384
312.914
312.454
312.004
311.564
311.135
310.717
310.309
309.912
309.526
309.15
308.785
308.431
308.088
307.755
307.432
307.119
306.817
306.525
306.242
305.969
305.705
305.451
305.206
304.969
304.741
304.522
304.311
304.108
303.912
303.724
303.544
303.371
303.204
303.044
302.891
302.744
302.603
302.468
302.338
302.214
302.095
301.981
301.872
301.767
301.667
301.571
301.479
301.39
301.306
301.224
301.146
301.072
301
300.93
300.864
300.8
300.738
300.678
300.62
300.564
300.509
300.456
300.405
300.354
300.305
300.257
300.209
300.162
300.115
300.069
300.023
329.69
329.243
328.771
328.277
327.763
327.232
326.687
326.128
325.56
324.982
324.398
323.809
323.216
322.621
322.025
321.43
320.837
320.246
319.66
319.078
318.502
317.932
317.37
316.815
316.268
315.731
315.203
314.684
314.176
313.678
313.19
312.713
312.248
311.793
311.35
310.918
310.498
310.089
309.691
309.305
308.93
308.566
308.213
307.871
307.54
307.22
306.91
306.611
306.322
306.043
305.773
305.513
305.263
305.022
304.789
304.566
304.351
304.144
303.945
303.754
303.57
303.394
303.224
303.062
302.906
302.757
302.614
302.477
302.345
302.219
302.098
301.983
301.872
301.765
301.664
301.566
301.473
301.383
301.297
301.214
301.135
301.059
300.985
300.915
300.847
300.781
300.718
300.657
300.597
300.54
300.483
300.429
300.375
300.323
300.272
300.221
300.171
300.122
300.073
300.024
331.34
330.868
330.37
329.848
329.306
328.746
328.17
327.58
326.98
326.371
325.754
325.132
324.506
323.878
323.249
322.621
321.995
321.371
320.752
320.138
319.53
318.929
318.335
317.749
317.172
316.605
316.047
315.5
314.963
314.438
313.923
313.42
312.928
312.449
311.981
311.525
311.081
310.65
310.23
309.822
309.426
309.042
308.67
308.309
307.959
307.621
307.294
306.978
306.673
306.378
306.094
305.82
305.555
305.301
305.055
304.819
304.592
304.374
304.164
303.962
303.768
303.582
303.404
303.232
303.068
302.91
302.759
302.614
302.475
302.342
302.215
302.093
301.976
301.864
301.756
301.653
301.554
301.46
301.369
301.282
301.198
301.118
301.04
300.966
300.894
300.825
300.758
300.693
300.63
300.569
300.51
300.453
300.396
300.341
300.287
300.234
300.181
300.129
300.077
300.026
332.982
332.485
331.961
331.412
330.841
330.252
329.646
329.026
328.394
327.752
327.103
326.449
325.79
325.129
324.467
323.806
323.147
322.491
321.84
321.193
320.553
319.921
319.296
318.679
318.072
317.475
316.888
316.312
315.747
315.194
314.653
314.123
313.606
313.101
312.609
312.129
311.662
311.208
310.766
310.337
309.92
309.516
309.124
308.744
308.376
308.021
307.677
307.344
307.023
306.713
306.413
306.125
305.847
305.578
305.32
305.072
304.833
304.603
304.382
304.17
303.966
303.77
303.582
303.402
303.229
303.063
302.904
302.751
302.605
302.465
302.331
302.202
302.079
301.961
301.848
301.74
301.636
301.536
301.441
301.349
301.261
301.176
301.095
301.016
300.941
300.868
300.798
300.729
300.663
300.599
300.537
300.476
300.417
300.359
300.302
300.246
300.19
300.136
300.081
300.027
334.616
334.095
333.544
332.968
332.369
331.751
331.114
330.464
329.8
329.127
328.446
327.759
327.068
326.374
325.68
324.986
324.294
323.606
322.922
322.243
321.572
320.907
320.252
319.605
318.968
318.341
317.725
317.12
316.528
315.947
315.379
314.823
314.28
313.75
313.233
312.73
312.24
311.763
311.299
310.849
310.411
309.987
309.576
309.177
308.791
308.418
308.057
307.708
307.371
307.045
306.731
306.428
306.136
305.855
305.584
305.323
305.072
304.831
304.599
304.376
304.162
303.957
303.759
303.57
303.389
303.214
303.048
302.888
302.734
302.587
302.446
302.311
302.182
302.058
301.94
301.826
301.717
301.612
301.512
301.416
301.323
301.234
301.149
301.067
300.987
300.911
300.837
300.766
300.696
300.629
300.564
300.5
300.438
300.377
300.317
300.258
300.2
300.142
300.085
300.028
336.242
335.696
335.12
334.516
333.889
333.241
332.575
331.894
331.2
330.495
329.782
329.062
328.339
327.612
326.885
326.159
325.435
324.714
323.998
323.288
322.585
321.889
321.203
320.525
319.858
319.202
318.557
317.924
317.304
316.696
316.101
315.519
314.951
314.396
313.855
313.328
312.815
312.315
311.83
311.358
310.9
310.456
310.025
309.608
309.204
308.813
308.435
308.07
307.717
307.376
307.047
306.73
306.424
306.13
305.846
305.573
305.311
305.058
304.815
304.582
304.358
304.143
303.936
303.738
303.548
303.365
303.191
303.023
302.863
302.709
302.561
302.42
302.285
302.155
302.031
301.912
301.797
301.688
301.583
301.482
301.385
301.292
301.203
301.117
301.034
300.954
300.876
300.801
300.729
300.659
300.59
300.523
300.458
300.394
300.332
300.27
300.209
300.149
300.089
300.03
337.858
337.288
336.686
336.056
335.401
334.724
334.028
333.317
332.591
331.855
331.11
330.359
329.603
328.844
328.085
327.326
326.569
325.816
325.068
324.327
323.592
322.866
322.148
321.441
320.744
320.059
319.385
318.724
318.076
317.44
316.819
316.211
315.617
315.038
314.473
313.922
313.386
312.864
312.357
311.865
311.386
310.922
310.473
310.037
309.615
309.206
308.811
308.43
308.061
307.705
307.362
307.03
306.711
306.403
306.107
305.822
305.547
305.284
305.03
304.786
304.552
304.327
304.112
303.905
303.706
303.516
303.333
303.158
302.99
302.829
302.675
302.528
302.387
302.251
302.121
301.997
301.878
301.763
301.654
301.548
301.447
301.35
301.257
301.167
301.08
300.996
300.915
300.837
300.761
300.688
300.616
300.547
300.479
300.412
300.346
300.282
300.219
300.156
300.093
300.031
339.465
338.871
338.244
337.587
336.904
336.198
335.473
334.731
333.975
333.208
332.431
331.648
330.86
330.069
329.277
328.486
327.697
326.912
326.133
325.359
324.594
323.836
323.089
322.351
321.625
320.91
320.208
319.519
318.843
318.181
317.533
316.899
316.28
315.676
315.087
314.513
313.954
313.411
312.882
312.368
311.87
311.386
310.917
310.463
310.023
309.597
309.186
308.788
308.403
308.032
307.674
307.329
306.996
306.675
306.366
306.069
305.783
305.508
305.243
304.989
304.745
304.511
304.286
304.07
303.863
303.665
303.474
303.292
303.117
302.95
302.789
302.635
302.488
302.347
302.211
302.082
301.957
301.838
301.724
301.614
301.509
301.407
301.31
301.216
301.126
301.039
300.954
300.873
300.794
300.717
300.643
300.57
300.499
300.429
300.361
300.294
300.228
300.162
300.097
300.032
341.063
340.444
339.792
339.108
338.398
337.664
336.909
336.137
335.35
334.552
333.744
332.929
332.109
331.286
330.462
329.639
328.818
328.002
327.19
326.386
325.589
324.801
324.023
323.256
322.5
321.757
321.026
320.309
319.606
318.917
318.243
317.583
316.939
316.311
315.698
315.101
314.519
313.953
313.403
312.869
312.35
311.847
311.359
310.886
310.429
309.986
309.557
309.143
308.743
308.357
307.985
307.625
307.279
306.945
306.624
306.315
306.017
305.731
305.456
305.191
304.937
304.694
304.46
304.235
304.02
303.813
303.615
303.425
303.243
303.069
302.902
302.742
302.589
302.442
302.301
302.166
302.037
301.913
301.794
301.679
301.57
301.464
301.363
301.265
301.171
301.081
300.993
300.908
300.826
300.746
300.669
300.593
300.519
300.447
300.376
300.306
300.237
300.169
300.101
300.034
342.65
342.008
341.33
340.62
339.882
339.119
338.336
337.534
336.717
335.887
335.048
334.202
333.35
332.495
331.639
330.785
329.932
329.084
328.242
327.406
326.578
325.76
324.952
324.155
323.37
322.598
321.839
321.094
320.363
319.648
318.948
318.263
317.594
316.941
316.305
315.684
315.08
314.493
313.922
313.367
312.828
312.305
311.798
311.307
310.832
310.372
309.927
309.497
309.081
308.68
308.293
307.92
307.56
307.214
306.88
306.559
306.25
305.952
305.667
305.392
305.128
304.875
304.632
304.399
304.175
303.961
303.755
303.558
303.369
303.188
303.014
302.848
302.689
302.536
302.39
302.25
302.115
301.986
301.863
301.744
301.63
301.521
301.416
301.314
301.217
301.122
301.031
300.943
300.858
300.775
300.694
300.616
300.539
300.464
300.39
300.318
300.246
300.175
300.105
300.035
344.227
343.561
342.858
342.122
341.356
340.566
339.753
338.921
338.074
337.214
336.344
335.466
334.583
333.697
332.809
331.923
331.039
330.159
329.286
328.419
327.561
326.712
325.874
325.048
324.234
323.433
322.646
321.874
321.116
320.374
319.648
318.938
318.245
317.568
316.908
316.264
315.638
315.029
314.436
313.861
313.302
312.76
312.234
311.725
311.232
310.755
310.294
309.848
309.417
309.001
308.6
308.213
307.84
307.48
307.134
306.801
306.481
306.172
305.876
305.591
305.318
305.055
304.803
304.561
304.329
304.107
303.894
303.689
303.493
303.305
303.126
302.953
302.788
302.63
302.478
302.333
302.194
302.06
301.932
301.809
301.691
301.577
301.468
301.363
301.262
301.164
301.069
300.978
300.89
300.804
300.72
300.639
300.559
300.481
300.405
300.33
300.255
300.182
300.109
300.036
345.793
345.103
344.375
343.613
342.821
342.002
341.16
340.3
339.422
338.532
337.631
336.722
335.807
334.89
333.971
333.053
332.138
331.227
330.323
329.425
328.537
327.658
326.79
325.935
325.092
324.263
323.448
322.648
321.864
321.096
320.344
319.609
318.891
318.19
317.506
316.84
316.192
315.561
314.947
314.351
313.773
313.212
312.668
312.14
311.63
311.136
310.658
310.197
309.751
309.32
308.904
308.504
308.117
307.745
307.387
307.042
306.71
306.391
306.084
305.789
305.506
305.234
304.973
304.723
304.483
304.252
304.032
303.82
303.617
303.423
303.236
303.058
302.887
302.723
302.566
302.415
302.271
302.133
302
301.873
301.75
301.633
301.52
301.411
301.306
301.205
301.107
301.013
300.921
300.832
300.746
300.661
300.579
300.498
300.419
300.341
300.264
300.188
300.113
300.038
347.347
346.634
345.882
345.094
344.274
343.428
342.558
341.668
340.761
339.84
338.908
337.968
337.023
336.074
335.124
334.175
333.229
332.287
331.352
330.424
329.505
328.597
327.7
326.815
325.944
325.086
324.244
323.417
322.606
321.812
321.035
320.274
319.532
318.807
318.101
317.412
316.741
316.089
315.455
314.839
314.241
313.66
313.098
312.553
312.025
311.514
311.02
310.543
310.082
309.636
309.207
308.792
308.393
308.008
307.638
307.281
306.938
306.608
306.291
305.986
305.693
305.412
305.142
304.883
304.635
304.397
304.168
303.949
303.74
303.539
303.346
303.162
302.985
302.815
302.653
302.497
302.348
302.205
302.068
301.936
301.81
301.688
301.571
301.459
301.351
301.246
301.145
301.047
300.952
300.86
300.771
300.684
300.599
300.515
300.433
300.353
300.273
300.195
300.117
300.039
348.89
348.154
347.377
346.563
345.717
344.843
343.945
343.025
342.089
341.138
340.176
339.206
338.229
337.25
336.269
335.289
334.312
333.34
332.374
331.416
330.467
329.529
328.602
327.689
326.789
325.904
325.034
324.18
323.343
322.523
321.72
320.935
320.168
319.42
318.69
317.979
317.287
316.613
315.958
315.322
314.705
314.105
313.524
312.962
312.417
311.889
311.379
310.886
310.41
309.95
309.507
309.079
308.666
308.269
307.887
307.518
307.164
306.823
306.496
306.181
305.879
305.588
305.31
305.042
304.786
304.54
304.304
304.078
303.862
303.654
303.455
303.265
303.082
302.907
302.739
302.579
302.425
302.277
302.135
301.999
301.869
301.743
301.623
301.507
301.395
301.287
301.182
301.081
300.983
300.888
300.796
300.706
300.618
300.532
300.447
300.364
300.282
300.201
300.12
300.04
350.421
349.662
348.86
348.021
347.149
346.247
345.321
344.373
343.407
342.426
341.434
340.433
339.426
338.416
337.404
336.394
335.386
334.383
333.387
332.399
331.421
330.453
329.498
328.556
327.628
326.715
325.818
324.937
324.074
323.228
322.4
321.591
320.8
320.028
319.276
318.542
317.828
317.134
316.458
315.802
315.165
314.547
313.948
313.367
312.805
312.262
311.736
311.227
310.736
310.262
309.804
309.363
308.938
308.528
308.133
307.754
307.388
307.037
306.699
306.374
306.063
305.763
305.476
305.2
304.936
304.682
304.439
304.206
303.983
303.768
303.563
303.367
303.179
302.998
302.825
302.66
302.501
302.348
302.202
302.062
301.927
301.798
301.674
301.554
301.438
301.327
301.219
301.115
301.014
300.916
300.821
300.728
300.637
300.549
300.461
300.376
300.291
300.207
300.124
300.041
351.94
351.157
350.332
349.467
348.568
347.64
346.685
345.709
344.714
343.704
342.682
341.651
340.614
339.573
338.531
337.49
336.452
335.419
334.393
333.375
332.367
331.37
330.386
329.416
328.46
327.52
326.595
325.688
324.799
323.927
323.075
322.241
321.426
320.631
319.856
319.101
318.365
317.649
316.954
316.278
315.622
314.985
314.368
313.77
313.191
312.631
312.089
311.565
311.059
310.571
310.1
309.645
309.207
308.785
308.378
307.987
307.611
307.249
306.901
306.566
306.245
305.937
305.641
305.357
305.084
304.823
304.573
304.333
304.102
303.882
303.671
303.468
303.274
303.088
302.91
302.74
302.576
302.419
302.269
302.124
301.985
301.852
301.724
301.6
301.482
301.367
301.256
301.149
301.045
300.944
300.846
300.75
300.657
300.565
300.475
300.387
300.3
300.213
300.128
300.043
353.445
352.64
351.791
350.901
349.976
349.021
348.039
347.034
346.01
344.971
343.919
342.858
341.791
340.72
339.648
338.576
337.508
336.446
335.39
334.342
333.305
332.28
331.267
330.269
329.285
328.317
327.366
326.433
325.518
324.621
323.744
322.886
322.047
321.229
320.432
319.654
318.897
318.161
317.445
316.75
316.075
315.42
314.784
314.169
313.573
312.997
312.439
311.9
311.38
310.877
310.392
309.925
309.474
309.04
308.621
308.219
307.831
307.459
307.101
306.757
306.426
306.109
305.804
305.512
305.232
304.963
304.705
304.458
304.221
303.994
303.777
303.569
303.369
303.178
302.995
302.819
302.651
302.489
302.334
302.186
302.043
301.906
301.774
301.647
301.524
301.406
301.292
301.182
301.075
300.971
300.87
300.772
300.676
300.582
300.489
300.398
300.308
300.22
300.132
300.044
354.938
354.11
353.237
352.322
351.372
350.39
349.38
348.347
347.295
346.226
345.145
344.055
342.958
341.857
340.755
339.654
338.556
337.463
336.378
335.301
334.235
333.181
332.14
331.114
330.103
329.108
328.131
327.171
326.23
325.309
324.407
323.525
322.663
321.822
321.002
320.203
319.425
318.668
317.932
317.217
316.523
315.85
315.197
314.565
313.952
313.36
312.787
312.233
311.698
311.181
310.683
310.202
309.738
309.292
308.862
308.448
308.05
307.667
307.299
306.945
306.606
306.28
305.966
305.666
305.378
305.102
304.837
304.583
304.339
304.106
303.883
303.668
303.463
303.267
303.078
302.898
302.725
302.559
302.4
302.247
302.1
301.959
301.823
301.693
301.567
301.446
301.328
301.215
301.105
300.998
300.894
300.793
300.695
300.598
300.503
300.409
300.317
300.226
300.135
300.045
356.416
355.567
354.67
353.731
352.755
351.746
350.709
349.649
348.568
347.471
346.361
345.241
344.114
342.984
341.852
340.721
339.594
338.472
337.357
336.252
335.157
334.074
333.005
331.951
330.913
329.892
328.888
327.902
326.936
325.99
325.064
324.158
323.273
322.41
321.568
320.747
319.948
319.171
318.415
317.681
316.968
316.277
315.606
314.957
314.328
313.719
313.131
312.562
312.013
311.482
310.97
310.476
310.001
309.542
309.101
308.676
308.267
307.874
307.496
307.132
306.784
306.449
306.127
305.819
305.523
305.239
304.967
304.706
304.456
304.217
303.987
303.767
303.556
303.355
303.161
302.976
302.798
302.628
302.464
302.307
302.157
302.012
301.872
301.738
301.609
301.485
301.364
301.248
301.135
301.025
300.919
300.815
300.713
300.614
300.516
300.42
300.326
300.232
300.139
300.046
357.881
357.01
356.089
355.126
354.125
353.09
352.026
350.938
349.829
348.703
347.565
346.416
345.26
344.1
342.939
341.778
340.622
339.471
338.327
337.193
336.07
334.959
333.862
332.781
331.716
330.668
329.638
328.627
327.636
326.665
325.714
324.785
323.877
322.992
322.128
321.286
320.466
319.669
318.893
318.14
317.409
316.699
316.012
315.345
314.7
314.076
313.472
312.888
312.324
311.78
311.255
310.749
310.26
309.79
309.337
308.901
308.481
308.078
307.69
307.318
306.96
306.616
306.286
305.97
305.666
305.375
305.096
304.828
304.572
304.326
304.091
303.865
303.649
303.442
303.243
303.053
302.871
302.696
302.528
302.367
302.213
302.064
301.921
301.784
301.651
301.523
301.4
301.28
301.164
301.052
300.942
300.836
300.732
300.63
300.53
300.431
300.334
300.238
300.142
300.047
359.332
358.438
357.495
356.508
355.481
354.42
353.33
352.215
351.078
349.924
348.757
347.579
346.394
345.205
344.015
342.826
341.64
340.46
339.288
338.125
336.974
335.835
334.711
333.603
332.511
331.436
330.381
329.344
328.328
327.333
326.359
325.406
324.476
323.568
322.682
321.819
320.979
320.161
319.367
318.595
317.845
317.118
316.413
315.73
315.068
314.428
313.81
313.211
312.633
312.075
311.537
311.018
310.517
310.035
309.571
309.124
308.694
308.28
307.883
307.501
307.134
306.782
306.444
306.119
305.808
305.51
305.223
304.949
304.686
304.434
304.193
303.962
303.74
303.528
303.325
303.13
302.943
302.763
302.592
302.427
302.268
302.116
301.969
301.828
301.692
301.561
301.435
301.312
301.193
301.078
300.966