/*--------------------------------*- C++ -*----------------------------------*\
| =========                 |                                                 |
| \\      /  F ield         | OpenFOAM: The Open Source CFD Toolbox           |
|  \\    /   O peration     | Version:  2406                                  |
|   \\  /    A nd           | Website:  www.openfoam.com                      |
|    \\/     M anipulation  |                                                 |
\*---------------------------------------------------------------------------*/
FoamFile
{
    version     2.0;
    format      ascii;
    arch        "LSB;label=32;scalar=64";
    class       volVectorField;
    location    "115";
    object      flux;
}
// * * * * * * * * * * * * * * * * * * * * * * * * * * * * * * * * * * * * * //

dimensions      [0 1 -1 1 0 0 0];

internalField   nonuniform List<vector> 
20000
(
(0.00113977 0.0490612 0)
(0.00102347 0.0512214 0)
(0.000912678 0.0531548 0)
(0.000807336 0.054872 0)
(0.000707475 0.0563841 0)
(0.000612809 0.0577016 0)
(0.000523001 0.0588349 0)
(0.000437963 0.0597935 0)
(0.000357954 0.0605869 0)
(0.000282499 0.0612252 0)
(0.000211165 0.0617166 0)
(0.000144174 0.0620698 0)
(8.14802e-05 0.0622934 0)
(2.27425e-05 0.0623958 0)
(-3.22849e-05 0.0623843 0)
(-8.36835e-05 0.0622665 0)
(-0.000131514 0.0620496 0)
(-0.000175902 0.0617406 0)
(-0.00021702 0.0613461 0)
(-0.00025504 0.0608725 0)
(-0.000290104 0.060326 0)
(-0.000322335 0.0597122 0)
(-0.000351844 0.0590367 0)
(-0.000378747 0.0583049 0)
(-0.000403163 0.0575218 0)
(-0.000425215 0.0566923 0)
(-0.000445024 0.0558211 0)
(-0.000462707 0.0549124 0)
(-0.000478376 0.0539704 0)
(-0.000492139 0.052999 0)
(-0.000504098 0.0520019 0)
(-0.000514354 0.0509827 0)
(-0.000523001 0.0499446 0)
(-0.000530133 0.0488908 0)
(-0.00053584 0.0478242 0)
(-0.000540209 0.0467476 0)
(-0.000543324 0.0456635 0)
(-0.000545267 0.0445744 0)
(-0.000546115 0.0434826 0)
(-0.000545944 0.0423901 0)
(-0.000544826 0.041299 0)
(-0.000542831 0.0402109 0)
(-0.000540025 0.0391278 0)
(-0.000536472 0.038051 0)
(-0.000532232 0.036982 0)
(-0.000527364 0.0359222 0)
(-0.000521925 0.0348727 0)
(-0.000515966 0.0338346 0)
(-0.00050954 0.0328089 0)
(-0.000502693 0.0317966 0)
(-0.000495473 0.0307983 0)
(-0.000487923 0.0298148 0)
(-0.000480084 0.0288467 0)
(-0.000471996 0.0278946 0)
(-0.000463697 0.0269589 0)
(-0.000455221 0.0260399 0)
(-0.000446603 0.0251381 0)
(-0.000437874 0.0242536 0)
(-0.000429064 0.0233867 0)
(-0.000420201 0.0225375 0)
(-0.000411311 0.021706 0)
(-0.00040242 0.0208923 0)
(-0.000393552 0.0200964 0)
(-0.000384728 0.0193182 0)
(-0.000375968 0.0185576 0)
(-0.000367294 0.0178144 0)
(-0.000358721 0.0170885 0)
(-0.000350269 0.0163796 0)
(-0.000341951 0.0156875 0)
(-0.000333784 0.0150119 0)
(-0.000325781 0.0143525 0)
(-0.000317953 0.0137089 0)
(-0.000310315 0.0130807 0)
(-0.000302876 0.0124677 0)
(-0.000295646 0.0118693 0)
(-0.000288635 0.0112852 0)
(-0.000281851 0.0107148 0)
(-0.000275303 0.0101578 0)
(-0.000268998 0.00961369 0)
(-0.000262943 0.00908191 0)
(-0.000257143 0.00856199 0)
(-0.000251604 0.0080534 0)
(-0.000246332 0.00755563 0)
(-0.000241331 0.00706814 0)
(-0.000236605 0.00659037 0)
(-0.000232159 0.00612177 0)
(-0.000227995 0.00566179 0)
(-0.000224117 0.00520985 0)
(-0.000220527 0.00476538 0)
(-0.000217229 0.0043278 0)
(-0.000214224 0.00389652 0)
(-0.000211514 0.00347095 0)
(-0.000209102 0.00305051 0)
(-0.000206988 0.0026346 0)
(-0.000205173 0.00222261 0)
(-0.00020366 0.00181396 0)
(-0.000202448 0.00140803 0)
(-0.000201538 0.00100422 0)
(-0.000200931 0.000601923 0)
(-0.000200628 0.00020054 0)
(0.00341899 0.0490492 0)
(0.00307011 0.0512086 0)
(0.00273791 0.0531415 0)
(0.00242197 0.0548585 0)
(0.00212218 0.0563703 0)
(0.00183796 0.0576875 0)
(0.00156885 0.0588202 0)
(0.00131409 0.0597787 0)
(0.00107375 0.0605722 0)
(0.000847177 0.06121 0)
(0.000633438 0.0617012 0)
(0.000432642 0.0620545 0)
(0.00024448 0.0622782 0)
(6.81597e-05 0.0623804 0)
(-9.69173e-05 0.0623689 0)
(-0.000251041 0.0622511 0)
(-0.000394477 0.0620343 0)
(-0.000527629 0.0617253 0)
(-0.000650997 0.061331 0)
(-0.000765066 0.0608575 0)
(-0.000870257 0.0603111 0)
(-0.000966936 0.0596974 0)
(-0.00105545 0.0590221 0)
(-0.00113614 0.0582905 0)
(-0.00120938 0.0575076 0)
(-0.00127554 0.0566783 0)
(-0.00133496 0.0558073 0)
(-0.00138801 0.0548988 0)
(-0.00143501 0.053957 0)
(-0.0014763 0.0529859 0)
(-0.00151217 0.0519891 0)
(-0.00154293 0.0509701 0)
(-0.00156887 0.0499323 0)
(-0.00159027 0.0488788 0)
(-0.00160739 0.0478124 0)
(-0.00162049 0.0467361 0)
(-0.00162984 0.0456523 0)
(-0.00163567 0.0445634 0)
(-0.00163821 0.0434719 0)
(-0.0016377 0.0423797 0)
(-0.00163434 0.0412888 0)
(-0.00162836 0.040201 0)
(-0.00161994 0.0391181 0)
(-0.00160928 0.0380416 0)
(-0.00159656 0.0369729 0)
(-0.00158196 0.0359133 0)
(-0.00156565 0.0348641 0)
(-0.00154777 0.0338263 0)
(-0.00152849 0.0328008 0)
(-0.00150796 0.0317887 0)
(-0.0014863 0.0307907 0)
(-0.00146365 0.0298074 0)
(-0.00144013 0.0288396 0)
(-0.00141587 0.0278877 0)
(-0.00139098 0.0269522 0)
(-0.00136555 0.0260335 0)
(-0.0013397 0.0251319 0)
(-0.00131351 0.0242476 0)
(-0.00128709 0.0233809 0)
(-0.0012605 0.0225319 0)
(-0.00123383 0.0217006 0)
(-0.00120716 0.0208872 0)
(-0.00118056 0.0200915 0)
(-0.00115409 0.0193134 0)
(-0.00112781 0.018553 0)
(-0.00110179 0.01781 0)
(-0.00107608 0.0170843 0)
(-0.00105072 0.0163756 0)
(-0.00102577 0.0156837 0)
(-0.00100127 0.0150082 0)
(-0.000977261 0.0143489 0)
(-0.000953782 0.0137055 0)
(-0.000930868 0.0130775 0)
(-0.000908552 0.0124646 0)
(-0.000886864 0.0118664 0)
(-0.000865833 0.0112824 0)
(-0.000845485 0.0107122 0)
(-0.000825842 0.0101553 0)
(-0.000806928 0.00961132 0)
(-0.000788763 0.00907967 0)
(-0.000771365 0.00855987 0)
(-0.00075475 0.00805142 0)
(-0.000738935 0.00755377 0)
(-0.000723933 0.00706639 0)
(-0.000709757 0.00658874 0)
(-0.000696418 0.00612026 0)
(-0.000683928 0.0056604 0)
(-0.000672295 0.00520857 0)
(-0.000661528 0.0047642 0)
(-0.000651634 0.00432673 0)
(-0.000642619 0.00389556 0)
(-0.000634491 0.0034701 0)
(-0.000627254 0.00304976 0)
(-0.000620912 0.00263395 0)
(-0.000615469 0.00222206 0)
(-0.000610928 0.00181351 0)
(-0.000607293 0.00140768 0)
(-0.000604565 0.00100397 0)
(-0.000602745 0.000601774 0)
(-0.000601835 0.00020049 0)
(0.00569724 0.0490251 0)
(0.00511586 0.0511834 0)
(0.00456254 0.0531152 0)
(0.00403611 0.0548313 0)
(0.00353647 0.0563424 0)
(0.0030627 0.057659 0)
(0.00261427 0.0587913 0)
(0.00218993 0.0597492 0)
(0.00178926 0.0605423 0)
(0.00141156 0.0611798 0)
(0.00105559 0.0616708 0)
(0.000721098 0.0620239 0)
(0.00040744 0.0622475 0)
(0.000113502 0.0623496 0)
(-0.000161581 0.0623381 0)
(-0.00041834 0.0622204 0)
(-0.000657309 0.0620036 0)
(-0.000879193 0.0616949 0)
(-0.0010848 0.0613007 0)
(-0.00127491 0.0608275 0)
(-0.00145021 0.0602813 0)
(-0.00161131 0.059668 0)
(-0.0017588 0.058993 0)
(-0.00189326 0.0582617 0)
(-0.0020153 0.0574792 0)
(-0.00212553 0.0566504 0)
(-0.00222456 0.0557798 0)
(-0.00231296 0.0548717 0)
(-0.00239129 0.0539304 0)
(-0.00246009 0.0529598 0)
(-0.00251987 0.0519634 0)
(-0.00257114 0.050945 0)
(-0.00261436 0.0499077 0)
(-0.00265001 0.0488546 0)
(-0.00267854 0.0477888 0)
(-0.00270038 0.046713 0)
(-0.00271595 0.0456297 0)
(-0.00272566 0.0445414 0)
(-0.0027299 0.0434504 0)
(-0.00272905 0.0423587 0)
(-0.00272346 0.0412684 0)
(-0.00271349 0.0401812 0)
(-0.00269946 0.0390988 0)
(-0.0026817 0.0380228 0)
(-0.0026605 0.0369546 0)
(-0.00263617 0.0358956 0)
(-0.00260898 0.0348469 0)
(-0.0025792 0.0338096 0)
(-0.00254707 0.0327847 0)
(-0.00251285 0.031773 0)
(-0.00247675 0.0307755 0)
(-0.00243901 0.0297927 0)
(-0.00239983 0.0288254 0)
(-0.0023594 0.0278739 0)
(-0.00231791 0.0269389 0)
(-0.00227555 0.0260206 0)
(-0.00223247 0.0251195 0)
(-0.00218883 0.0242357 0)
(-0.00214479 0.0233694 0)
(-0.00210048 0.0225208 0)
(-0.00205605 0.0216899 0)
(-0.00201161 0.0208769 0)
(-0.00196727 0.0200815 0)
(-0.00192316 0.0193039 0)
(-0.00187938 0.0185439 0)
(-0.00183602 0.0178012 0)
(-0.00179316 0.0170759 0)
(-0.00175091 0.0163675 0)
(-0.00170933 0.0156759 0)
(-0.00166851 0.0150008 0)
(-0.0016285 0.0143418 0)
(-0.00158938 0.0136987 0)
(-0.00155119 0.0130711 0)
(-0.001514 0.0124585 0)
(-0.00147786 0.0118605 0)
(-0.00144282 0.0112768 0)
(-0.00140891 0.0107069 0)
(-0.00137618 0.0101503 0)
(-0.00134466 0.00960658 0)
(-0.00131439 0.00907519 0)
(-0.0012854 0.00855565 0)
(-0.00125771 0.00804744 0)
(-0.00123136 0.00755004 0)
(-0.00120636 0.00706291 0)
(-0.00118273 0.00658549 0)
(-0.00116051 0.00611724 0)
(-0.00113969 0.0056576 0)
(-0.00112031 0.005206 0)
(-0.00110236 0.00476185 0)
(-0.00108588 0.00432459 0)
(-0.00107086 0.00389363 0)
(-0.00105731 0.00346838 0)
(-0.00104525 0.00304825 0)
(-0.00103468 0.00263265 0)
(-0.00102561 0.00222097 0)
(-0.00101805 0.00181261 0)
(-0.00101199 0.00140698 0)
(-0.00100744 0.00100347 0)
(-0.00100441 0.000601477 0)
(-0.00100289 0.000200391 0)
(0.00797412 0.0489888 0)
(0.00716018 0.0511458 0)
(0.00638579 0.0530759 0)
(0.00564917 0.0547907 0)
(0.00494993 0.0563006 0)
(0.00428683 0.0576163 0)
(0.00365904 0.0587478 0)
(0.00306512 0.0597049 0)
(0.00250433 0.0604974 0)
(0.00197565 0.0611345 0)
(0.00147751 0.0616251 0)
(0.00100937 0.061978 0)
(0.000570263 0.0622014 0)
(0.000158786 0.0623035 0)
(-0.000226206 0.0622919 0)
(-0.000585516 0.0621743 0)
(-0.000919955 0.0619577 0)
(-0.00123053 0.0616492 0)
(-0.00151834 0.0612554 0)
(-0.00178446 0.0607825 0)
(-0.00202982 0.0602367 0)
(-0.0022553 0.0596238 0)
(-0.00246171 0.0589493 0)
(-0.0026499 0.0582185 0)
(-0.00282071 0.0574367 0)
(-0.002975 0.0566084 0)
(-0.00311361 0.0557385 0)
(-0.00323734 0.0548311 0)
(-0.00334698 0.0538905 0)
(-0.00344328 0.0529205 0)
(-0.00352695 0.051925 0)
(-0.0035987 0.0509073 0)
(-0.0036592 0.0498707 0)
(-0.0037091 0.0488185 0)
(-0.00374903 0.0477534 0)
(-0.0037796 0.0466784 0)
(-0.00380139 0.0455959 0)
(-0.00381498 0.0445085 0)
(-0.00382092 0.0434182 0)
(-0.00381972 0.0423274 0)
(-0.0038119 0.0412378 0)
(-0.00379794 0.0401514 0)
(-0.00377831 0.0390698 0)
(-0.00375345 0.0379947 0)
(-0.00372379 0.0369273 0)
(-0.00368973 0.035869 0)
(-0.00365167 0.0348211 0)
(-0.00360998 0.0337845 0)
(-0.00356502 0.0327604 0)
(-0.00351712 0.0317495 0)
(-0.0034666 0.0307527 0)
(-0.00341378 0.0297707 0)
(-0.00335893 0.028804 0)
(-0.00330234 0.0278533 0)
(-0.00324428 0.026919 0)
(-0.00318498 0.0260014 0)
(-0.00312468 0.0251009 0)
(-0.00306361 0.0242177 0)
(-0.00300196 0.0233521 0)
(-0.00293995 0.0225041 0)
(-0.00287776 0.0216739 0)
(-0.00281555 0.0208614 0)
(-0.0027535 0.0200667 0)
(-0.00269176 0.0192896 0)
(-0.00263048 0.0185301 0)
(-0.00256979 0.0177881 0)
(-0.00250981 0.0170632 0)
(-0.00245067 0.0163554 0)
(-0.00239248 0.0156643 0)
(-0.00233534 0.0149897 0)
(-0.00227934 0.0143312 0)
(-0.00222458 0.0136886 0)
(-0.00217113 0.0130614 0)
(-0.00211908 0.0124492 0)
(-0.0020685 0.0118517 0)
(-0.00201945 0.0112685 0)
(-0.00197199 0.010699 0)
(-0.00192617 0.0101428 0)
(-0.00188206 0.00959946 0)
(-0.00183969 0.00906847 0)
(-0.00179911 0.00854931 0)
(-0.00176036 0.00804148 0)
(-0.00172347 0.00754445 0)
(-0.00168848 0.00705768 0)
(-0.00165542 0.00658061 0)
(-0.00162431 0.00611271 0)
(-0.00159518 0.00565341 0)
(-0.00156804 0.00520214 0)
(-0.00154293 0.00475833 0)
(-0.00151985 0.00432139 0)
(-0.00149883 0.00389075 0)
(-0.00147987 0.00346582 0)
(-0.00146299 0.003046 0)
(-0.0014482 0.0026307 0)
(-0.0014355 0.00221932 0)
(-0.00142491 0.00181127 0)
(-0.00141643 0.00140594 0)
(-0.00141007 0.00100273 0)
(-0.00140583 0.000601032 0)
(-0.0014037 0.000200243 0)
(0.0102493 0.0489401 0)
(0.00920294 0.0510953 0)
(0.00820741 0.0530236 0)
(0.00726081 0.0547366 0)
(0.0063621 0.0562451 0)
(0.00550986 0.0575594 0)
(0.0047029 0.0586897 0)
(0.00393956 0.059646 0)
(0.0032188 0.0604376 0)
(0.00253928 0.0610741 0)
(0.00189907 0.0615643 0)
(0.00129737 0.0619168 0)
(0.000732925 0.0621399 0)
(0.000204026 0.0622419 0)
(-0.000290765 0.0622304 0)
(-0.00075253 0.0621129 0)
(-0.00118236 0.0618965 0)
(-0.00158156 0.0615883 0)
(-0.00195152 0.0611949 0)
(-0.00229357 0.0607225 0)
(-0.00260894 0.0601772 0)
(-0.00289873 0.0595649 0)
(-0.00316402 0.058891 0)
(-0.00340589 0.058161 0)
(-0.00362543 0.0573799 0)
(-0.00382373 0.0565525 0)
(-0.00400189 0.0556834 0)
(-0.00416092 0.0547769 0)
(-0.00430184 0.0538373 0)
(-0.00442562 0.0528683 0)
(-0.00453317 0.0518737 0)
(-0.00462539 0.050857 0)
(-0.00470314 0.0498215 0)
(-0.00476728 0.0487702 0)
(-0.0048186 0.0477063 0)
(-0.00485788 0.0466323 0)
(-0.0048859 0.0455509 0)
(-0.00490337 0.0444645 0)
(-0.00491099 0.0433753 0)
(-0.00490946 0.0422856 0)
(-0.00489941 0.0411971 0)
(-0.00488146 0.0401118 0)
(-0.00485623 0.0390313 0)
(-0.00482427 0.0379571 0)
(-0.00478615 0.0368908 0)
(-0.00474238 0.0358336 0)
(-0.00469346 0.0347867 0)
(-0.00463988 0.0337512 0)
(-0.00458209 0.032728 0)
(-0.00452052 0.0317181 0)
(-0.00445559 0.0307223 0)
(-0.0043877 0.0297413 0)
(-0.0043172 0.0287756 0)
(-0.00424447 0.0278258 0)
(-0.00416984 0.0268924 0)
(-0.00409362 0.0259757 0)
(-0.00401612 0.0250761 0)
(-0.00393763 0.0241938 0)
(-0.0038584 0.023329 0)
(-0.0037787 0.0224819 0)
(-0.00369876 0.0216525 0)
(-0.0036188 0.0208408 0)
(-0.00353905 0.0200468 0)
(-0.0034597 0.0192706 0)
(-0.00338093 0.0185118 0)
(-0.00330292 0.0177705 0)
(-0.00322584 0.0170464 0)
(-0.00314983 0.0163392 0)
(-0.00307503 0.0156488 0)
(-0.00300159 0.0149749 0)
(-0.00292961 0.0143171 0)
(-0.00285923 0.0136751 0)
(-0.00279054 0.0130485 0)
(-0.00272364 0.0124369 0)
(-0.00265862 0.01184 0)
(-0.00259558 0.0112573 0)
(-0.00253458 0.0106884 0)
(-0.00247569 0.0101328 0)
(-0.00241899 0.00958998 0)
(-0.00236454 0.00905951 0)
(-0.00231238 0.00854087 0)
(-0.00226257 0.00803354 0)
(-0.00221516 0.007537 0)
(-0.00217019 0.0070507 0)
(-0.00212769 0.00657411 0)
(-0.00208771 0.00610668 0)
(-0.00205027 0.00564783 0)
(-0.00201539 0.005197 0)
(-0.00198311 0.00475363 0)
(-0.00195345 0.00431712 0)
(-0.00192643 0.00388691 0)
(-0.00190206 0.00346239 0)
(-0.00188037 0.00304299 0)
(-0.00186136 0.0026281 0)
(-0.00184504 0.00221713 0)
(-0.00183143 0.00180948 0)
(-0.00182053 0.00140455 0)
(-0.00181235 0.00100174 0)
(-0.0018069 0.000600438 0)
(-0.00180417 0.000200045 0)
(0.012522 0.0488795 0)
(0.0112436 0.051032 0)
(0.0100271 0.0529581 0)
(0.00887065 0.054669 0)
(0.00777268 0.0561756 0)
(0.00673149 0.0574883 0)
(0.00574561 0.0586172 0)
(0.00481305 0.0595723 0)
(0.00393249 0.060363 0)
(0.00310228 0.0609987 0)
(0.00232015 0.0614882 0)
(0.00158503 0.0618402 0)
(0.0008954 0.0620631 0)
(0.000249222 0.062165 0)
(-0.00035524 0.0621535 0)
(-0.000919349 0.0620361 0)
(-0.00144448 0.0618201 0)
(-0.0019322 0.0615123 0)
(-0.00238422 0.0611193 0)
(-0.00280213 0.0606474 0)
(-0.00318742 0.0601028 0)
(-0.00354145 0.0594913 0)
(-0.00386554 0.0588183 0)
(-0.00416103 0.0580892 0)
(-0.00442924 0.057309 0)
(-0.00467152 0.0564826 0)
(-0.00488917 0.0556146 0)
(-0.00508348 0.0547093 0)
(-0.00525565 0.0537708 0)
(-0.00540686 0.052803 0)
(-0.00553826 0.0518096 0)
(-0.00565093 0.0507941 0)
(-0.00574593 0.0497599 0)
(-0.00582428 0.04871 0)
(-0.00588697 0.0476473 0)
(-0.00593497 0.0465747 0)
(-0.0059692 0.0454946 0)
(-0.00599054 0.0444096 0)
(-0.00599986 0.0433218 0)
(-0.00599798 0.0422333 0)
(-0.0059857 0.0411462 0)
(-0.00596378 0.0400622 0)
(-0.00593295 0.038983 0)
(-0.00589391 0.0379102 0)
(-0.00584733 0.0368452 0)
(-0.00579386 0.0357893 0)
(-0.00573409 0.0347437 0)
(-0.00566863 0.0337095 0)
(-0.00559803 0.0326876 0)
(-0.00552281 0.031679 0)
(-0.00544348 0.0306844 0)
(-0.00536053 0.0297045 0)
(-0.00527441 0.02874 0)
(-0.00518556 0.0277914 0)
(-0.00509438 0.0268591 0)
(-0.00500126 0.0259436 0)
(-0.00490658 0.0250451 0)
(-0.00481067 0.0241639 0)
(-0.00471388 0.0233002 0)
(-0.00461651 0.0224541 0)
(-0.00451884 0.0216257 0)
(-0.00442116 0.020815 0)
(-0.00432373 0.0200221 0)
(-0.00422678 0.0192467 0)
(-0.00413055 0.018489 0)
(-0.00403525 0.0177485 0)
(-0.00394107 0.0170253 0)
(-0.0038482 0.016319 0)
(-0.00375683 0.0156295 0)
(-0.0036671 0.0149564 0)
(-0.00357917 0.0142994 0)
(-0.00349318 0.0136582 0)
(-0.00340925 0.0130323 0)
(-0.00332752 0.0124216 0)
(-0.00324809 0.0118254 0)
(-0.00317107 0.0112434 0)
(-0.00309654 0.0106752 0)
(-0.0030246 0.0101203 0)
(-0.00295533 0.00957813 0)
(-0.0028888 0.00904832 0)
(-0.00282508 0.00853032 0)
(-0.00276423 0.00802361 0)
(-0.00270631 0.00752768 0)
(-0.00265136 0.00704199 0)
(-0.00259945 0.00656599 0)
(-0.00255059 0.00609913 0)
(-0.00250485 0.00564085 0)
(-0.00246224 0.00519058 0)
(-0.00242281 0.00474775 0)
(-0.00238657 0.00431179 0)
(-0.00235356 0.00388211 0)
(-0.00232379 0.00345812 0)
(-0.00229728 0.00303923 0)
(-0.00227406 0.00262485 0)
(-0.00225412 0.00221439 0)
(-0.00223749 0.00180725 0)
(-0.00222418 0.00140282 0)
(-0.00221418 0.0010005 0)
(-0.00220752 0.000599696 0)
(-0.00220419 0.000199798 0)
(0.0147915 0.0488071 0)
(0.0132815 0.0509563 0)
(0.0118444 0.0528795 0)
(0.0104783 0.0545879 0)
(0.00918134 0.0560922 0)
(0.00795147 0.057403 0)
(0.00678691 0.0585302 0)
(0.00568536 0.0594839 0)
(0.00464521 0.0602734 0)
(0.0036645 0.0609082 0)
(0.00274065 0.061397 0)
(0.0018723 0.0617485 0)
(0.00105766 0.0619711 0)
(0.000294365 0.0620727 0)
(-0.00041962 0.0620613 0)
(-0.00108594 0.0619441 0)
(-0.00170623 0.0617284 0)
(-0.00228238 0.061421 0)
(-0.00281633 0.0610286 0)
(-0.00331 0.0605574 0)
(-0.00376512 0.0600136 0)
(-0.00418329 0.059403 0)
(-0.00456611 0.058731 0)
(-0.00491514 0.058003 0)
(-0.00523196 0.057224 0)
(-0.00551815 0.0563988 0)
(-0.00577526 0.0555321 0)
(-0.00600478 0.0546281 0)
(-0.00620815 0.053691 0)
(-0.00638678 0.0527246 0)
(-0.00654199 0.0517327 0)
(-0.00667508 0.0507188 0)
(-0.00678729 0.0496861 0)
(-0.00687984 0.0486377 0)
(-0.0069539 0.0475766 0)
(-0.0070106 0.0465056 0)
(-0.00705102 0.0454271 0)
(-0.00707623 0.0443437 0)
(-0.00708724 0.0432575 0)
(-0.00708502 0.0421706 0)
(-0.00707052 0.0410851 0)
(-0.00704462 0.0400028 0)
(-0.0070082 0.0389252 0)
(-0.00696209 0.037854 0)
(-0.00690707 0.0367905 0)
(-0.0068439 0.0357362 0)
(-0.00677331 0.0346921 0)
(-0.00669598 0.0336594 0)
(-0.00661258 0.0326391 0)
(-0.00652373 0.031632 0)
(-0.00643003 0.0306388 0)
(-0.00633205 0.0296604 0)
(-0.00623032 0.0286974 0)
(-0.00612536 0.0277502 0)
(-0.00601766 0.0268193 0)
(-0.00590766 0.0259051 0)
(-0.00579582 0.0250079 0)
(-0.00568254 0.024128 0)
(-0.0055682 0.0232656 0)
(-0.00545318 0.0224208 0)
(-0.00533781 0.0215936 0)
(-0.00522243 0.0207842 0)
(-0.00510734 0.0199924 0)
(-0.00499282 0.0192182 0)
(-0.00487915 0.0184615 0)
(-0.00476657 0.0177222 0)
(-0.00465533 0.017 0)
(-0.00454563 0.0162948 0)
(-0.00443769 0.0156063 0)
(-0.0043317 0.0149342 0)
(-0.00422784 0.0142782 0)
(-0.00412626 0.0136379 0)
(-0.00402713 0.013013 0)
(-0.00393059 0.0124031 0)
(-0.00383676 0.0118079 0)
(-0.00374577 0.0112267 0)
(-0.00365774 0.0106594 0)
(-0.00357277 0.0101052 0)
(-0.00349094 0.00956392 0)
(-0.00341235 0.00903489 0)
(-0.00333708 0.00851766 0)
(-0.00326521 0.00801171 0)
(-0.00319679 0.00751652 0)
(-0.00313188 0.00703154 0)
(-0.00307056 0.00655625 0)
(-0.00301285 0.00609008 0)
(-0.00295881 0.00563248 0)
(-0.00290849 0.00518288 0)
(-0.00286191 0.00474071 0)
(-0.0028191 0.00430539 0)
(-0.00278011 0.00387634 0)
(-0.00274494 0.00345298 0)
(-0.00271363 0.00303472 0)
(-0.00268619 0.00262096 0)
(-0.00266265 0.00221111 0)
(-0.002643 0.00180457 0)
(-0.00262728 0.00140074 0)
(-0.00261547 0.000999017 0)
(-0.0026076 0.000598807 0)
(-0.00260366 0.000199502 0)
(0.0170573 0.0487226 0)
(0.015316 0.050868 0)
(0.0136587 0.0527878 0)
(0.0120834 0.0544933 0)
(0.0105877 0.055995 0)
(0.00916949 0.0573035 0)
(0.00782654 0.0584288 0)
(0.00655627 0.0593808 0)
(0.00535677 0.060169 0)
(0.00422582 0.0608026 0)
(0.00316046 0.0612906 0)
(0.00215911 0.0616415 0)
(0.00121966 0.0618637 0)
(0.000339441 0.0619652 0)
(-0.000483892 0.0619537 0)
(-0.00125226 0.0618368 0)
(-0.00196757 0.0616214 0)
(-0.00263199 0.0613146 0)
(-0.00324776 0.0609228 0)
(-0.00381706 0.0604525 0)
(-0.00434188 0.0599097 0)
(-0.00482411 0.0593001 0)
(-0.00526555 0.0586292 0)
(-0.00566803 0.0579025 0)
(-0.00603339 0.0571248 0)
(-0.00636342 0.0563011 0)
(-0.00665991 0.0554359 0)
(-0.00692459 0.0545334 0)
(-0.00715913 0.0535979 0)
(-0.00736512 0.0526333 0)
(-0.0075441 0.0516431 0)
(-0.00769758 0.0506309 0)
(-0.00782698 0.0496 0)
(-0.00793371 0.0485534 0)
(-0.00801911 0.0474942 0)
(-0.00808449 0.046425 0)
(-0.00813111 0.0453484 0)
(-0.00816018 0.0442668 0)
(-0.00817287 0.0431825 0)
(-0.00817032 0.0420976 0)
(-0.00815359 0.041014 0)
(-0.00812373 0.0399334 0)
(-0.00808173 0.0388577 0)
(-0.00802855 0.0377884 0)
(-0.00796511 0.0367268 0)
(-0.00789226 0.0356743 0)
(-0.00781086 0.034632 0)
(-0.00772169 0.0336011 0)
(-0.00762551 0.0325825 0)
(-0.00752305 0.0315771 0)
(-0.00741499 0.0305858 0)
(-0.007302 0.0296091 0)
(-0.00718469 0.0286477 0)
(-0.00706365 0.0277021 0)
(-0.00693945 0.0267728 0)
(-0.00681261 0.0258602 0)
(-0.00668363 0.0249646 0)
(-0.00655299 0.0240862 0)
(-0.00642114 0.0232253 0)
(-0.0062885 0.0223819 0)
(-0.00615547 0.0215562 0)
(-0.00602241 0.0207481 0)
(-0.00588969 0.0199577 0)
(-0.00575763 0.0191849 0)
(-0.00562655 0.0184295 0)
(-0.00549673 0.0176915 0)
(-0.00536844 0.0169706 0)
(-0.00524194 0.0162666 0)
(-0.00511747 0.0155793 0)
(-0.00499524 0.0149083 0)
(-0.00487546 0.0142534 0)
(-0.00475833 0.0136143 0)
(-0.00464401 0.0129905 0)
(-0.00453268 0.0123816 0)
(-0.00442448 0.0117874 0)
(-0.00431956 0.0112073 0)
(-0.00421804 0.0106409 0)
(-0.00412005 0.0100877 0)
(-0.00402569 0.00954735 0)
(-0.00393506 0.00901924 0)
(-0.00384826 0.0085029 0)
(-0.00376537 0.00799783 0)
(-0.00368647 0.00750349 0)
(-0.00361163 0.00701936 0)
(-0.00354091 0.00654489 0)
(-0.00347436 0.00607953 0)
(-0.00341205 0.00562272 0)
(-0.00335401 0.0051739 0)
(-0.0033003 0.00473249 0)
(-0.00325094 0.00429793 0)
(-0.00320597 0.00386963 0)
(-0.00316541 0.003447 0)
(-0.00312931 0.00302946 0)
(-0.00309767 0.00261642 0)
(-0.00307051 0.00220728 0)
(-0.00304786 0.00180144 0)
(-0.00302973 0.00139831 0)
(-0.00301611 0.000997286 0)
(-0.00300704 0.000597769 0)
(-0.0030025 0.000199156 0)
(0.0193189 0.0486261 0)
(0.0173467 0.0507671 0)
(0.0154697 0.0526832 0)
(0.0136855 0.0543853 0)
(0.0119915 0.055884 0)
(0.0103853 0.0571899 0)
(0.00886423 0.058313 0)
(0.00742555 0.0592631 0)
(0.00606701 0.0600497 0)
(0.00478608 0.0606821 0)
(0.0035795 0.0611691 0)
(0.00244539 0.0615193 0)
(0.00138136 0.061741 0)
(0.000384437 0.0618423 0)
(-0.000548043 0.0618309 0)
(-0.00141827 0.0617142 0)
(-0.00222843 0.0614993 0)
(-0.00298096 0.061193 0)
(-0.00367839 0.060802 0)
(-0.00432317 0.0603327 0)
(-0.00491757 0.0597909 0)
(-0.00546372 0.0591825 0)
(-0.00596369 0.058513 0)
(-0.00641953 0.0577877 0)
(-0.00683332 0.0570116 0)
(-0.00720711 0.0561895 0)
(-0.00754292 0.055326 0)
(-0.0078427 0.0544253 0)
(-0.00810834 0.0534917 0)
(-0.00834164 0.0525289 0)
(-0.00854436 0.0515407 0)
(-0.00871818 0.0505305 0)
(-0.00886474 0.0495017 0)
(-0.00898562 0.0484572 0)
(-0.00908234 0.0474 0)
(-0.00915639 0.046333 0)
(-0.00920919 0.0452585 0)
(-0.00924212 0.0441791 0)
(-0.00925649 0.0430969 0)
(-0.00925359 0.0420141 0)
(-0.00923465 0.0409326 0)
(-0.00920083 0.0398543 0)
(-0.00915327 0.0387807 0)
(-0.00909304 0.0377135 0)
(-0.00902118 0.036654 0)
(-0.00893868 0.0356036 0)
(-0.00884648 0.0345634 0)
(-0.00874548 0.0335345 0)
(-0.00863655 0.0325179 0)
(-0.00852051 0.0315145 0)
(-0.00839813 0.0305251 0)
(-0.00827015 0.0295504 0)
(-0.00813729 0.0285909 0)
(-0.0080002 0.0276472 0)
(-0.00785953 0.0267197 0)
(-0.00771587 0.0258089 0)
(-0.0075698 0.0249151 0)
(-0.00742184 0.0240385 0)
(-0.0072725 0.0231793 0)
(-0.00712228 0.0223376 0)
(-0.0069716 0.0215135 0)
(-0.00682091 0.020707 0)
(-0.00667059 0.0199182 0)
(-0.00652102 0.0191469 0)
(-0.00637256 0.018393 0)
(-0.00622552 0.0176564 0)
(-0.00608022 0.0169369 0)
(-0.00593695 0.0162343 0)
(-0.00579598 0.0155484 0)
(-0.00565754 0.0148788 0)
(-0.00552188 0.0142252 0)
(-0.00538922 0.0135873 0)
(-0.00525975 0.0129647 0)
(-0.00513365 0.0123571 0)
(-0.00501111 0.011764 0)
(-0.00489228 0.0111851 0)
(-0.0047773 0.0106198 0)
(-0.00466631 0.0100677 0)
(-0.00455944 0.00952842 0)
(-0.0044568 0.00900136 0)
(-0.00435849 0.00848604 0)
(-0.00426462 0.00798197 0)
(-0.00417525 0.00748862 0)
(-0.00409049 0.00700544 0)
(-0.00401039 0.00653191 0)
(-0.00393502 0.00606748 0)
(-0.00386444 0.00561157 0)
(-0.00379871 0.00516364 0)
(-0.00373787 0.00472311 0)
(-0.00368197 0.00428941 0)
(-0.00363104 0.00386196 0)
(-0.00358511 0.00344017 0)
(-0.00354421 0.00302346 0)
(-0.00350838 0.00261123 0)
(-0.00347762 0.0022029 0)
(-0.00345197 0.00179787 0)
(-0.00343143 0.00139554 0)
(-0.00341601 0.000995309 0)
(-0.00340573 0.000596584 0)
(-0.00340059 0.000198761 0)
(0.0215757 0.0485175 0)
(0.0193731 0.0506538 0)
(0.0172769 0.0525655 0)
(0.0152842 0.0542638 0)
(0.0133924 0.0557592 0)
(0.0115985 0.0570622 0)
(0.00989974 0.0581828 0)
(0.008293 0.0591308 0)
(0.00677576 0.0599156 0)
(0.00534517 0.0605466 0)
(0.00399766 0.0610325 0)
(0.00273107 0.0613819 0)
(0.00154273 0.0616032 0)
(0.000429339 0.0617043 0)
(-0.00061206 0.0616929 0)
(-0.00158393 0.0615764 0)
(-0.00248874 0.0613619 0)
(-0.00332919 0.0610564 0)
(-0.00410811 0.0606663 0)
(-0.00482822 0.0601979 0)
(-0.00549205 0.0596574 0)
(-0.00610199 0.0590503 0)
(-0.00666035 0.0583823 0)
(-0.00716944 0.0576586 0)
(-0.00763157 0.0568843 0)
(-0.00804903 0.056064 0)
(-0.00842407 0.0552024 0)
(-0.00875888 0.0543038 0)
(-0.00905555 0.0533722 0)
(-0.0093161 0.0524116 0)
(-0.0095425 0.0514256 0)
(-0.00973663 0.0504177 0)
(-0.00990031 0.0493911 0)
(-0.0100353 0.048349 0)
(-0.0101433 0.0472942 0)
(-0.010226 0.0462295 0)
(-0.010285 0.0451574 0)
(-0.0103218 0.0440804 0)
(-0.0103378 0.0430007 0)
(-0.0103346 0.0419203 0)
(-0.0103134 0.0408412 0)
(-0.0102757 0.0397653 0)
(-0.0102225 0.0386941 0)
(-0.0101553 0.0376293 0)
(-0.010075 0.0365721 0)
(-0.00998288 0.035524 0)
(-0.00987991 0.0344862 0)
(-0.00976712 0.0334596 0)
(-0.00964547 0.0324453 0)
(-0.00951586 0.0314442 0)
(-0.00937919 0.030457 0)
(-0.00923626 0.0294844 0)
(-0.00908788 0.028527 0)
(-0.00893478 0.0275854 0)
(-0.00877767 0.0266601 0)
(-0.00861723 0.0257513 0)
(-0.00845409 0.0248595 0)
(-0.00828885 0.0239848 0)
(-0.00812207 0.0231275 0)
(-0.00795429 0.0222877 0)
(-0.00778602 0.0214654 0)
(-0.00761772 0.0206608 0)
(-0.00744984 0.0198737 0)
(-0.0072828 0.0191041 0)
(-0.00711699 0.0183519 0)
(-0.00695278 0.017617 0)
(-0.00679051 0.0168991 0)
(-0.0066305 0.0161981 0)
(-0.00647306 0.0155137 0)
(-0.00631845 0.0148455 0)
(-0.00616695 0.0141934 0)
(-0.00601878 0.0135569 0)
(-0.00587418 0.0129358 0)
(-0.00573336 0.0123295 0)
(-0.0055965 0.0117378 0)
(-0.00546379 0.0111601 0)
(-0.00533538 0.0105961 0)
(-0.00521143 0.0100453 0)
(-0.00509207 0.00950714 0)
(-0.00497744 0.00898125 0)
(-0.00486765 0.00846709 0)
(-0.0047628 0.00796415 0)
(-0.004663 0.00747189 0)
(-0.00456833 0.0069898 0)
(-0.00447888 0.00651733 0)
(-0.0043947 0.00605393 0)
(-0.00431588 0.00559904 0)
(-0.00424248 0.00515211 0)
(-0.00417453 0.00471257 0)
(-0.00411209 0.00427983 0)
(-0.00405521 0.00385333 0)
(-0.00400392 0.00343249 0)
(-0.00395824 0.0030167 0)
(-0.00391822 0.0026054 0)
(-0.00388388 0.00219798 0)
(-0.00385523 0.00179385 0)
(-0.00383228 0.00139242 0)
(-0.00381507 0.000993086 0)
(-0.00380358 0.000595252 0)
(-0.00379784 0.000198317 0)
(0.0238272 0.0483969 0)
(0.0213948 0.0505279 0)
(0.0190798 0.0524349 0)
(0.0168792 0.054129 0)
(0.0147899 0.0556207 0)
(0.0128088 0.0569204 0)
(0.0109328 0.0580382 0)
(0.0091584 0.0589838 0)
(0.00748282 0.0597667 0)
(0.00590294 0.0603961 0)
(0.00441483 0.0608808 0)
(0.00301608 0.0612294 0)
(0.00170372 0.0614501 0)
(0.000474136 0.0615509 0)
(-0.000675928 0.0615396 0)
(-0.00174921 0.0614234 0)
(-0.00274844 0.0612094 0)
(-0.00367661 0.0609046 0)
(-0.00453682 0.0605155 0)
(-0.00533208 0.0600483 0)
(-0.00606518 0.0595091 0)
(-0.00673875 0.0589036 0)
(-0.00735537 0.0582373 0)
(-0.00791758 0.0575154 0)
(-0.00842793 0.0567429 0)
(-0.00888896 0.0559247 0)
(-0.00930315 0.0550653 0)
(-0.00967289 0.0541689 0)
(-0.0100005 0.0532396 0)
(-0.0102883 0.0522814 0)
(-0.0105383 0.0512978 0)
(-0.0107527 0.0502924 0)
(-0.0109334 0.0492684 0)
(-0.0110825 0.0482288 0)
(-0.0112018 0.0471767 0)
(-0.0112932 0.0461146 0)
(-0.0113583 0.0450452 0)
(-0.0113989 0.0439709 0)
(-0.0114166 0.0428938 0)
(-0.011413 0.0418161 0)
(-0.0113897 0.0407397 0)
(-0.011348 0.0396665 0)
(-0.0112893 0.038598 0)
(-0.011215 0.0375357 0)
(-0.0111264 0.0364813 0)
(-0.0110246 0.0354358 0)
(-0.0109109 0.0344005 0)
(-0.0107863 0.0333765 0)
(-0.010652 0.0323647 0)
(-0.0105089 0.031366 0)
(-0.0103579 0.0303813 0)
(-0.0102001 0.0294111 0)
(-0.0100362 0.0284561 0)
(-0.00986715 0.0275169 0)
(-0.00969365 0.0265938 0)
(-0.00951647 0.0256873 0)
(-0.0093363 0.0247977 0)
(-0.00915381 0.0239252 0)
(-0.00896963 0.02307 0)
(-0.00878435 0.0222323 0)
(-0.00859851 0.0214121 0)
(-0.00841265 0.0206094 0)
(-0.00822725 0.0198243 0)
(-0.00804278 0.0190566 0)
(-0.00785967 0.0183063 0)
(-0.00767832 0.0175732 0)
(-0.00749912 0.0168571 0)
(-0.00732241 0.0161578 0)
(-0.00714854 0.0154751 0)
(-0.0069778 0.0148086 0)
(-0.00681048 0.0141581 0)
(-0.00664686 0.0135232 0)
(-0.00648717 0.0129036 0)
(-0.00633165 0.0122989 0)
(-0.00618051 0.0117086 0)
(-0.00603395 0.0111324 0)
(-0.00589214 0.0105698 0)
(-0.00575525 0.0100203 0)
(-0.00562344 0.00948352 0)
(-0.00549685 0.00895894 0)
(-0.0053756 0.00844605 0)
(-0.00525982 0.00794436 0)
(-0.0051496 0.00745333 0)
(-0.00504505 0.00697243 0)
(-0.00494626 0.00650113 0)
(-0.00485331 0.00603888 0)
(-0.00476626 0.00558513 0)
(-0.00468519 0.00513931 0)
(-0.00461015 0.00470086 0)
(-0.0045412 0.0042692 0)
(-0.00447838 0.00384376 0)
(-0.00442174 0.00342396 0)
(-0.0043713 0.00300921 0)
(-0.0043271 0.00259892 0)
(-0.00428917 0.00219252 0)
(-0.00425753 0.00178939 0)
(-0.00423219 0.00138896 0)
(-0.00421318 0.000990619 0)
(-0.0042005 0.000593773 0)
(-0.00419416 0.000197824 0)
(0.0260728 0.0482644 0)
(0.0234111 0.0503896 0)
(0.020878 0.0522914 0)
(0.01847 0.0539808 0)
(0.0161838 0.0554684 0)
(0.014016 0.0567646 0)
(0.0119632 0.0578793 0)
(0.0100215 0.0588223 0)
(0.00818805 0.0596031 0)
(0.00645926 0.0602308 0)
(0.00483092 0.0607141 0)
(0.00330034 0.0610617 0)
(0.00186429 0.0612819 0)
(0.000518814 0.0613824 0)
(-0.000739631 0.0613711 0)
(-0.00191406 0.0612552 0)
(-0.00300747 0.0610419 0)
(-0.00402312 0.0607379 0)
(-0.00496441 0.0603498 0)
(-0.00583462 0.0598839 0)
(-0.0066368 0.0593462 0)