/*--------------------------------*- C++ -*----------------------------------*\
| =========                 |                                                 |
| \\      /  F ield         | OpenFOAM: The Open Source CFD Toolbox           |
|  \\    /   O peration     | Version:  2406                                  |
|   \\  /    A nd           | Website:  www.openfoam.com                      |
|    \\/     M anipulation  |                                                 |
\*---------------------------------------------------------------------------*/
FoamFile
{
    version     2.0;
    format      ascii;
    arch        "LSB;label=32;scalar=64";
    class       volScalarField;
    location    "115";
    object      gradTy;
}
// * * * * * * * * * * * * * * * * * * * * * * * * * * * * * * * * * * * * * //

dimensions      [0 -1 0 1 0 0 0];

internalField   nonuniform List<scalar> 
20000
(
145.852
152.274
158.022
163.127
167.622
171.539
174.908
177.758
180.117
182.014
183.475
184.525
185.19
185.494
185.46
185.11
184.465
183.546
182.374
180.966
179.341
177.516
175.508
173.332
171.005
168.539
165.948
163.247
160.447
157.559
154.595
151.565
148.479
145.346
142.175
138.974
135.751
132.514
129.268
126.02
122.776
119.542
116.322
113.12
109.942
106.792
103.672
100.586
97.5365
94.5269
91.5591
88.6353
85.7574
82.9268
80.145
77.4131
74.7321
72.1027
69.5254
67.0008
64.529
62.11
59.7439
57.4304
55.1692
52.9599
50.8018
48.6944
46.6369
44.6284
42.6679
40.7546
38.8872
37.0647
35.2858
33.5493
31.8538
30.1979
28.5802
26.9993
25.4536
23.9417
22.4619
21.0126
19.5923
18.1992
16.8317
15.4882
14.1668
12.866
11.5838
10.3187
9.06876
7.8323
6.60753
5.39265
4.18587
2.9854
1.78943
0.596178
145.816
152.236
157.983
163.087
167.581
171.497
174.864
177.714
180.073
181.969
183.429
184.479
185.144
185.448
185.414
185.064
184.419
183.501
182.329
180.921
179.297
177.472
175.465
173.29
170.962
168.497
165.907
163.207
160.407
157.52
154.556
151.527
148.442
145.31
142.14
138.94
135.718
132.481
129.236
125.989
122.746
119.512
116.293
113.092
109.915
106.765
103.646
100.561
97.5125
94.5036
91.5365
88.6135
85.7362
82.9063
80.1252
77.394
74.7136
72.0849
69.5083
66.9843
64.513
62.0947
59.7291
57.4162
55.1556
52.9468
50.7893
48.6824
46.6254
44.6173
42.6574
40.7445
38.8776
37.0556
35.2771
33.541
31.8459
30.1904
28.5731
26.9926
25.4473
23.9358
22.4563
21.0074
19.5874
18.1947
16.8276
15.4844
14.1633
12.8628
11.581
10.3161
9.06652
7.83037
6.6059
5.39132
4.18484
2.98466
1.78899
0.59603
145.745
152.161
157.904
163.006
167.498
171.412
174.778
177.626
179.984
181.879
183.339
184.388
185.053
185.357
185.323
184.973
184.328
183.41
182.239
180.832
179.208
177.385
175.378
173.204
170.878
168.414
165.826
163.126
160.328
157.442
154.48
151.452
148.369
145.238
142.07
138.871
135.651
132.416
129.172
125.927
122.685
119.453
116.235
113.037
109.861
106.713
103.595
100.511
97.4643
94.4569
91.4914
88.5697
85.6939
82.8654
80.0857
77.3558
74.6768
72.0493
69.474
66.9512
64.4812
62.064
59.6997
57.3879
55.1284
52.9207
50.7642
48.6584
46.6023
44.5953
42.6364
40.7244
38.8585
37.0373
35.2597
33.5245
31.8302
30.1755
28.559
26.9793
25.4348
23.9239
22.4452
20.9971
19.5778
18.1857
16.8193
15.4767
14.1563
12.8564
11.5752
10.311
9.06205
7.82651
6.60264
5.38865
4.18277
2.98319
1.78811
0.595736
145.637
152.05
157.787
162.885
167.374
171.285
174.649
177.495
179.851
181.744
183.203
184.252
184.916
185.22
185.185
184.836
184.192
183.275
182.104
180.698
179.076
177.253
175.248
173.076
170.751
168.289
165.703
163.005
160.209
157.326
154.366
151.34
148.259
145.131
141.964
138.769
135.551
132.318
129.076
125.834
122.594
119.365
116.149
112.953
109.78
106.634
103.518
100.437
97.3922
94.387
91.4236
88.5042
85.6304
82.8041
80.0264
77.2985
74.6215
71.996
69.4225
66.9016
64.4334
62.0181
59.6555
57.3454
55.0875
52.8815
50.7266
48.6223
46.5678
44.5623
42.6048
40.6943
38.8297
37.0099
35.2336
33.4996
31.8066
30.1532
28.5379
26.9593
25.4159
23.9062
22.4286
20.9815
19.5633
18.1723
16.8068
15.4653
14.1459
12.8469
11.5667
10.3034
9.05534
7.82071
6.59775
5.38466
4.17967
2.98098
1.78679
0.595295
145.492
151.899
157.632
162.725
167.209
171.116
174.477
177.319
179.673
181.565
183.022
184.07
184.734
185.037
185.002
184.653
184.01
183.094
181.924
180.52
178.899
177.078
175.075
172.905
170.583
168.123
165.539
162.844
160.051
157.17
154.213
151.191
148.112
144.987
141.824
138.631
135.417
132.187
128.949
125.709
122.473
119.247
116.035
112.841
109.671
106.528
103.416
100.338
97.2959
94.2937
91.3333
88.4167
85.5459
82.7223
79.9473
77.2222
74.5478
71.9248
69.354
66.8355
64.3698
61.9568
59.5965
57.2887
55.0331
52.8292
50.6765
48.5743
46.5218
44.5183
42.5627
40.6541
38.7913
36.9733
35.1988
33.4665
31.7752
30.1234
28.5097
26.9327
25.3908
23.8826
22.4065
20.9608
19.5439
18.1543
16.7902
15.45
14.1319
12.8342
11.5552
10.2932
9.04639
7.81298
6.59123
5.37934
4.17554
2.97803
1.78502
0.594707
145.312
151.711
157.437
162.524
167.002
170.905
174.261
177.1
179.451
181.341
182.796
183.843
184.505
184.808
184.774
184.425
183.783
182.868
181.699
180.297
178.678
176.859
174.859
172.691
170.372
167.915
165.335
162.643
159.853
156.976
154.023
151.004
147.929
144.808
141.649
138.46
135.249
132.024
128.79
125.554
122.322
119.099
115.891
112.702
109.536
106.397
103.288
100.214
97.1757
94.1772
91.2205
88.3075
85.4402
82.6201
79.8485
77.1268
74.4557
71.836
69.2683
66.753
64.2903
61.8803
59.5229
57.218
54.9651
52.764
50.6139
48.5143
46.4644
44.4633
42.5101
40.6038
38.7434
36.9276
35.1553
33.4252
31.7359
30.0862
28.4745
26.8994
25.3595
23.8531
22.3788
20.9349
19.5198
18.1319
16.7695
15.4309
14.1144
12.8184
11.541
10.2805
9.03521
7.80333
6.58309
5.3727
4.17038
2.97435
1.78282
0.593972
145.097
151.486
157.203
162.282
166.755
170.651
174.002
176.837
179.185
181.072
182.525
183.57
184.231
184.534
184.5
184.151
183.51
182.596
181.43
180.029
178.412
176.597
174.599
172.435
170.119
167.666
165.089
162.402
159.616
156.743
153.794
150.78
147.71
144.593
141.439
138.255
135.049
131.828
128.599
125.368
122.141
118.923
115.719
112.535
109.373
106.239
103.135
100.065
97.0315
94.0375
91.0851
88.1765
85.3134
82.4975
79.7301
77.0123
74.3452
71.7294
69.1655
66.6539
64.1949
61.7885
59.4346
57.1331
54.8836
52.6857
50.5388
48.4423
46.3954
44.3973
42.447
40.5436
38.6859
36.8728
35.1031
33.3756
31.6888
30.0415
28.4322
26.8595
25.3218
23.8177
22.3456
20.9038
19.4908
18.105
16.7446
15.408
14.0935
12.7993
11.5238
10.2653
9.02181
7.79175
6.57332
5.36473
4.1642
2.96994
1.78017
0.593091
144.846
151.223
156.931
162.001
166.466
170.355
173.701
176.531
178.874
180.758
182.209
183.252
183.912
184.214
184.18
183.832
183.192
182.28
181.115
179.717
178.103
176.291
174.297
172.136
169.824
167.376
164.803
162.121
159.339
156.472
153.528
150.519
147.454
144.343
141.194
138.015
134.815
131.599
128.376
125.15
121.929
118.717
115.519
112.34
109.184
106.055
102.956
99.8915
96.8634
93.8746
90.9273
88.0237
85.1656
82.3545
79.5919
76.8789
74.2164
71.6051
69.0456
66.5384
64.0836
61.6814
59.3316
57.0341
54.7885
52.5944
50.4512
48.3584
46.315
44.3204
42.3735
40.4733
38.6189
36.8089
35.0423
33.3178
31.6339
29.9895
28.383
26.813
25.278
23.7764
22.3069
20.8676
19.4571
18.0736
16.7156
15.3813
14.0691
12.7772
11.5039
10.2475
9.00617
7.77825
6.56193
5.35543
4.15698
2.9648
1.77709
0.592063
144.559
150.924
156.62
161.68
166.136
170.018
173.357
176.181
178.52
180.4
181.847
182.888
183.548
183.849
183.815
183.468
182.829
181.918
180.756
179.361
177.75
175.941
173.951
171.795
169.488
167.044
164.477
161.799
159.024
156.161
153.223
150.22
147.162
144.057
140.914
137.742
134.547
131.338
128.121
124.902
121.687
118.481
115.29
112.117
108.967
105.845
102.752
99.6935
96.6714
93.6884
90.747
87.8492
84.9967
82.1913
79.4341
76.7265
74.0692
71.4631
68.9088
66.4065
63.9566
61.5591
59.214
56.921
54.6799
52.4901
50.3512
48.2625
46.2232
44.2325
42.2895
40.3931
38.5423
36.736
34.9729
33.2517
31.5712
29.93
28.3267
26.7598
25.2279
23.7293
22.2626
20.8262
19.4185
18.0378
16.6824
15.3508
14.0412
12.7518
11.4811
10.2271
8.98832
7.76283
6.54892
5.34481
4.14874
2.95892
1.77356
0.59089
144.236
150.587
156.27
161.319
165.765
169.638
172.969
175.788
178.121
179.997
181.441
182.48
183.138
183.438
183.404
183.058
182.421
181.512
180.353
178.96
177.353
175.549
173.563
171.411
169.109
166.671
164.109
161.438
158.668
155.813
152.881
149.885
146.833
143.735
140.599
137.434
134.247
131.045
127.835
124.623
121.415
118.217
115.032
111.867
108.724
105.608
102.523
99.4709
96.4555
93.4792
90.5444
87.653
84.8069
82.0077
79.2567
76.5551
73.9038
71.3035
68.7549
66.2582
63.8138
61.4216
59.0817
56.7939
54.5578
52.3729
50.2388
48.1547
46.12
44.1337
42.195
40.3029
38.4562
36.6539
34.8948
33.1775
31.5007
29.8632
28.2634
26.7
25.1715
23.6763
22.2129
20.7797
19.3751
17.9975
16.6452
15.3165
14.0098
12.7234
11.4554
10.2043
8.96825
7.7455
6.53429
5.33288
4.13948
2.95231
1.7696
0.58957
143.877
150.213
155.882
160.918
165.353
169.217
172.54
175.351
177.678
179.549
180.99
182.027
182.683
182.983
182.949
182.603
181.967
181.061
179.904
178.516
176.912
175.112
173.131
170.985
168.689
166.257
163.702
161.037
158.274
155.425
152.501
149.512
146.468
143.378
140.25
137.092
133.913
130.719
127.517
124.314
121.114
117.923
114.746
111.589
108.454
105.346
102.268
99.2237
96.2158
93.2469
90.3194
87.4352
84.5962
81.8039
79.0598
76.3649
73.7202
71.1264
68.584
66.0936
63.6552
61.269
58.9349
56.6528
54.4222
52.2428
50.1139
48.0351
46.0054
44.0241
42.0902
40.2028
38.3607
36.5628
34.808
33.095
31.4224
29.789
28.1932
26.6337
25.109
23.6175
22.1577
20.7281
19.327
17.9528
16.6038
15.2785
13.975
12.6917
11.427
10.179
8.94596
7.72625
6.51806
5.31963
4.12919
2.94497
1.76521
0.588105
143.484
149.801
155.455
160.478
164.9
168.753
172.067
174.871
177.192
179.058
180.495
181.528
182.183
182.482
182.448
182.103
181.469
180.565
179.412
178.027
176.428
174.633
172.657
170.517
168.227
165.801
163.253
160.596
157.841
155
152.084
149.103
146.067
142.985
139.866
136.717
133.547
130.362
127.168
123.973
120.782
117.6
114.432
111.283
108.157
105.057
101.988
98.952
95.9524
92.9916
90.0721
87.1958
84.3646
81.58
78.8433
76.1558
73.5183
70.9316
68.3963
65.9126
63.4809
61.1013
58.7736
56.4977
54.2732
52.0997
49.9767
47.9035
45.8794
43.9035
41.975
40.0927
38.2557
36.4627
34.7127
33.0044
31.3364
29.7074
28.116
26.5608
25.0402
23.5528
22.0971
20.6713
19.2741
17.9036
16.5584
15.2366
13.9367
12.657
11.3957
10.1511
8.92147
7.7051
6.50021
5.30506
4.11788
2.93691
1.76037
0.586495
143.054
149.353
154.99
159.997
164.407
168.248
171.552
174.348
176.662
178.522
179.955
180.985
181.638
181.936
181.902
181.558
180.926
180.025
178.875
177.494
175.9
174.11
172.141
170.007
167.724
165.305
162.765
160.115
157.369
154.536
151.629
148.657
145.63
142.557
139.447
136.308
133.147
129.972
126.788
123.602
120.421
117.248
114.09
110.95
107.833
104.743
101.683
98.656
95.6653
92.7134
89.8026
86.9349
84.1121
81.3359
78.6074
75.928
73.2984
70.7194
68.1916
65.7154
63.291
60.9184
58.5977
56.3286
54.1108
51.9438
49.8272
47.7602
45.7422
43.7722
41.8494
39.9727
38.1412
36.3536
34.6089
32.9056
31.2426
29.6185
28.0319
26.4813
24.9653
23.4824
22.0309
20.6095
19.2164
17.8501
16.5088
15.191
13.895
12.6191
11.3616
10.1207
8.89478
7.68204
6.48076
5.28919
4.10556
2.92812
1.75511
0.58474
142.59
148.868
154.487
159.478
163.873
167.702
170.995
173.781
176.088
177.942
179.37
180.397
181.048
181.345
181.311
180.969
180.339
179.441
178.294
176.918
175.329
173.545
171.582
169.455
167.179
164.768
162.236
159.595
156.857
154.034
151.136
148.174
145.157
142.094
138.994
135.865
132.715
129.549
126.376
123.201
120.03
116.867
113.719
110.59
107.483
104.403
101.353
98.3356
95.3546
92.4123
89.5109
86.6526
83.839
81.0717
78.3521
75.6814
73.0603
70.4897
67.9701
65.502
63.0854
60.7206
58.4074
56.1457
53.9351
51.7751
49.6654
47.6051
45.5936
43.63
41.7134
39.8429
38.0173
36.2356
34.4965
32.7988
31.1412
29.5223
27.9409
26.3953
24.8842
23.4061
21.9594
20.5426
19.154
17.7921
16.4552
15.1417
13.8499
12.5781
11.3247
10.0878
8.86589
7.65709
6.45972
5.27201
4.09223
2.91861
1.74941
0.582841
142.09
148.346
153.945
158.919
163.298
167.114
170.396
173.172
175.471
177.319
178.742
179.765
180.413
180.709
180.676
180.334
179.706
178.812
177.669
176.298
174.714
172.937
170.98
168.861
166.593
164.191
161.668
159.036
156.308
153.494
150.607
147.655
144.648
141.596
138.507
135.389
132.25
129.095
125.933
122.769
119.609
116.458
113.321
110.202
107.106
104.037
100.997
97.9909
95.0204
92.0884
89.1972
86.3488
83.5451
80.7875
78.0775
75.4161
72.8042
70.2426
67.7319
65.2724
62.8643
60.5078
58.2027
55.9489
53.746
51.5937
49.4913
47.4382
45.4338
43.4771
41.5672
39.7033
37.8841
36.1086
34.3756
32.6838
31.032
29.4189
27.8429
26.3028
24.797
23.3241
21.8824
20.4706
19.0869
17.7297
16.3975
15.0886
13.8014
12.5341
11.285
10.0525
8.83481
7.63025
6.43707
5.25353
4.07789
2.90838
1.74327
0.580798
141.555
147.788
153.366
158.321
162.684
166.485
169.754
172.52
174.81
176.651
178.069
179.088
179.734
180.029
179.996
179.656
179.03
178.138
177
175.634
174.057
172.286
170.337
168.225
165.966
163.573
161.059
158.437
155.719
152.917
150.04
147.099
144.104
141.063
137.986
134.88
131.752
128.609
125.459
122.307
119.159
116.019
112.894
109.787
106.703
103.645
100.617
97.622
94.6627
91.7417
88.8614
86.0238
83.2306
80.4834
77.7836
75.1322
72.5302
69.9782
67.4769
65.0267
62.6277
60.28
57.9836
55.7383
53.5437
51.3995
49.305
47.2597
45.2628
43.3134
41.4108
39.5538
37.7415
35.9727
34.2462
32.5608
30.9152
29.3081
27.7381
26.2038
24.7037
23.2363
21.8001
20.3935
19.015
17.663
16.3358
15.0318
13.7494
12.4869
11.2425
10.0146
8.80156
7.60153
6.41284
5.23376
4.06254
2.89744
1.73671
0.578612
140.985
147.193
152.748
157.683
162.029
165.815
169.071
171.826
174.107
175.94
177.352
178.368
179.01
179.304
179.271
178.933
178.309
177.421
176.288
174.927
173.356
171.592
169.651
167.548
165.298
162.915
160.411
157.8
155.093
152.301
149.436
146.507
143.524
140.496
137.431
134.337
131.221
128.092
124.954
121.815
118.679
115.553
112.44
109.345
106.274
103.228
100.212
97.2291
94.2817
91.3725
88.5038
85.6775
82.8956
80.1595
77.4705
74.8298
72.2382
69.6966
67.2053
64.7649
62.3756
60.0374
57.7502
55.5139
53.3282
51.1926
49.1065
47.0694
45.0806
43.1391
41.2441
39.3946
37.5896
35.8279
34.1083
32.4297
30.7908
29.1902
27.6265
26.0983
24.6042
23.1427
21.7123
20.3114
18.9385
17.5919
16.2701
14.9713
13.6941
12.4366
11.1973
9.97434
8.76613
7.57094
6.38703
5.21269
4.04618
2.88577
1.72972
0.576283
140.381
146.562
152.093
157.007
161.334
165.104
168.346
171.089
173.36
175.186
176.592
177.603
178.243
178.535
178.502
178.165
177.545
176.661
175.532
174.177
172.613
170.856
168.924
166.83
164.589
162.216
159.723
157.123
154.428
151.648
148.795
145.879
142.908
139.893
136.841
133.761
130.659
127.542
124.418
121.292
118.17
115.057
111.958
108.877
105.818
102.785
99.7824
96.8122
93.8774
90.9807
88.1242
85.3101
82.5401
79.8158
77.1383
74.5089
71.9285
69.3977
66.9172
64.4872
62.1081
59.7799
57.5026
55.2759
53.0995
50.973
48.896
46.8676
44.8873
42.9541
41.0672
39.2257
37.4284
35.6742
33.9621
32.2907
30.6587
29.065
27.508
25.9864
24.4987
23.0435
21.6192
20.2243
18.8573
17.5165
16.2003
14.9071
13.6354
12.3833
11.1492
9.93157
8.72854
7.53847
6.35964
5.19034
4.02883
2.8734
1.7223
0.573812
139.741
145.894
151.401
156.292
160.599
164.352
167.58
170.31
172.571
174.388
175.788
176.794
177.431
177.722
177.69
177.354
176.736
175.856
174.733
173.384
171.827
170.079
168.155
166.07
163.84
161.477
158.996
156.407
153.724
150.958
148.118
145.215
142.258
139.256
136.218
133.152
130.064
126.962
123.852
120.74
117.632
114.533
111.448
108.381
105.336
102.317
99.3281
96.3713
93.4499
90.5664
87.723
84.9217
82.1643
79.4523
76.7871
74.1697
71.601
69.0817
66.6125
64.1936
61.8253
59.5077
57.2407
55.0242
52.8577
50.7409
48.6733
46.6542
44.6829
42.7585
40.8802
39.0471
37.2579
35.5118
33.8074
32.1436
30.5191
28.9326
27.3827
25.8681
24.3872
22.9386
21.5208
20.1322
18.7714
17.4367
16.1265
14.8393
13.5733
12.3269
11.0985
9.88634
8.6888
7.50415
6.33069
5.16671
4.01049
2.86032
1.71446
0.571199
139.068
145.191
150.671
155.539
159.825
163.56
166.772
169.489
171.739
173.547
174.94
175.942
176.576
176.866
176.833
176.499
175.884
175.009
173.89
172.548
170.999
169.259
167.344
165.27
163.05
160.699
158.229
155.653
152.983
150.23
147.404
144.514
141.572
138.585
135.561
132.51
129.437
126.35
123.255
120.158
117.065
113.981
110.911
107.858
104.828
101.824
98.8492
95.9067
92.9994
90.1298
87.3001
84.5123
81.7682
79.0693
76.4169
73.8121
71.2558
68.7487
66.2913
63.8841
61.5273
59.2208
56.9648
54.7589
52.6029
50.4963
48.4387
46.4293
44.4675
42.5524
40.6832
38.8588
37.0783
35.3406
33.6444
31.9887
30.372
28.7932
27.2507
25.7434
24.2696
22.828
21.417
20.0352
18.6809
17.3526
16.0488
14.7677
13.5078
12.2675
11.045
9.83868
8.64691
7.46797
6.30017
5.1418
3.99116
2.84653
1.7062
0.568445
138.36
144.452
149.904
154.747
159.012
162.727
165.923
168.626
170.864
172.664
174.049
175.046
175.677
175.965
175.933
175.6
174.989
174.118
173.005
171.67
170.128
168.397
166.492
164.428
162.22
159.881
157.424
154.861
152.204
149.465
146.653
143.779
140.851
137.879
134.871
131.835
128.778
125.706
122.627
119.546
116.469
113.401
110.346
107.309
104.295
101.306
98.346
95.4185
92.526
89.6709
86.8556
84.0821
81.3519
78.6668
76.0279
73.4363
70.893
68.3987
65.9538
63.5589
61.214
58.9194
56.6748
54.4801
52.3351
50.2393
48.1921
46.1929
44.2411
42.3358
40.476
38.661
36.8896
35.1607
33.4732
31.8258
30.2174
28.6466
27.112
25.6123
24.146
22.7118
21.308
19.9332
18.5858
17.2643
15.9671
14.6925
13.4391
12.205
10.9887
9.7886
8.60289
7.42995
6.26809
5.11562
3.97084
2.83204
1.69751
0.565552
137.618
143.677
149.1
153.917
158.159
161.854
165.033
167.722
169.948
171.738
173.116
174.107
174.735
175.021
174.989
174.659
174.05
173.184
172.077
170.749
169.215
167.494
165.599
163.546
161.35
159.023
156.579
154.03
151.388
148.663
145.867
143.008
140.096
137.14
134.148
131.128
128.087
125.032
121.969
118.905
115.844
112.792
109.754
106.734
103.735
100.762
97.8185
94.9067
92.0297
89.19
86.3898
83.6311
80.9156
78.2448
75.6201
73.0424
70.5128
68.0318
65.6001
63.218
60.8857
58.6033
56.3708
54.1879
52.0544
49.9698
47.9336
45.9452
44.0038
42.1087
40.2589
38.4536
36.6917
34.9721
33.2936
31.6551
30.0553
28.4929
26.9666
25.4749
24.0165
22.5899
21.1937
19.8263
18.4861
17.1717
15.8814
14.6137
13.367
12.1396
10.9298
9.73609
8.55675
7.3901
6.23447
5.08818
3.94954
2.81685
1.68841
0.562518
136.842
142.867
148.259
153.049
157.267
160.942
164.102
166.776
168.99
170.769
172.14
173.125
173.749
174.034
174.002
173.674
173.069
172.207
171.107
169.786
168.261
166.549
164.665
162.624
160.44
158.126
155.696
153.162
150.534
147.825
145.044
142.201
139.306
136.366
133.391
130.388
127.365
124.327
121.282
118.235
115.191
112.156
109.135
106.132
103.15
100.194
97.2669
94.3715
91.5107
88.687
85.9026
83.1594
80.4593
77.8036
75.1936
72.6305
70.1151
67.6481
65.2301
62.8615
60.5423
58.2728
56.0529
53.8823
51.7608
49.688
47.6633
45.6861
43.7556
41.8712
40.0319
38.2368
36.4848
34.7749
33.1059
31.4766
29.8858
28.3322
26.8145
25.3313
23.8811
22.4626
21.0742
19.7144
18.3819
17.0749
15.7919
14.5313
13.2916
12.0711
10.8682
9.68119
8.50849
7.34842
6.19931
5.05949
3.92727
2.80096
1.67888
0.559346
136.032
142.021
147.382
152.143
156.336
159.989
163.131
165.789
167.989
169.759
171.121
172.101
172.721
173.004
172.972
172.646
172.045
171.188
170.094
168.781
167.265
165.563
163.691
161.662
159.49
157.191
154.775
152.255
149.643
146.95
144.186
141.36
138.481
135.559
132.602
129.617
126.611
123.591
120.564
117.535
114.509
111.493
108.489
105.504
102.54
99.6012
96.6912
93.813
90.9691
88.1621
85.3942
82.6673
79.9831
77.3431
74.7486
72.2007
69.7002
67.2478
64.8441
62.4894
60.184
57.928
55.7212
53.5634
51.4545
49.3939
47.3812
45.4157
43.4967
41.6234
39.795
38.0105
36.2689
34.5691
32.9099
31.2903
29.709
28.1646
26.6558
25.1814
23.7398
22.3296
20.9495
19.5978
18.2731
16.9738
15.6984
14.4453
13.2129
11.9997
10.8039
9.62389
8.45814
7.30494
6.16263
5.02955
3.90402
2.78438
1.66895
0.556036
135.188
141.141
146.468
151.2
155.367
158.997
162.12
164.761
166.948
168.706
170.06
171.034
171.65
171.932
171.9
171.575
170.978
170.126
169.04
167.735
166.228
164.537
162.676
160.659
158.502
156.216
153.815
151.311
148.716
146.039
143.292
140.483
137.623
134.719
131.78
128.813
125.826
122.825
119.816
116.806
113.799
110.801
107.817
104.85
101.904
98.9836
96.0917
93.2313
90.4051
87.6155
84.8647
82.1547
79.4872
76.8636
74.2852
71.753
69.268
66.8308
64.4421
62.102
59.8109
57.5688
55.3757
53.2313
51.1355
49.0877
47.0874
45.1341
43.227
41.3653
39.5483
37.7748
36.044
34.3547
32.7059
31.0963
29.5248
27.9899
26.4906
25.0252
23.5926
22.1912
20.8196
19.4763
18.1598
16.8686
15.6011
14.3558
13.131
11.9253
10.7369
9.56422
8.4057
7.25964
6.12442
4.99836
3.87982
2.76712
1.6586
0.552588
134.312
140.225
145.518
150.219
154.359
157.966
161.068
163.692
165.865
167.612
168.957
169.924
170.537
170.817
170.785
170.463
169.869
169.023
167.943
166.647
165.15
163.47
161.621
159.617
157.474
155.203
152.818
150.33
147.751
145.092
142.362
139.572
136.73
133.845
130.925
127.978
125.01
122.028
119.039
116.048
113.061
110.083
107.117
104.17
101.243
98.3417
95.4685
92.6267
89.8188
87.0473
84.3143
81.6219
78.9717
76.3651
73.8034
71.2877
68.8188
66.3974
64.0241
61.6992
59.423
57.1954
55.0165
52.8861
50.8038
48.7693
46.782
44.8414
42.9466
41.0971
39.2918
37.5298
35.8102
34.1319
32.4938
30.8946
29.3333
27.8084
26.3187
24.8629
23.4396
22.0473
20.6845
19.35
18.042
16.7592
15.4999
14.2627
13.0459
11.8479
10.6672
9.50219
8.35118
7.21256
6.0847
4.96595
3.85466
2.74917
1.64784
0.549004
133.402
139.276
144.532
149.202
153.313
156.896
159.977
162.584
164.742
166.476
167.812
168.773
169.382
169.66
169.628
169.308
168.718
167.878
166.806
165.518
164.032
162.362
160.526
158.536
156.407
154.151
151.782
149.312
146.75
144.109
141.398
138.626
135.804
132.938
130.038
127.111
124.163
121.202
118.233
115.262
112.295
109.337
106.392
103.464
100.557
97.6754
94.8218
91.9991
89.2103
86.4576
83.7431
81.069
78.4367
75.8477
73.3034
70.8047
68.3525
65.9476
63.5904
61.2812
59.0204
56.808
54.6438
52.5278
50.4597
48.4389
46.4651
44.5376
42.6557
40.8186
39.0256
37.2756
35.5676
33.9007
32.2737
30.6853
29.1346
27.62
26.1404
24.6945
23.2808
21.8979
20.5444
19.2189
17.9198
16.6456
15.3949
14.166
12.9575
11.7677
10.595
9.43782
8.29461
7.1637
6.04348
4.9323
3.82854
2.73055
1.63668
0.545285
132.459
138.291
143.511
148.147
152.23
155.787
158.846
161.434
163.577
165.3
166.626
167.58
168.184
168.46
168.429
168.111
167.526
166.692
165.627
164.348
162.872
161.215
159.391
157.416
155.301
153.062
150.71
148.256
145.713
143.09
140.398
137.647
134.844
131.999
129.119
126.212
123.286
120.345
117.397
114.448
111.502
108.564
105.64
102.733
99.8465
96.9851
94.1516
91.3489
88.5798
85.8465
83.1513
80.496
77.8823
75.3117
72.7853
70.3043
67.8695
65.4815
63.141
60.8481
58.6033
56.4065
54.2576
52.1566
50.103
48.0966
46.1367
44.2228
42.3542
40.5302
38.7498
37.0121
35.3162
33.6611
32.0456
30.4685
28.9286
27.4248
25.9557
24.52
23.1162
21.7431
20.3992
19.083
17.7931
16.528
15.2861
14.0659
12.8659
11.6845
10.5201
9.37112
8.23598
7.11307
6.00076
4.89745
3.80148
2.71125
1.62511
0.541431
131.483
137.273
142.454
147.056
151.109
154.64
157.676
160.246
162.373
164.082
165.399
166.346
166.946
167.22
167.189
166.873
166.292
165.464
164.407
163.138
161.673
160.028
158.217
156.256
154.158
151.935
149.6
147.165
144.64
142.037
139.365
136.633
133.851
131.027
128.168
125.283
122.378
119.459
116.533
113.605
110.681
107.765
104.862
101.976
99.1112
96.2709
93.4582
90.6762
87.9274
85.2143
82.5389
79.9032
77.3087
74.757
72.2493
69.7865
67.3696
64.9993
62.6759
60.4
58.1717
55.9911
53.8581
51.7725
49.7341
47.7424
45.7969
43.8971
42.0423
40.2317
38.4644
36.7395
35.0562
33.4132
31.8096
30.2441
28.7156
27.2228
25.7645
24.3394
22.946
21.583
20.249
18.9425
17.6621
16.4063
15.1735
13.9623
12.7712
11.5984
10.4426
9.30211
8.17533
7.06069
5.95657
4.86138
3.77349
2.69128
1.61314
0.537444
130.475
136.22
141.362
145.929
149.95
153.454
156.468
159.017
161.128
162.825
164.131
165.071
165.666
165.938
165.907
165.594
165.017
164.196
163.147
161.887
160.433
158.801
157.005
155.058
152.976
150.77
148.453
146.036
143.531
140.948
138.296
135.586
132.825
130.022
127.186
124.322
121.439
118.543
115.639
112.734
109.832
106.939
104.058
101.194
98.3514
95.5328
92.7418
89.9811
87.2534
84.561
81.9062
79.2906
76.7161
74.1839
71.6954
69.2515
66.8532
64.501
62.1955
59.937
57.7258
55.5618
53.4452
51.3756
49.3528
47.3764
45.4459
43.5606
41.72
39.9233
38.1695
36.4579
34.7874
33.1571
31.5657
30.0122
28.4955
27.0142
25.567
24.1528
22.7701
21.4175
20.0938
18.7973
17.5267
16.2805
15.0572
13.8553
12.6732
11.5095
10.3626
9.2308
8.11266
7.00656
5.91091
4.82411
3.74456
2.67065
1.60078
0.533324
129.435
135.134
140.235
144.765
148.755
152.231
155.22
157.749
159.843
161.527
162.823
163.755
164.345
164.615
164.585
164.274
163.702
162.887
161.846
160.597
159.154
157.535
155.753
153.822
151.756
149.568
147.27
144.872
142.387
139.824
137.194
134.505
131.766
128.986
126.172
123.331
120.471
117.598
114.717
111.835
108.956
106.086
103.228
100.388
97.5674
94.7713
92.0024
89.2638
86.5578
83.8869
81.2532
78.6585
76.1045
73.5926
71.1239
68.6995
66.3202
63.9868
61.6997
59.4592
57.2656
55.1189
53.0191
50.966
48.9594
46.9987
45.0836
43.2134
41.3874
39.605
37.8652
36.1673
34.5101
32.8927
31.3141
29.773
28.2683
26.7988
25.3632
23.9603
22.5886
21.2468
19.9336
18.6474
17.387
16.1507
14.9372
13.7448
12.5722
11.4178
10.28
9.15721
8.04799
6.9507
5.86379
4.78565
3.71471
2.64936
1.58802
0.529072
128.363
134.015
139.073
143.566
147.523
150.97
153.935
156.443
158.519
160.189
161.474
162.399
162.984
163.252
163.221
162.913
162.346
161.537
160.505
159.266
157.836
156.23
154.463
152.548
150.499
148.329
146.05
143.672
141.208
138.666
136.057
133.391
130.675
127.917
125.127
122.31
119.473
116.624
113.767
110.909
108.054
105.207
102.373
99.5561
96.7592
93.9863
91.2404
88.5244
85.8409
83.1921
80.5802
78.007
75.4742
72.983
70.5348
68.1305
65.7709
63.4568
61.1886
58.9667
56.7913
54.6624
52.58
50.5439
48.5538
46.6094
44.7102
42.8554
41.0446
39.277
37.5516
35.8677
34.2243
32.6203
31.0547
29.5264
28.0342
26.5768
25.1531
23.7618
22.4015
21.0708
19.7685
18.493
17.243
16.0169
14.8134
13.631
12.4681
11.3232
10.1948
9.08136
7.98133
6.89313
5.81522
4.74602
3.68394
2.62742
1.57486
0.52469
127.259
132.863
137.877
142.332
146.254
149.672
152.611
155.098
157.156
158.811
160.086
161.002
161.583
161.848
161.818
161.512
160.95
160.148
159.125
157.897
156.479
154.887
153.135
151.236
149.205
147.054
144.794
142.437
139.993
137.474
134.887
132.244
129.551
126.817
124.051
121.258
118.446
115.621
112.789
109.955
107.125
104.303
101.493
98.7
95.9272
93.1781
90.4559
87.7632
85.1028
82.4768
79.8874
77.3363
74.8252
72.3555
69.9283
67.5446
65.2054
62.9112
60.6625
58.4597
56.3029
54.1924
52.1279
50.1093
48.1363
46.2087
44.3257
42.4869
40.6917
38.9392
37.2287
35.5593
33.93
32.3398
30.7877
29.2725
27.7931
26.3483
24.9369
23.5575
22.2089
20.8896
19.5985
18.334
17.0947
15.8792
14.6861
13.5138
12.3609
11.2258
10.1071
9.00328
7.9127
6.83386
5.76522
4.70521
3.65227
2.60483
1.56132
0.520179
126.124
131.678
136.648
141.062
144.95
148.337
151.25
153.714
155.755
157.395
158.658
159.566
160.141
160.404
160.375
160.072
159.514
158.72
157.706
156.488
155.083
153.505
151.769
149.887
147.874
145.742
143.502
141.166
138.745
136.247
133.684
131.064
128.395
125.686
122.944
120.177
117.39
114.59
111.783
108.974
106.169
103.372
100.588
97.8196
95.0716
92.347
89.649
86.9804
84.3436
81.7411
79.1748
76.6465
74.1578
71.71
69.3045
66.9421
64.6238
62.35
60.1214
57.9382
55.8007
53.709
51.6629
49.6623
47.707
45.7965
43.9303
42.108
40.3287
38.5919
36.8966
35.2421
33.6273
32.0513
30.5131
29.0114
27.5452
26.1133
24.7144
23.3474
22.0108
20.7033
19.4237
18.1704
16.9422
15.7376
14.5551
13.3933
12.2506
11.1257
10.017
8.92297
7.84212
6.77291
5.71379
4.66324
3.61969
2.58159
1.5474
0.515539
124.958
130.46
135.384
139.758
143.609
146.965
149.851
152.293
154.314
155.939
157.191
158.091
158.661
158.921
158.892
158.592
158.039
157.252
156.248
155.041
153.649
152.086
150.365
148.501
146.507
144.395
142.175
139.861
137.462
134.988
132.448
129.852
127.208
124.524
121.807
119.065
116.304
113.53
110.749
107.967
105.188
102.416
99.6576
96.9151
94.1924
91.4931
88.82
86.1761
83.5637
80.9852
78.4426
75.9377
73.472
71.0469
68.6637
66.3231
64.0262
61.7735
59.5654
57.4025
55.2847
53.2123
51.1852
49.2031
47.2658
45.373
43.5241
41.7186
39.9558
38.235
36.5555
34.9162
33.3164
31.755
30.2309
28.7431
27.2905
25.8718
24.4859
23.1315
21.8072
20.5119
19.2441
18.0024
16.7856
15.5921
14.4205
13.2694
12.1373
11.0228
9.92437
8.84046
7.7696
6.71028
5.66096
4.62012
3.58622
2.55772
1.53309
0.510772
123.761
129.21
134.087
138.419
142.234
145.557
148.416
150.834
152.836
154.445
155.685
156.576
157.141
157.399
157.369
157.072
156.525
155.746
154.751
153.556
152.177
150.629
148.925
147.079
145.104
143.011
140.813
138.521
136.145
133.694
131.179
128.608
125.989
123.331
120.641
117.925
115.19
112.443
109.688
106.932
104.18
101.435
98.7029
95.9866
93.2901
90.6166
87.9691
85.3505
82.7632
80.2094
77.6912
75.2102
72.7682
70.3663
68.0059
65.6878
63.4128
61.1817
58.9948
56.8525
54.7551
52.7025
50.6948
48.7317
46.813
44.9383
43.1071
41.3189
39.573
37.8688
36.2053
34.5817
32.9972
31.4507
29.9413
28.4678
27.0291
25.624
24.2513
22.9099
21.5983
20.3154
19.0597
17.83
16.6248
15.4427
14.2823
13.1423
12.0211
10.9172
9.82929
8.75577
7.69517
6.64599
5.60673
4.57586
3.55186
2.53322
1.5184
0.505878
122.533
127.929
132.757
137.046
140.823
144.113
146.944
149.338
151.32
152.913
154.141
155.023
155.582
155.837
155.808
155.514
154.973
154.201
153.216
152.033
150.668
149.135
147.448
145.62
143.664
141.593
139.417
137.147
134.794
132.368
129.878
127.332
124.74
122.108
119.444
116.755
114.047
111.327
108.6
105.872
103.147
100.429
97.7239
95.0345
92.3647
89.7177
87.0965
84.5039
81.9422
79.4138
76.9205
74.4642
72.0463
69.6683
67.3313
65.0362
62.7838
60.5748
58.4096
56.2886
54.212
52.1798
50.192
48.2483
46.3487
44.4926
42.6796
40.9091
39.1805
37.4931
35.8461
34.2387
32.6699
31.1388
29.6443
28.1854
26.7609
25.3698
24.0108
22.6826
21.3841
20.1139