/*--------------------------------*- C++ -*----------------------------------*\
| =========                 |                                                 |
| \\      /  F ield         | OpenFOAM: The Open Source CFD Toolbox           |
|  \\    /   O peration     | Version:  2406                                  |
|   \\  /    A nd           | Website:  www.openfoam.com                      |
|    \\/     M anipulation  |                                                 |
\*---------------------------------------------------------------------------*/
FoamFile
{
    version     2.0;
    format      ascii;
    arch        "LSB;label=32;scalar=64";
    class       volVectorField;
    location    "150";
    object      flux;
}
// * * * * * * * * * * * * * * * * * * * * * * * * * * * * * * * * * * * * * //

dimensions      [0 1 -1 1 0 0 0];

internalField   nonuniform List<vector> 
20000
(
(0.00109427 -0.0148547 0)
(0.00103248 -0.0127284 0)
(0.000971487 -0.010725 0)
(0.000911475 -0.00884275 0)
(0.000852657 -0.00707938 0)
(0.000795284 -0.00543229 0)
(0.000739435 -0.00389845 0)
(0.000685217 -0.00247476 0)
(0.0006328 -0.00115774 0)
(0.000582261 5.62939e-05 0)
(0.000533647 0.00117115 0)
(0.000487009 0.00219074 0)
(0.000442392 0.00311907 0)
(0.000399821 0.0039602 0)
(0.000359307 0.00471826 0)
(0.000320846 0.00539734 0)
(0.000284425 0.00600156 0)
(0.000250023 0.00653497 0)
(0.00021761 0.00700159 0)
(0.000187151 0.00740536 0)
(0.000158604 0.00775015 0)
(0.00013192 0.00803974 0)
(0.000107049 0.0082778 0)
(8.39339e-05 0.00846791 0)
(6.25158e-05 0.00861351 0)
(4.27332e-05 0.00871795 0)
(2.45222e-05 0.00878444 0)
(7.81778e-06 0.00881604 0)
(-7.44609e-06 0.0088157 0)
(-2.1336e-05 0.00878625 0)
(-3.39187e-05 0.00873037 0)
(-4.52606e-05 0.00865059 0)
(-5.54278e-05 0.00854933 0)
(-6.44853e-05 0.00842889 0)
(-7.24973e-05 0.00829141 0)
(-7.95266e-05 0.00813892 0)
(-8.56344e-05 0.00797332 0)
(-9.08807e-05 0.0077964 0)
(-9.53233e-05 0.00760982 0)
(-9.90183e-05 0.00741513 0)
(-0.00010202 0.00721377 0)
(-0.00010438 0.00700708 0)
(-0.000106149 0.00679628 0)
(-0.000107375 0.00658251 0)
(-0.000108103 0.0063668 0)
(-0.000108378 0.00615012 0)
(-0.000108239 0.00593332 0)
(-0.000107728 0.00571719 0)
(-0.000106881 0.00550243 0)
(-0.000105733 0.00528969 0)
(-0.000104317 0.00507953 0)
(-0.000102665 0.00487245 0)
(-0.000100806 0.00466889 0)
(-9.87663e-05 0.00446925 0)
(-9.65721e-05 0.00427385 0)
(-9.42471e-05 0.00408298 0)
(-9.18131e-05 0.00389689 0)
(-8.92906e-05 0.00371575 0)
(-8.66984e-05 0.00353975 0)
(-8.40538e-05 0.00336898 0)
(-8.13728e-05 0.00320355 0)
(-7.86698e-05 0.00304351 0)
(-7.59582e-05 0.00288889 0)
(-7.325e-05 0.0027397 0)
(-7.05563e-05 0.00259591 0)
(-6.78868e-05 0.00245749 0)
(-6.52504e-05 0.00232438 0)
(-6.26552e-05 0.0021965 0)
(-6.0108e-05 0.00207377 0)
(-5.76153e-05 0.00195609 0)
(-5.51824e-05 0.00184333 0)
(-5.28142e-05 0.00173537 0)
(-5.05148e-05 0.00163208 0)
(-4.82878e-05 0.00153332 0)
(-4.61362e-05 0.00143894 0)
(-4.40625e-05 0.00134879 0)
(-4.20689e-05 0.0012627 0)
(-4.0157e-05 0.00118053 0)
(-3.83282e-05 0.00110209 0)
(-3.65835e-05 0.00102722 0)
(-3.49235e-05 0.000955762 0)
(-3.33489e-05 0.000887536 0)
(-3.18598e-05 0.000822374 0)
(-3.04564e-05 0.000760105 0)
(-2.91386e-05 0.000700556 0)
(-2.79062e-05 0.000643558 0)
(-2.67589e-05 0.000588938 0)
(-2.56963e-05 0.000536529 0)
(-2.4718e-05 0.000486159 0)
(-2.38236e-05 0.000437663 0)
(-2.30124e-05 0.000390871 0)
(-2.22842e-05 0.000345618 0)
(-2.16382e-05 0.00030174 0)
(-2.10742e-05 0.000259071 0)
(-2.05916e-05 0.000217448 0)
(-2.019e-05 0.00017671 0)
(-1.98692e-05 0.000136693 0)
(-1.96289e-05 9.72377e-05 0)
(-1.94688e-05 5.81826e-05 0)
(-1.93887e-05 1.93675e-05 0)
(0.00328258 -0.0148511 0)
(0.0030972 -0.0127252 0)
(0.00291417 -0.0107224 0)
(0.00273419 -0.00884059 0)
(0.0025578 -0.00707762 0)
(0.00238564 -0.00543093 0)
(0.0022181 -0.0038975 0)
(0.00205549 -0.00247417 0)
(0.00189826 -0.00115746 0)
(0.00174664 5.62876e-05 0)
(0.0016008 0.00117087 0)
(0.0014609 0.0021902 0)
(0.00132707 0.00311829 0)
(0.00119937 0.00395922 0)
(0.00107783 0.00471709 0)
(0.00096246 0.00539601 0)
(0.000853206 0.00600008 0)
(0.000750007 0.00653336 0)
(0.000652777 0.00699987 0)
(0.000561407 0.00740354 0)
(0.000475771 0.00774824 0)
(0.000395728 0.00803775 0)
(0.00032112 0.00827576 0)
(0.000251781 0.00846582 0)
(0.000187532 0.00861139 0)
(0.000128189 0.0087158 0)
(7.35604e-05 0.00878227 0)
(2.34514e-05 0.00881386 0)
(-2.23365e-05 0.00881353 0)
(-6.40028e-05 0.00878409 0)
(-0.000101748 0.00872821 0)
(-0.000135771 0.00864845 0)
(-0.00016627 0.00854722 0)
(-0.00019344 0.00842681 0)
(-0.000217474 0.00828936 0)
(-0.00023856 0.00813691 0)
(-0.000256882 0.00797135 0)
(-0.00027262 0.00779448 0)
(-0.000285946 0.00760794 0)
(-0.00029703 0.0074133 0)
(-0.000306035 0.00721199 0)
(-0.000313115 0.00700535 0)
(-0.000318422 0.0067946 0)
(-0.000322099 0.00658088 0)
(-0.000324283 0.00636523 0)
(-0.000325106 0.0061486 0)
(-0.000324692 0.00593186 0)
(-0.000323158 0.00571578 0)
(-0.000320616 0.00550108 0)
(-0.000317173 0.00528839 0)
(-0.000312926 0.00507827 0)
(-0.000307971 0.00487124 0)
(-0.000302393 0.00466774 0)
(-0.000296274 0.00446815 0)
(-0.000289693 0.0042728 0)
(-0.000282718 0.00408198 0)
(-0.000275417 0.00389592 0)
(-0.00026785 0.00371484 0)
(-0.000260074 0.00353887 0)
(-0.000252141 0.00336815 0)
(-0.000244098 0.00320276 0)
(-0.00023599 0.00304276 0)
(-0.000227856 0.00288818 0)
(-0.000219732 0.00273902 0)
(-0.000211651 0.00259527 0)
(-0.000203644 0.00245688 0)
(-0.000195735 0.00232381 0)
(-0.00018795 0.00219596 0)
(-0.000180309 0.00207326 0)
(-0.000172832 0.0019556 0)
(-0.000165534 0.00184287 0)
(-0.000158429 0.00173494 0)
(-0.000151532 0.00163168 0)
(-0.000144851 0.00153295 0)
(-0.000138397 0.00143859 0)
(-0.000132177 0.00134846 0)
(-0.000126196 0.00126239 0)
(-0.000120461 0.00118023 0)
(-0.000114975 0.00110181 0)
(-0.000109741 0.00102697 0)
(-0.000104762 0.000955526 0)
(-0.000100038 0.000887317 0)
(-9.55716e-05 0.000822171 0)
(-9.13618e-05 0.000759917 0)
(-8.74086e-05 0.000700383 0)
(-8.37117e-05 0.000643399 0)
(-8.027e-05 0.000588793 0)
(-7.70826e-05 0.000536396 0)
(-7.4148e-05 0.000486039 0)
(-7.14648e-05 0.000437555 0)
(-6.90317e-05 0.000390775 0)
(-6.6847e-05 0.000345533 0)
(-6.49093e-05 0.000301665 0)
(-6.32173e-05 0.000259007 0)
(-6.17696e-05 0.000217395 0)
(-6.05651e-05 0.000176666 0)
(-5.96028e-05 0.00013666 0)
(-5.88818e-05 9.72137e-05 0)
(-5.84015e-05 5.81682e-05 0)
(-5.81614e-05 1.93628e-05 0)
(0.00547008 -0.0148438 0)
(0.00516118 -0.012719 0)
(0.00485615 -0.0107171 0)
(0.00455623 -0.00883622 0)
(0.00426232 -0.00707413 0)
(0.0039754 -0.00542824 0)
(0.0036962 -0.00389558 0)
(0.00342526 -0.00247295 0)
(0.00316325 -0.00115688 0)
(0.00291059 5.62628e-05 0)
(0.00266756 0.00117029 0)
(0.00243444 0.00218912 0)
(0.00221141 0.00311675 0)
(0.00199862 0.00395727 0)
(0.0017961 0.00471476 0)
(0.00160384 0.00539335 0)
(0.00142178 0.00599712 0)
(0.00124981 0.00653014 0)
(0.00108778 0.00699641 0)
(0.000935524 0.00739988 0)
(0.000792822 0.00774442 0)
(0.000659438 0.00803379 0)
(0.000535112 0.00827167 0)
(0.000419566 0.00846164 0)
(0.000312502 0.00860714 0)
(0.000213613 0.0087115 0)
(0.000122581 0.00877793 0)
(3.90791e-05 0.00880951 0)
(-3.72214e-05 0.00880918 0)
(-0.000106654 0.00877975 0)
(-0.000169552 0.0087239 0)
(-0.000226247 0.00864418 0)
(-0.000277071 0.00854301 0)
(-0.000322347 0.00842265 0)
(-0.000362397 0.00828527 0)
(-0.000397535 0.00813289 0)
(-0.000428067 0.00796742 0)
(-0.000454291 0.00779063 0)
(-0.000476499 0.00760419 0)
(-0.000494969 0.00740964 0)
(-0.000509974 0.00720843 0)
(-0.000521773 0.00700189 0)
(-0.000530616 0.00679125 0)
(-0.000536743 0.00657763 0)
(-0.000540383 0.00636209 0)
(-0.000541755 0.00614557 0)
(-0.000541064 0.00592893 0)
(-0.000538508 0.00571296 0)
(-0.000534273 0.00549836 0)
(-0.000528535 0.00528578 0)
(-0.000521458 0.00507577 0)
(-0.0005132 0.00486884 0)
(-0.000503905 0.00466544 0)
(-0.00049371 0.00446594 0)
(-0.000482742 0.00427069 0)
(-0.000471119 0.00407996 0)
(-0.000458952 0.003894 0)
(-0.000446343 0.003713 0)
(-0.000433385 0.00353713 0)
(-0.000420166 0.00336649 0)
(-0.000406764 0.00320118 0)
(-0.000393252 0.00304126 0)
(-0.000379697 0.00288675 0)
(-0.00036616 0.00273767 0)
(-0.000352694 0.00259399 0)
(-0.00033935 0.00245567 0)
(-0.000326172 0.00232266 0)
(-0.000313198 0.00219488 0)
(-0.000300466 0.00207224 0)
(-0.000288005 0.00195464 0)
(-0.000275844 0.00184196 0)
(-0.000264006 0.00173409 0)
(-0.000252512 0.00163088 0)
(-0.000241379 0.00153219 0)
(-0.000230624 0.00143788 0)
(-0.000220258 0.00134779 0)
(-0.000210293 0.00126177 0)
(-0.000200736 0.00117965 0)
(-0.000191594 0.00110127 0)
(-0.000182872 0.00102646 0)
(-0.000174575 0.000955054 0)
(-0.000166703 0.000886879 0)
(-0.00015926 0.000821766 0)
(-0.000152245 0.000759542 0)
(-0.000145657 0.000700038 0)
(-0.000139497 0.000643081 0)
(-0.000133761 0.000588502 0)
(-0.00012845 0.000536132 0)
(-0.00012356 0.0004858 0)
(-0.000119088 0.000437339 0)
(-0.000115034 0.000390582 0)
(-0.000111393 0.000345363 0)
(-0.000108164 0.000301517 0)
(-0.000105345 0.000258879 0)
(-0.000102932 0.000217287 0)
(-0.000100925 0.000176579 0)
(-9.93216e-05 0.000136592 0)
(-9.81201e-05 9.71658e-05 0)
(-9.73197e-05 5.81395e-05 0)
(-9.69197e-05 1.93532e-05 0)
(0.0076562 -0.0148327 0)
(0.00722387 -0.0127096 0)
(0.00679696 -0.0107092 0)
(0.00637715 -0.00882967 0)
(0.00596578 -0.00706889 0)
(0.00556419 -0.00542422 0)
(0.00517339 -0.0038927 0)
(0.00479419 -0.00247111 0)
(0.00442747 -0.00115602 0)
(0.00407381 5.62216e-05 0)
(0.00373366 0.00116942 0)
(0.00340737 0.00218749 0)
(0.00309522 0.00311444 0)
(0.00279738 0.00395433 0)
(0.00251392 0.00471127 0)
(0.00224482 0.00538936 0)
(0.00199 0.00599268 0)
(0.0017493 0.00652531 0)
(0.00152252 0.00699123 0)
(0.00130941 0.0073944 0)
(0.00110968 0.00773868 0)
(0.000922985 0.00802784 0)
(0.000748972 0.00826555 0)
(0.000587247 0.00845537 0)
(0.000437395 0.00860077 0)
(0.000298984 0.00870505 0)
(0.00017157 0.00877143 0)
(5.46973e-05 0.00880299 0)
(-5.20971e-05 0.00880266 0)
(-0.000149279 0.00877325 0)
(-0.000237314 0.00871744 0)
(-0.000316668 0.00863778 0)
(-0.000387803 0.00853668 0)
(-0.000451175 0.00841641 0)
(-0.000507231 0.00827914 0)
(-0.000556411 0.00812687 0)
(-0.000599145 0.00796152 0)
(-0.000635851 0.00778486 0)
(-0.000666934 0.00759856 0)
(-0.000692786 0.00740416 0)
(-0.000713787 0.0072031 0)
(-0.000730301 0.00699671 0)
(-0.000742679 0.00678622 0)
(-0.000751255 0.00657276 0)
(-0.00075635 0.00635738 0)
(-0.000758269 0.00614102 0)
(-0.000757302 0.00592454 0)
(-0.000753725 0.00570873 0)
(-0.000747797 0.00549429 0)
(-0.000739766 0.00528186 0)
(-0.000729862 0.00507201 0)
(-0.000718302 0.00486524 0)
(-0.000705293 0.00466198 0)
(-0.000691023 0.00446263 0)
(-0.000675671 0.00426753 0)
(-0.000659404 0.00407694 0)
(-0.000642375 0.00389112 0)
(-0.000624726 0.00371025 0)
(-0.00060659 0.00353451 0)
(-0.000588087 0.003364 0)
(-0.000569328 0.00319881 0)
(-0.000550417 0.00303901 0)
(-0.000531445 0.00288462 0)
(-0.000512497 0.00273564 0)
(-0.00049365 0.00259207 0)
(-0.000474973 0.00245385 0)
(-0.000456528 0.00232094 0)
(-0.00043837 0.00219325 0)
(-0.000420549 0.0020707 0)
(-0.000403108 0.00195319 0)
(-0.000386086 0.0018406 0)
(-0.000369517 0.0017328 0)
(-0.000353429 0.00162967 0)
(-0.000337848 0.00153105 0)
(-0.000322794 0.00143681 0)
(-0.000308286 0.00134679 0)
(-0.000294337 0.00126084 0)
(-0.000280961 0.00117878 0)
(-0.000268165 0.00110046 0)
(-0.000255958 0.0010257 0)
(-0.000244344 0.000954347 0)
(-0.000233327 0.000886223 0)
(-0.000222909 0.000821157 0)
(-0.00021309 0.00075898 0)
(-0.00020387 0.000699519 0)
(-0.000195247 0.000642605 0)
(-0.00018722 0.000588067 0)
(-0.000179785 0.000535735 0)
(-0.000172941 0.00048544 0)
(-0.000166683 0.000437015 0)
(-0.000161008 0.000390293 0)
(-0.000155912 0.000345107 0)
(-0.000151393 0.000301293 0)
(-0.000147446 0.000258688 0)
(-0.00014407 0.000217127 0)
(-0.000141261 0.000176448 0)
(-0.000139016 0.000136491 0)
(-0.000137334 9.70938e-05 0)
(-0.000136214 5.80965e-05 0)
(-0.000135654 1.93389e-05 0)
(0.00984042 -0.0148181 0)
(0.00928476 -0.012697 0)
(0.00873608 -0.0106986 0)
(0.00819649 -0.00882095 0)
(0.00766777 -0.00706191 0)
(0.0071516 -0.00541886 0)
(0.0066493 -0.00388885 0)
(0.00616193 -0.00246867 0)
(0.00569059 -0.00115488 0)
(0.00523603 5.61649e-05 0)
(0.00479883 0.00116826 0)
(0.00437945 0.00218533 0)
(0.00397825 0.00311136 0)
(0.00359545 0.00395043 0)
(0.00323112 0.00470662 0)
(0.00288525 0.00538403 0)
(0.00255773 0.00598677 0)
(0.00224836 0.00651886 0)
(0.00195688 0.00698433 0)
(0.00168297 0.0073871 0)
(0.00142626 0.00773104 0)
(0.0011863 0.00801991 0)
(0.000962647 0.00825738 0)
(0.000754783 0.00844702 0)
(0.000562179 0.00859227 0)
(0.000384282 0.00869645 0)
(0.000220518 0.00876277 0)
(7.03018e-05 0.00879429 0)
(-6.696e-05 0.00879396 0)
(-0.000191866 0.00876458 0)
(-0.000305017 0.00870883 0)
(-0.000407011 0.00862925 0)
(-0.00049844 0.00852825 0)
(-0.000579891 0.0084081 0)
(-0.000651939 0.00827096 0)
(-0.000715151 0.00811884 0)
(-0.000770076 0.00795366 0)
(-0.000817254 0.00777717 0)
(-0.000857204 0.00759105 0)
(-0.000890432 0.00739684 0)
(-0.000917424 0.00719598 0)
(-0.00093865 0.00698979 0)
(-0.000954559 0.00677951 0)
(-0.000965582 0.00656627 0)
(-0.00097213 0.0063511 0)
(-0.000974597 0.00613495 0)
(-0.000973354 0.00591869 0)
(-0.000968756 0.00570309 0)
(-0.000961138 0.00548886 0)
(-0.000950814 0.00527664 0)
(-0.000938085 0.005067 0)
(-0.000923228 0.00486043 0)
(-0.000906506 0.00465738 0)
(-0.000888166 0.00445823 0)
(-0.000868434 0.00426331 0)
(-0.000847526 0.00407291 0)
(-0.000825639 0.00388727 0)
(-0.000802955 0.00370659 0)
(-0.000779644 0.00353101 0)
(-0.000755863 0.00336067 0)
(-0.000731753 0.00319565 0)
(-0.000707446 0.003036 0)
(-0.000683062 0.00288177 0)
(-0.000658708 0.00273294 0)
(-0.000634484 0.00258951 0)
(-0.000610479 0.00245143 0)
(-0.000586771 0.00231865 0)
(-0.000563433 0.00219109 0)
(-0.000540527 0.00206866 0)
(-0.000518111 0.00195126 0)
(-0.000496233 0.00183878 0)
(-0.000474937 0.00173109 0)
(-0.000454259 0.00162806 0)
(-0.000434233 0.00152954 0)
(-0.000414884 0.00143539 0)
(-0.000396237 0.00134546 0)
(-0.000378309 0.00125959 0)
(-0.000361116 0.00117761 0)
(-0.00034467 0.00109937 0)
(-0.00032898 0.00102469 0)
(-0.000314053 0.000953404 0)
(-0.000299893 0.000885347 0)
(-0.000286503 0.000820346 0)
(-0.000273882 0.00075823 0)
(-0.000262032 0.000698828 0)
(-0.000250949 0.00064197 0)
(-0.000240632 0.000587486 0)
(-0.000231077 0.000535205 0)
(-0.000222279 0.00048496 0)
(-0.000214236 0.000436583 0)
(-0.000206942 0.000389907 0)
(-0.000200393 0.000344766 0)
(-0.000194584 0.000300996 0)
(-0.000189512 0.000258432 0)
(-0.000185172 0.000216912 0)
(-0.000181561 0.000176274 0)
(-0.000178676 0.000136356 0)
(-0.000176515 9.69979e-05 0)
(-0.000175075 5.80391e-05 0)
(-0.000174355 1.93198e-05 0)
(0.0120222 -0.0147998 0)
(0.0113434 -0.0126813 0)
(0.010673 -0.0106854 0)
(0.0100138 -0.00881005 0)
(0.00936787 -0.00705319 0)
(0.00873725 -0.00541217 0)
(0.00812358 -0.00388404 0)
(0.00752816 -0.00246562 0)
(0.0069523 -0.00115346 0)
(0.00639696 5.6093e-05 0)
(0.00586282 0.00116682 0)
(0.00535046 0.00218263 0)
(0.00486031 0.00310752 0)
(0.00439263 0.00394555 0)
(0.00394752 0.0047008 0)
(0.00352497 0.00537738 0)
(0.00312483 0.00597937 0)
(0.00274686 0.00651081 0)
(0.00239076 0.0069757 0)
(0.00205612 0.00737798 0)
(0.00174248 0.00772149 0)
(0.00144933 0.00801 0)
(0.00117608 0.00824718 0)
(0.000922133 0.00843659 0)
(0.000686825 0.00858165 0)
(0.000469484 0.00868571 0)
(0.000269411 0.00875194 0)
(8.58889e-05 0.00878343 0)
(-8.18065e-05 0.0087831 0)
(-0.000234407 0.00875375 0)
(-0.000372646 0.00869807 0)
(-0.000497253 0.00861859 0)
(-0.000608954 0.00851771 0)
(-0.000708464 0.00839771 0)
(-0.000796487 0.00826074 0)
(-0.000873714 0.00810881 0)
(-0.000940817 0.00794383 0)
(-0.000998455 0.00776756 0)
(-0.00104726 0.00758167 0)
(-0.00108786 0.0073877 0)
(-0.00112084 0.00718709 0)
(-0.00114677 0.00698116 0)
(-0.0011662 0.00677114 0)
(-0.00117967 0.00655816 0)
(-0.00118767 0.00634325 0)
(-0.00119068 0.00612737 0)
(-0.00118917 0.00591137 0)
(-0.00118355 0.00569604 0)
(-0.00117424 0.00548208 0)
(-0.00116163 0.00527012 0)
(-0.00114608 0.00506074 0)
(-0.00112793 0.00485442 0)
(-0.0011075 0.00465162 0)
(-0.00108509 0.00445272 0)
(-0.00106098 0.00425804 0)
(-0.00103544 0.00406788 0)
(-0.0010087 0.00388247 0)
(-0.000980986 0.00370201 0)
(-0.000952507 0.00352665 0)
(-0.000923452 0.00335652 0)
(-0.000893997 0.0031917 0)
(-0.0008643 0.00303225 0)
(-0.00083451 0.00287821 0)
(-0.000804757 0.00272956 0)
(-0.000775162 0.00258631 0)
(-0.000745834 0.0024484 0)
(-0.00071687 0.00231578 0)
(-0.000688357 0.00218838 0)
(-0.000660373 0.0020661 0)
(-0.000632986 0.00194885 0)
(-0.000606258 0.00183651 0)
(-0.000580239 0.00172895 0)
(-0.000554977 0.00162605 0)
(-0.00053051 0.00152765 0)
(-0.000506872 0.00143362 0)
(-0.00048409 0.0013438 0)
(-0.000462187 0.00125803 0)
(-0.000441183 0.00117616 0)
(-0.00042109 0.00109801 0)
(-0.000401922 0.00102342 0)
(-0.000383685 0.000952227 0)
(-0.000366385 0.000884253 0)
(-0.000350026 0.000819333 0)
(-0.000334608 0.000757293 0)
(-0.000320129 0.000697965 0)
(-0.00030659 0.000641177 0)
(-0.000293985 0.00058676 0)
(-0.000282311 0.000534544 0)
(-0.000271563 0.000484361 0)
(-0.000261736 0.000436044 0)
(-0.000252825 0.000389425 0)
(-0.000244823 0.00034434 0)
(-0.000237727 0.000300624 0)
(-0.00023153 0.000258113 0)
(-0.000226228 0.000216644 0)
(-0.000221816 0.000176056 0)
(-0.000218292 0.000136188 0)
(-0.000215651 9.68781e-05 0)
(-0.000213892 5.79674e-05 0)
(-0.000213013 1.92959e-05 0)
(0.0142011 -0.0147778 0)
(0.0133992 -0.0126625 0)
(0.0126074 -0.0106695 0)
(0.0118287 -0.00879698 0)
(0.0110657 -0.00704272 0)
(0.0103207 -0.00540414 0)
(0.00959585 -0.00387828 0)
(0.00889252 -0.00246196 0)
(0.0082123 -0.00115175 0)
(0.00755631 5.60078e-05 0)
(0.00692537 0.00116509 0)
(0.00632015 0.00217939 0)
(0.00574117 0.00310291 0)
(0.00518873 0.00393969 0)
(0.00466296 0.00469383 0)
(0.00416382 0.00536941 0)
(0.00369115 0.0059705 0)
(0.00324469 0.00650115 0)
(0.00282405 0.00696535 0)
(0.00242876 0.00736703 0)
(0.00205828 0.00771003 0)
(0.001712 0.00799812 0)
(0.00138923 0.00823495 0)
(0.00108925 0.00842407 0)
(0.000811302 0.00856892 0)
(0.000554571 0.00867282 0)
(0.000318237 0.00873896 0)
(0.000101455 0.00877039 0)
(-9.66328e-05 0.00877006 0)
(-0.00027689 0.00874077 0)
(-0.000440182 0.00868517 0)
(-0.000587373 0.0086058 0)
(-0.000719318 0.00850507 0)
(-0.000836862 0.00838525 0)
(-0.000940838 0.00824848 0)
(-0.00103206 0.00809678 0)
(-0.00111133 0.00793204 0)
(-0.00117941 0.00775604 0)
(-0.00123706 0.00757042 0)
(-0.00128502 0.00737674 0)
(-0.00132397 0.00717643 0)
(-0.0013546 0.0069708 0)
(-0.00137756 0.00676109 0)
(-0.00139347 0.00654843 0)
(-0.00140292 0.00633384 0)
(-0.00140648 0.00611828 0)
(-0.00140468 0.0059026 0)
(-0.00139805 0.00568759 0)
(-0.00138705 0.00547395 0)
(-0.00137216 0.0052623 0)
(-0.00135379 0.00505323 0)
(-0.00133234 0.00484722 0)
(-0.00130821 0.00464472 0)
(-0.00128175 0.00444611 0)
(-0.00125327 0.00425172 0)
(-0.0012231 0.00406185 0)
(-0.00119151 0.00387671 0)
(-0.00115877 0.00369652 0)
(-0.00112513 0.00352142 0)
(-0.00109081 0.00335154 0)
(-0.00105602 0.00318697 0)
(-0.00102094 0.00302775 0)
(-0.000985752 0.00287393 0)
(-0.000950606 0.00272551 0)
(-0.000915648 0.00258247 0)
(-0.000881005 0.00244477 0)
(-0.000846791 0.00231234 0)
(-0.000813111 0.00218513 0)
(-0.000780055 0.00206304 0)
(-0.000747705 0.00194596 0)
(-0.000716133 0.00183378 0)
(-0.000685399 0.00172639 0)
(-0.000655558 0.00162363 0)
(-0.000626657 0.00152539 0)
(-0.000598735 0.00143149 0)
(-0.000571824 0.00134181 0)
(-0.000545952 0.00125617 0)
(-0.00052114 0.00117441 0)
(-0.000497407 0.00109638 0)
(-0.000474764 0.0010219 0)
(-0.000453222 0.000950814 0)
(-0.000432787 0.000882941 0)
(-0.000413463 0.000818117 0)
(-0.00039525 0.00075617 0)
(-0.000378148 0.000696929 0)
(-0.000362154 0.000640226 0)
(-0.000347265 0.000585889 0)
(-0.000333475 0.000533751 0)
(-0.00032078 0.000483643 0)
(-0.000309172 0.000435397 0)
(-0.000298645 0.000388847 0)
(-0.000289194 0.000343829 0)
(-0.000280811 0.000300178 0)
(-0.000273491 0.00025773 0)
(-0.000267228 0.000216323 0)
(-0.000262017 0.000175795 0)
(-0.000257854 0.000135986 0)
(-0.000254735 9.67344e-05 0)
(-0.000252657 5.78814e-05 0)
(-0.000251618 1.92673e-05 0)
(0.0163764 -0.0147522 0)
(0.0154517 -0.0126406 0)
(0.0145386 -0.010651 0)
(0.0136406 -0.00878173 0)
(0.0127607 -0.00703052 0)
(0.0119017 -0.00539477 0)
(0.0110657 -0.00387156 0)
(0.0102547 -0.0024577 0)
(0.00947028 -0.00114975 0)
(0.00871379 5.59093e-05 0)
(0.0079862 0.00116307 0)
(0.00728828 0.00217561 0)
(0.00662062 0.00309753 0)
(0.00598355 0.00393287 0)
(0.00537724 0.0046857 0)
(0.00480164 0.0053601 0)
(0.00425657 0.00596016 0)
(0.00374171 0.00648989 0)
(0.00325664 0.00695328 0)
(0.0028008 0.00735427 0)
(0.00237357 0.00769667 0)
(0.00197424 0.00798426 0)
(0.00160204 0.00822068 0)
(0.00125611 0.00840947 0)
(0.000935578 0.00855407 0)
(0.000639521 0.00865779 0)
(0.000366985 0.00872382 0)
(0.000116996 0.0087552 0)
(-0.000111435 0.00875487 0)
(-0.000319305 0.00872562 0)
(-0.00050761 0.00867012 0)
(-0.000677348 0.00859089 0)
(-0.000829504 0.00849034 0)
(-0.000965054 0.00837072 0)
(-0.00108496 0.00823419 0)
(-0.00119015 0.00808275 0)
(-0.00128156 0.0079183 0)
(-0.00136007 0.0077426 0)
(-0.00142656 0.00755731 0)
(-0.00148186 0.00736396 0)
(-0.00152678 0.00716399 0)
(-0.0015621 0.00695872 0)
(-0.00158858 0.00674938 0)
(-0.00160692 0.00653708 0)
(-0.00161782 0.00632287 0)
(-0.00162192 0.00610768 0)
(-0.00161986 0.00589237 0)
(-0.0016122 0.00567773 0)
(-0.00159952 0.00546446 0)
(-0.00158234 0.00525319 0)
(-0.00156116 0.00504447 0)
(-0.00153644 0.00483882 0)
(-0.00150861 0.00463667 0)
(-0.00147808 0.00443841 0)
(-0.00144525 0.00424436 0)
(-0.00141045 0.00405481 0)
(-0.00137403 0.00386999 0)
(-0.00133628 0.00369011 0)
(-0.00129748 0.00351532 0)
(-0.00125791 0.00334573 0)
(-0.00121778 0.00318144 0)
(-0.00117733 0.00302251 0)
(-0.00113675 0.00286895 0)
(-0.00109622 0.00272079 0)
(-0.00105591 0.00257799 0)
(-0.00101596 0.00244053 0)
(-0.000976504 0.00230834 0)
(-0.000937664 0.00218135 0)
(-0.000899545 0.00205946 0)
(-0.00086224 0.00194259 0)
(-0.000825831 0.00183061 0)
(-0.000790389 0.00172339 0)
(-0.000755978 0.00162082 0)
(-0.00072265 0.00152274 0)
(-0.00069045 0.00142901 0)
(-0.000659417 0.00133948 0)
(-0.000629581 0.00125399 0)
(-0.000600969 0.00117238 0)
(-0.0005736 0.00109448 0)
(-0.000547489 0.00102013 0)
(-0.000522647 0.000949166 0)
(-0.000499082 0.000881412 0)
(-0.000476798 0.000816699 0)
(-0.000455795 0.000754859 0)
(-0.000436073 0.000695722 0)
(-0.00041763 0.000639116 0)
(-0.00040046 0.000584874 0)
(-0.000384558 0.000532826 0)
(-0.000369917 0.000482805 0)
(-0.000356531 0.000434642 0)
(-0.000344392 0.000388174 0)
(-0.000333493 0.000343234 0)
(-0.000323826 0.000299658 0)
(-0.000315385 0.000257283 0)
(-0.000308163 0.000215948 0)
(-0.000302154 0.00017549 0)
(-0.000297353 0.00013575 0)
(-0.000293755 9.65667e-05 0)
(-0.000291359 5.77811e-05 0)
(-0.000290162 1.92339e-05 0)
(0.0185477 -0.014723 0)
(0.0175004 -0.0126155 0)
(0.0164662 -0.0106299 0)
(0.0154492 -0.00876432 0)
(0.0144526 -0.00701658 0)
(0.0134797 -0.00538408 0)
(0.0125329 -0.00386389 0)
(0.0116143 -0.00245283 0)
(0.0107259 -0.00114748 0)
(0.00986913 5.57969e-05 0)
(0.00904507 0.00116076 0)
(0.00825462 0.0021713 0)
(0.00749843 0.00309139 0)
(0.0067769 0.00392507 0)
(0.00609019 0.00467641 0)
(0.00543828 0.00534948 0)
(0.00482094 0.00594834 0)
(0.00423782 0.00647702 0)
(0.00368842 0.0069395 0)
(0.00317215 0.00733969 0)
(0.00268828 0.00768142 0)
(0.002236 0.00796843 0)
(0.00181444 0.00820438 0)
(0.00142265 0.0083928 0)
(0.00105962 0.00853712 0)
(0.000724312 0.00864063 0)
(0.000415642 0.00870652 0)
(0.000132507 0.00873784 0)
(-0.000126211 0.00873751 0)
(-0.000361641 0.00870832 0)
(-0.000574913 0.00865293 0)
(-0.000767156 0.00857386 0)
(-0.000939486 0.0084735 0)
(-0.00109301 0.00835413 0)
(-0.00122881 0.00821787 0)
(-0.00134795 0.00806673 0)
(-0.00145148 0.0079026 0)
(-0.0015404 0.00772725 0)
(-0.0016157 0.00754232 0)
(-0.00167833 0.00734936 0)
(-0.00172921 0.00714979 0)
(-0.00176922 0.00694493 0)
(-0.0017992 0.006736 0)
(-0.00181998 0.00652412 0)
(-0.00183232 0.00631033 0)
(-0.00183697 0.00609557 0)
(-0.00183463 0.00588069 0)
(-0.00182596 0.00566648 0)
(-0.0018116 0.00545363 0)
(-0.00179214 0.00524277 0)
(-0.00176815 0.00503447 0)
(-0.00174015 0.00482923 0)
(-0.00170863 0.00462748 0)
(-0.00167406 0.00442961 0)
(-0.00163687 0.00423594 0)
(-0.00159746 0.00404677 0)
(-0.00155621 0.00386232 0)
(-0.00151345 0.0036828 0)
(-0.00146951 0.00350835 0)
(-0.00142469 0.0033391 0)
(-0.00137924 0.00317514 0)
(-0.00133343 0.00301652 0)
(-0.00128747 0.00286327 0)
(-0.00124157 0.0027154 0)
(-0.00119591 0.00257288 0)
(-0.00115066 0.00243569 0)
(-0.00110598 0.00230376 0)
(-0.00106199 0.00217702 0)
(-0.00101881 0.00205538 0)
(-0.000976562 0.00193874 0)
(-0.000935325 0.00182698 0)
(-0.000895185 0.00171998 0)
(-0.000856211 0.00161761 0)
(-0.000818464 0.00151972 0)
(-0.000781995 0.00142618 0)
(-0.000746847 0.00133683 0)
(-0.000713056 0.0012515 0)
(-0.00068065 0.00117005 0)
(-0.000649652 0.00109231 0)
(-0.000620079 0.00101811 0)
(-0.000591944 0.000947285 0)
(-0.000565254 0.000879664 0)
(-0.000540015 0.00081508 0)
(-0.000516228 0.000753363 0)
(-0.000493891 0.000694343 0)
(-0.000473002 0.00063785 0)
(-0.000453555 0.000583715 0)
(-0.000435545 0.00053177 0)
(-0.000418963 0.000481847 0)
(-0.000403803 0.000433781 0)
(-0.000390054 0.000387404 0)
(-0.00037771 0.000342553 0)
(-0.000366762 0.000299064 0)
(-0.000357201 0.000256773 0)
(-0.000349021 0.00021552 0)
(-0.000342215 0.000175142 0)
(-0.000336778 0.000135481 0)
(-0.000332704 9.63753e-05 0)
(-0.00032999 5.76666e-05 0)
(-0.000328633 1.91958e-05 0)
(0.0207144 -0.0146901 0)
(0.0195447 -0.0125873 0)
(0.0183898 -0.0106062 0)
(0.0172539 -0.00874475 0)
(0.016141 -0.00700091 0)
(0.0150544 -0.00537206 0)
(0.013997 -0.00385526 0)
(0.0129711 -0.00244735 0)
(0.0119789 -0.00114491 0)
(0.011022 5.56712e-05 0)
(0.0101017 0.00115817 0)
(0.00921892 0.00216645 0)
(0.00837439 0.00308449 0)
(0.00756857 0.00391631 0)
(0.00680165 0.00466597 0)
(0.00607357 0.00533753 0)
(0.00538411 0.00593506 0)
(0.00473287 0.00646256 0)
(0.0041193 0.00692401 0)
(0.00354272 0.0073233 0)
(0.00300232 0.00766426 0)
(0.00249721 0.00795064 0)
(0.0020264 0.00818606 0)
(0.00158884 0.00837406 0)
(0.00118341 0.00851805 0)
(0.000808925 0.00862134 0)
(0.000464196 0.00868708 0)
(0.000147986 0.00871833 0)
(-0.000140955 0.008718 0)
(-0.000403887 0.00868888 0)
(-0.000642074 0.00863361 0)
(-0.000856774 0.00855471 0)
(-0.00104924 0.00845458 0)
(-0.00122069 0.00833547 0)
(-0.00137236 0.00819951 0)
(-0.00150542 0.00804871 0)
(-0.00162104 0.00788495 0)
(-0.00172035 0.00770999 0)
(-0.00180445 0.00752548 0)
(-0.00187439 0.00733295 0)
(-0.00193121 0.00713382 0)
(-0.00197589 0.00692942 0)
(-0.00200938 0.00672095 0)
(-0.00203259 0.00650955 0)
(-0.00204637 0.00629624 0)
(-0.00205156 0.00608196 0)
(-0.00204895 0.00586756 0)
(-0.00203927 0.00565382 0)
(-0.00202323 0.00544145 0)
(-0.0020015 0.00523106 0)
(-0.0019747 0.00502323 0)
(-0.00194343 0.00481844 0)
(-0.00190823 0.00461715 0)
(-0.00186962 0.00441971 0)
(-0.00182809 0.00422648 0)
(-0.00178407 0.00403773 0)
(-0.001738 0.0038537 0)
(-0.00169025 0.00367457 0)
(-0.00164118 0.00350051 0)
(-0.00159112 0.00333164 0)
(-0.00154037 0.00316805 0)
(-0.0014892 0.00300978 0)
(-0.00143787 0.00285687 0)
(-0.0013866 0.00270933 0)
(-0.00133561 0.00256714 0)
(-0.00128508 0.00243025 0)
(-0.00123517 0.00229862 0)
(-0.00118605 0.00217216 0)
(-0.00113783 0.00205079 0)
(-0.00109064 0.00193441 0)
(-0.00104459 0.0018229 0)
(-0.000999759 0.00171614 0)
(-0.000956232 0.00161399 0)
(-0.000914076 0.00151633 0)
(-0.000873347 0.001423 0)
(-0.000834093 0.00133384 0)
(-0.000796354 0.00124871 0)
(-0.000760163 0.00116744 0)
(-0.000725544 0.00108987 0)
(-0.000692516 0.00101584 0)
(-0.000661094 0.000945169 0)
(-0.000631287 0.0008777 0)
(-0.000603099 0.00081326 0)
(-0.000576533 0.000751681 0)
(-0.000551587 0.000692792 0)
(-0.000528257 0.000636425 0)
(-0.000506539 0.000582411 0)
(-0.000486425 0.000530582 0)
(-0.000467906 0.000480771 0)
(-0.000450974 0.000432812 0)
(-0.00043562 0.000386539 0)
(-0.000421834 0.000341788 0)
(-0.000409606 0.000298396 0)
(-0.000398929 0.0002562 0)
(-0.000389793 0.000215039 0)
(-0.000382192 0.000174751 0)
(-0.00037612 0.000135178 0)
(-0.00037157 9.61601e-05 0)
(-0.000368539 5.75378e-05 0)
(-0.000367024 1.91529e-05 0)
(0.022876 -0.0146536 0)
(0.0215843 -0.0125561 0)
(0.0203088 -0.0105798 0)
(0.0190544 -0.00872302 0)
(0.0178253 -0.00698352 0)
(0.0166253 -0.00535871 0)
(0.0154576 -0.00384568 0)
(0.0143247 -0.00244127 0)
(0.0132289 -0.00114207 0)
(0.0121722 5.55323e-05 0)
(0.0111558 0.00115529 0)
(0.0101809 0.00216107 0)
(0.00924829 0.00307682 0)
(0.00835838 0.00390658 0)
(0.00751142 0.00465437 0)
(0.00670737 0.00532427 0)
(0.00594596 0.00592031 0)
(0.00522676 0.0064465 0)
(0.00454916 0.0069068 0)
(0.00391241 0.0073051 0)
(0.00331562 0.00764522 0)
(0.0027578 0.00793088 0)
(0.00223787 0.00816572 0)
(0.00175464 0.00835325 0)
(0.0013069 0.00849689 0)
(0.000893339 0.00859991 0)
(0.000512636 0.00866549 0)
(0.000163429 0.00869667 0)
(-0.000155664 0.00869634 0)
(-0.000446034 0.00866729 0)
(-0.000709077 0.00861215 0)
(-0.000946181 0.00853346 0)
(-0.00115873 0.00843357 0)
(-0.00134808 0.00831476 0)
(-0.00151557 0.00817914 0)
(-0.00166251 0.00802871 0)
(-0.0017902 0.00786536 0)
(-0.00189987 0.00769083 0)
(-0.00199275 0.00750678 0)
(-0.00206999 0.00731473 0)
(-0.00213274 0.00711609 0)
(-0.00218208 0.0069122 0)
(-0.00221907 0.00670425 0)
(-0.00224469 0.00649337 0)
(-0.00225992 0.00628059 0)
(-0.00226565 0.00606684 0)
(-0.00226276 0.00585298 0)
(-0.00225207 0.00563977 0)
(-0.00223436 0.00542793 0)
(-0.00221036 0.00521806 0)
(-0.00218077 0.00501075 0)
(-0.00214623 0.00480647 0)
(-0.00210736 0.00460567 0)
(-0.00206472 0.00440873 0)
(-0.00201885 0.00421598 0)
(-0.00197025 0.0040277 0)
(-0.00191937 0.00384412 0)
(-0.00186663 0.00366544 0)
(-0.00181244 0.00349182 0)
(-0.00175716 0.00332336 0)
(-0.00170111 0.00316017 0)
(-0.0016446 0.0030023 0)
(-0.00158792 0.00284977 0)
(-0.0015313 0.0027026 0)
(-0.00147499 0.00256076 0)