/*--------------------------------*- C++ -*----------------------------------*\
| =========                 |                                                 |
| \\      /  F ield         | OpenFOAM: The Open Source CFD Toolbox           |
|  \\    /   O peration     | Version:  2406                                  |
|   \\  /    A nd           | Website:  www.openfoam.com                      |
|    \\/     M anipulation  |                                                 |
\*---------------------------------------------------------------------------*/
FoamFile
{
    version     2.0;
    format      ascii;
    arch        "LSB;label=32;scalar=64";
    class       volScalarField;
    location    "150";
    object      gradTx;
}
// * * * * * * * * * * * * * * * * * * * * * * * * * * * * * * * * * * * * * //

dimensions      [0 -1 0 1 0 0 0];

internalField   nonuniform List<scalar> 
20000
(
7.6371
7.20584
6.78015
6.36132
5.95082
5.5504
5.16063
4.78223
4.41641
4.06368
3.7244
3.39891
3.08752
2.79041
2.50766
2.23923
1.98505
1.74495
1.51874
1.30616
1.10692
0.920691
0.747111
0.585787
0.436308
0.298241
0.171144
0.0545614
-0.0519674
-0.148907
-0.236724
-0.315881
-0.386839
-0.450053
-0.50597
-0.555028
-0.597656
-0.63427
-0.665276
-0.691064
-0.712013
-0.728486
-0.740833
-0.749387
-0.75447
-0.756384
-0.75542
-0.751851
-0.745938
-0.737927
-0.728047
-0.716517
-0.703539
-0.689305
-0.673992
-0.657765
-0.640778
-0.623173
-0.605081
-0.586625
-0.567913
-0.549048
-0.530124
-0.511223
-0.492423
-0.473792
-0.455393
-0.43728
-0.419503
-0.402106
-0.385126
-0.368598
-0.35255
-0.337008
-0.321991
-0.307519
-0.293605
-0.280262
-0.267498
-0.255322
-0.243737
-0.232747
-0.222355
-0.21256
-0.203363
-0.194762
-0.186754
-0.179338
-0.172511
-0.166268
-0.160607
-0.155525
-0.151016
-0.14708
-0.143712
-0.140909
-0.13867
-0.136993
-0.135875
-0.135317
22.9096
21.6158
20.3384
19.0824
17.8513
16.6497
15.4804
14.3456
13.2482
12.1901
11.1722
10.1959
9.2618
8.37056
7.52236
6.71715
5.95465
5.23441
4.55583
3.91814
3.32048
2.76184
2.24115
1.75722
1.30881
0.89465
0.513389
0.163671
-0.15589
-0.446685
-0.710113
-0.947565
-1.16042
-1.35005
-1.51778
-1.66495
-1.79282
-1.90265
-1.99566
-2.07302
-2.13586
-2.18528
-2.22231
-2.24798
-2.26322
-2.26897
-2.26607
-2.25537
-2.23763
-2.2136
-2.18396
-2.14937
-2.11044
-2.06774
-2.02181
-1.97313
-1.92217
-1.86936
-1.8151
-1.75973
-1.7036
-1.64701
-1.59024
-1.53354
-1.47715
-1.42126
-1.36607
-1.31173
-1.25841
-1.20622
-1.15528
-1.1057
-1.05756
-1.01094
-0.965895
-0.922481
-0.880743
-0.840717
-0.802429
-0.765902
-0.73115
-0.698184
-0.667009
-0.637628
-0.610038
-0.584237
-0.560217
-0.537971
-0.51749
-0.498764
-0.481782
-0.466535
-0.453012
-0.441203
-0.4311
-0.422693
-0.415977
-0.410945
-0.407593
-0.405917
38.1765
36.0207
33.8918
31.7986
29.7474
27.7449
25.7963
23.9054
22.0768
20.3134
18.6173
16.9903
15.4338
13.9487
12.5352
11.1934
9.92279
8.72259
7.5918
6.52916
5.53322
4.60232
3.73463
2.92821
2.181
1.49084
0.855508
0.272739
-0.259774
-0.744353
-1.18333
-1.57901
-1.93372
-2.24971
-2.52922
-2.77445
-2.98754
-3.17057
-3.32556
-3.45447
-3.55918
-3.64153
-3.70325
-3.74601
-3.77142
-3.78099
-3.77617
-3.75833
-3.72877
-3.68872
-3.63934
-3.5817
-3.51683
-3.44567
-3.36913
-3.28801
-3.2031
-3.1151
-3.02466
-2.9324
-2.83886
-2.74456
-2.64996
-2.55548
-2.46151
-2.36838
-2.2764
-2.18586
-2.097
-2.01003
-1.92516
-1.84254
-1.76232
-1.68462
-1.60956
-1.53722
-1.46766
-1.40096
-1.33716
-1.27629
-1.21838
-1.16345
-1.1115
-1.06254
-1.01656
-0.973567
-0.933541
-0.896471
-0.862341
-0.831136
-0.802839
-0.777431
-0.754896
-0.735218
-0.718381
-0.704373
-0.693181
-0.684795
-0.679209
-0.676417
53.4338
50.4165
47.437
44.5071
41.6361
38.8333
36.1058
33.4594
30.9
28.4318
26.0578
23.7805
21.602
19.5233
17.545
15.6669
13.8885
12.2086
10.6259
9.13857
7.7446
6.44165
5.22719
4.09848
3.05264
2.08666
1.19742
0.38174
-0.363593
-1.04184
-1.65625
-2.21008
-2.70654
-3.14882
-3.54004
-3.88328
-4.18153
-4.4377
-4.65463
-4.83506
-4.98163
-5.09688
-5.18327
-5.24312
-5.27868
-5.29208
-5.28533
-5.26036
-5.21899
-5.16294
-5.09381
-5.01314
-4.92234
-4.82275
-4.71561
-4.60208
-4.48323
-4.36006
-4.23348
-4.10435
-3.97343
-3.84144
-3.70903
-3.5768
-3.44526
-3.31491
-3.18618
-3.05945
-2.93507
-2.81335
-2.69455
-2.57891
-2.46663
-2.35789
-2.25283
-2.15157
-2.05422
-1.96087
-1.87156
-1.78637
-1.70531
-1.62843
-1.55571
-1.48719
-1.42284
-1.36266
-1.30664
-1.25475
-1.20698
-1.1633
-1.1237
-1.08813
-1.05659
-1.02905
-1.00549
-0.985878
-0.970213
-0.958477
-0.950658
-0.946751
68.6778
64.7998
60.9704
57.2045
53.5145
49.9121
46.4065
43.0051
39.7155
36.5431
33.4918
30.5649
27.7648
25.0932
22.5505
20.1366
17.8508
15.6916
13.6574
11.7457
9.95406
8.27939
6.71846
5.26774
3.92353
2.68196
1.53903
0.490647
-0.467324
-1.33907
-2.12876
-2.84059
-3.47869
-4.04715
-4.54998
-4.99114
-5.37448
-5.70374
-5.98256
-6.21446
-6.40284
-6.55098
-6.66201
-6.73894
-6.78464
-6.80186
-6.79319
-6.7611
-6.70792
-6.63588
-6.54703
-6.44335
-6.32664
-6.19864
-6.06094
-5.91501
-5.76226
-5.60394
-5.44126
-5.27528
-5.10701
-4.93737
-4.76719
-4.59722
-4.42816
-4.26062
-4.09516
-3.93228
-3.77242
-3.61598
-3.46329
-3.31466
-3.17034
-3.03058
-2.89554
-2.7654
-2.64027
-2.52028
-2.40551
-2.296
-2.19183
-2.093
-1.99955
-1.91147
-1.82876
-1.75141
-1.67941
-1.61272
-1.55132
-1.49518
-1.44428
-1.39857
-1.35803
-1.32263
-1.29234
-1.26714
-1.24701
-1.23192
-1.22187
-1.21685
83.9049
79.1671
74.4887
69.8879
65.3798
60.9786
56.6957
52.5401
48.5212
44.6453
40.9175
37.3417
33.9209
30.6568
27.5504
24.6013
21.8086
19.1708
16.6855
14.35
12.1611
10.1151
8.20807
6.4357
4.79346
3.2766
1.88026
0.599432
-0.57094
-1.63596
-2.60075
-3.47041
-4.24998
-4.94448
-5.5588
-6.09778
-6.56611
-6.96837
-7.30901
-7.59233
-7.82248
-8.00346
-8.13911
-8.2331
-8.28893
-8.30996
-8.29937
-8.26016
-8.1952
-8.10718
-7.99864
-7.87196
-7.72938
-7.573
-7.40476
-7.22649
-7.03986
-6.84645
-6.64769
-6.44491
-6.23934
-6.03208
-5.82417
-5.61652
-5.40997
-5.20529
-5.00314
-4.80415
-4.60884
-4.41771
-4.23116
-4.04958
-3.87327
-3.70251
-3.53754
-3.37854
-3.22568
-3.07908
-2.93885
-2.80507
-2.6778
-2.55706
-2.44288
-2.33528
-2.23423
-2.13973
-2.05176
-1.97029
-1.89528
-1.8267
-1.7645
-1.70866
-1.65913
-1.61588
-1.57888
-1.54809
-1.52349
-1.50506
-1.49279
-1.48665
99.1114
93.5148
87.9886
82.554
77.2289
72.03
66.9709
62.0622
57.3149
52.7366
48.3332
44.1093
40.0685
36.2129
32.5435
29.0599
25.7611
22.6452
19.7094
16.9507
14.3651
11.9483
9.69566
7.60207
5.6622
3.87043
2.22102
0.708068
-0.674415
-1.93246
-3.0721
-4.09936
-5.02023
-5.84059
-6.56625
-7.20291
-7.75611
-8.23128
-8.63365
-8.96832
-9.24018
-9.45397
-9.6142
-9.72522
-9.79117
-9.81602
-9.8035
-9.75719
-9.68046
-9.57648
-9.44827
-9.29863
-9.13022
-8.94549
-8.74676
-8.53618
-8.31573
-8.08726
-7.85248
-7.61295
-7.37012
-7.12531
-6.87971
-6.63443
-6.39045
-6.14866
-5.90988
-5.67482
-5.44412
-5.21835
-4.998
-4.7835
-4.57524
-4.37354
-4.17866
-3.99085
-3.81028
-3.63712
-3.47148
-3.31345
-3.16311
-3.02049
-2.88562
-2.75851
-2.63915
-2.52753
-2.42361
-2.32737
-2.23877
-2.15776
-2.08429
-2.01833
-1.95982
-1.90874
-1.86503
-1.82866
-1.7996
-1.77783
-1.76333
-1.75608
114.293
107.84
101.467
95.1997
89.0589
83.0637
77.2295
71.569
66.0945
60.8149
55.7369
50.866
46.2063
41.7601
37.5286
33.5114
29.7072
26.114
22.7286
19.5472
16.5655
13.7785
11.1808
8.76657
6.52954
4.46331
2.56124
0.81653
-0.777725
-2.22848
-3.54269
-4.72731
-5.78923
-6.73526
-7.57208
-8.30626
-8.94421
-9.49216
-9.95617
-10.3421
-10.6556
-10.9021
-11.0869
-11.2149
-11.291
-11.3196
-11.3052
-11.2518
-11.1633
-11.0434
-10.8956
-10.723
-10.5288
-10.3158
-10.0866
-9.84376
-9.58954
-9.32608
-9.05533
-8.77912
-8.49909
-8.21677
-7.93355
-7.6507
-7.36934
-7.09053
-6.81517
-6.5441
-6.27806
-6.0177
-5.7636
-5.51625
-5.27608
-5.04348
-4.81875
-4.60217
-4.39394
-4.19425
-4.00324
-3.82101
-3.64764
-3.48317
-3.32764
-3.18106
-3.04342
-2.9147
-2.79487
-2.68389
-2.58171
-2.48828
-2.40357
-2.3275
-2.26003
-2.20112
-2.15071
-2.10878
-2.07527
-2.05016
-2.03344
-2.02508
129.447
122.138
114.92
107.822
100.867
94.0768
87.4691
81.0582
74.8578
68.8781
63.1269
57.6102
52.3327
47.297
42.5044
37.9546
33.646
29.5764
25.7421
22.1389
18.7619
15.6054
12.6633
9.9289
7.39527
5.05509
2.90083
0.924789
-0.880843
-2.52394
-4.01241
-5.35409
-6.55681
-7.62827
-8.57604
-9.40757
-10.1301
-10.7507
-11.2762
-11.7133
-12.0684
-12.3476
-12.5569
-12.7019
-12.788
-12.8205
-12.8041
-12.7437
-12.6434
-12.5076
-12.3402
-12.1447
-11.9248
-11.6835
-11.424
-11.1489
-10.861
-10.5626
-10.256
-9.94311
-9.62596
-9.30621
-8.98544
-8.66508
-8.34642
-8.03064
-7.71877
-7.41176
-7.11045
-6.81557
-6.52778
-6.24763
-5.97562
-5.71218
-5.45766
-5.21236
-4.97652
-4.75036
-4.53402
-4.32763
-4.13126
-3.94499
-3.76885
-3.60283
-3.44694
-3.30115
-3.16543
-3.03973
-2.92401
-2.8182
-2.72225
-2.6361
-2.55968
-2.49296
-2.43587
-2.38837
-2.35042
-2.32199
-2.30305
-2.29358
144.569
136.406
128.345
120.418
112.65
105.067
97.6872
90.5273
83.6026
76.9244
70.5013
64.3402
58.4461
52.8222
47.4697
42.3884
37.5766
33.0314
28.7492
24.7251
20.9536
17.4284
14.1426
11.0888
8.25917
5.64561
3.2397
1.03282
-0.983744
-2.81879
-4.48113
-5.97956
-7.32278
-8.5194
-9.57789
-10.5065
-11.3135
-12.0066
-12.5935
-13.0817
-13.4782
-13.7901
-14.0238
-14.1857
-14.2819
-14.3182
-14.2999
-14.2324
-14.1204
-13.9688
-13.7817
-13.5635
-13.3178
-13.0484
-12.7585
-12.4513
-12.1298
-11.7965
-11.454
-11.1047
-10.7505
-10.3934
-10.0351
-9.67733
-9.32144
-8.96877
-8.62047
-8.2776
-7.94109
-7.61176
-7.29034
-6.97747
-6.67369
-6.37947
-6.09522
-5.82126
-5.55788
-5.30529
-5.06368
-4.83317
-4.61387
-4.40584
-4.20912
-4.02371
-3.84961
-3.68679
-3.53521
-3.39483
-3.26559
-3.14742
-3.04026
-2.94404
-2.8587
-2.78419
-2.72043
-2.66738
-2.625
-2.59324
-2.57209
-2.56152
159.655
150.64
141.738
132.984
124.406
116.031
107.881
99.9741
92.3268
84.9517
77.8583
71.0543
64.5452
58.3344
52.4233
46.8117
41.4978
36.4784
31.7493
27.3053
23.1402
19.2471
15.6184
12.2459
9.12104
6.23475
3.57776
1.14059
-1.0864
-3.11294
-4.94875
-6.60354
-8.08693
-9.40842
-10.5774
-11.6029
-12.4941
-13.2595
-13.9077
-14.4468
-14.8847
-15.2291
-15.4872
-15.666
-15.7723
-15.8123
-15.7921
-15.7175
-15.5939
-15.4265
-15.2199
-14.9789
-14.7076
-14.41
-14.0899
-13.7507
-13.3955
-13.0275
-12.6493
-12.2635
-11.8723
-11.4779
-11.0823
-10.6872
-10.2942
-9.90468
-9.52004
-9.14139
-8.76976
-8.40607
-8.05111
-7.70559
-7.37011
-7.04519
-6.73127
-6.42873
-6.13786
-5.85891
-5.59209
-5.33753
-5.09535
-4.86561
-4.64835
-4.44359
-4.25133
-4.07152
-3.90412
-3.74909
-3.60636
-3.47586
-3.35752
-3.25126
-3.15702
-3.07472
-3.00431
-2.94573
-2.89892
-2.86385
-2.84049
-2.82882
174.702
164.837
155.096
145.517
136.13
126.966
118.048
109.396
101.028
92.958
85.1961
77.7509
70.6283
63.8322
57.364
51.2236
45.4088
39.9163
34.7415
29.8787
25.3211
21.0611
17.0904
13.4
9.98065
6.82234
3.91495
1.24809
-1.1888
-3.40633
-5.41516
-7.2259
-8.84909
-10.2951
-11.5742
-12.6965
-13.6716
-14.5092
-15.2184
-15.8083
-16.2875
-16.6644
-16.9468
-17.1425
-17.2588
-17.3025
-17.2805
-17.1989
-17.0636
-16.8803
-16.6543
-16.3906
-16.0937
-15.7681
-15.4178
-15.0466
-14.658
-14.2553
-13.8414
-13.4192
-12.9912
-12.5597
-12.1268
-11.6944
-11.2643
-10.8382
-10.4173
-10.0029
-9.59628
-9.19831
-8.8099
-8.43181
-8.06471
-7.70917
-7.36566
-7.0346
-6.71632
-6.41109
-6.11912
-5.84057
-5.57556
-5.32417
-5.08644
-4.86238
-4.65199
-4.45524
-4.27207
-4.10243
-3.94625
-3.80345
-3.67395
-3.55768
-3.45455
-3.3645
-3.28746
-3.22335
-3.17213
-3.13376
-3.1082
-3.09542
189.706
178.994
168.416
158.014
147.821
137.87
128.187
118.791
109.705
100.941
92.5129
84.4283
76.694
69.3142
62.2906
55.6227
49.3086
43.3444
37.7252
32.4447
27.4957
22.8698
18.5581
14.5509
10.8378
7.40825
4.25117
1.35527
-1.29089
-3.69887
-5.88022
-7.84647
-9.60907
-11.1793
-12.5683
-13.7869
-14.8457
-15.7552
-16.5254
-17.166
-17.6863
-18.0955
-18.4022
-18.6147
-18.741
-18.7885
-18.7646
-18.6759
-18.529
-18.33
-18.0846
-17.7982
-17.4759
-17.1223
-16.7419
-16.3388
-15.9169
-15.4796
-15.0302
-14.5717
-14.1069
-13.6383
-13.1682
-12.6987
-12.2317
-11.769
-11.3119
-10.862
-10.4204
-9.98827
-9.5665
-9.15595
-8.75732
-8.37124
-7.99824
-7.63875
-7.29313
-6.96169
-6.64464
-6.34217
-6.0544
-5.78142
-5.52327
-5.27997
-5.05152
-4.83786
-4.63896
-4.45475
-4.28516
-4.13009
-3.98947
-3.86322
-3.75124
-3.65345
-3.56979
-3.50018
-3.44456
-3.40289
-3.37514
-3.36126
204.663
193.106
181.695
170.472
159.476
148.74
138.293
128.157
118.354
108.9
99.8069
91.0848
82.7408
74.7792
67.2018
60.0082
53.1962
46.7618
40.6995
35.0027
29.6635
24.6729
20.0213
15.6981
11.6923
7.99233
4.58634
1.46212
-1.39268
-3.9905
-6.34384
-8.46511
-10.3667
-12.0607
-13.5592
-14.8739
-16.0162
-16.9974
-17.8283
-18.5194
-19.0808
-19.5222
-19.8531
-20.0824
-20.2186
-20.2699
-20.244
-20.1484
-19.9899
-19.7752
-19.5105
-19.2015
-18.8537
-18.4722
-18.0619
-17.627
-17.1718
-16.7
-16.2152
-15.7206
-15.2191
-14.7136
-14.2064
-13.6999
-13.1961
-12.6969
-12.2038
-11.7184
-11.242
-10.7758
-10.3208
-9.87783
-9.44777
-9.03125
-8.62884
-8.24101
-7.86814
-7.51056
-7.16852
-6.8422
-6.53174
-6.23724
-5.95874
-5.69626
-5.44979
-5.21929
-5.00471
-4.80598
-4.62301
-4.45572
-4.30402
-4.1678
-4.047
-3.9415
-3.85124
-3.77614
-3.71614
-3.67119
-3.64124
-3.62627
219.569
207.171
194.928
182.888
171.091
159.574
148.366
137.491
126.974
116.831
107.076
97.7189
88.7672
80.2256
72.0963
64.3788
57.0707
50.1676
43.6638
37.5521
31.824
26.4699
21.4795
16.8414
12.5439
8.57444
4.92037
1.56861
-1.49411
-4.28115
-6.80589
-9.08166
-11.1217
-12.9391
-14.5467
-15.9572
-17.1827
-18.2354
-19.1268
-19.8682
-20.4705
-20.9441
-21.2991
-21.545
-21.6912
-21.7462
-21.7185
-21.6159
-21.4459
-21.2155
-20.9315
-20.6
-20.2269
-19.8176
-19.3774
-18.9109
-18.4225
-17.9163
-17.3962
-16.8656
-16.3276
-15.7852
-15.2412
-14.6978
-14.1573
-13.6216
-13.0926
-12.5719
-12.0608
-11.5606
-11.0725
-10.5973
-10.1359
-9.68904
-9.25732
-8.84123
-8.44121
-8.05759
-7.69063
-7.34055
-7.00748
-6.69152
-6.39274
-6.11114
-5.84672
-5.59943
-5.36922
-5.15602
-4.95972
-4.78025
-4.61749
-4.47136
-4.34175
-4.22858
-4.13174
-4.05117
-3.9868
-3.93857
-3.90645
-3.89039
234.421
221.184
208.114
195.259
182.664
170.368
158.401
146.792
135.563
124.734
114.319
104.329
94.7716
85.6523
76.9731
68.7336
60.9311
53.5611
46.6174
40.0922
33.9766
28.2604
22.9324
17.9806
13.3924
9.15443
5.2532
1.67471
-1.59518
-4.57074
-7.26626
-9.69598
-11.874
-13.8144
-15.5307
-17.0366
-18.345
-19.4689
-20.4206
-21.2122
-21.8552
-22.3608
-22.7398
-23.0024
-23.1584
-23.2172
-23.1876
-23.078
-22.8965
-22.6506
-22.3474
-21.9934
-21.5951
-21.1582
-20.6881
-20.19
-19.6686
-19.1282
-18.5729
-18.0064
-17.432
-16.853
-16.2721
-15.692
-15.1149
-14.543
-13.9782
-13.4223
-12.8766
-12.3426
-11.8214
-11.3141
-10.8215
-10.3444
-9.8835
-9.43928
-9.0122
-8.60262
-8.21085
-7.83708
-7.48148
-7.14416
-6.82516
-6.52452
-6.24221
-5.97819
-5.73241
-5.50478
-5.29521
-5.1036
-4.92983
-4.77382
-4.63544
-4.51461
-4.41122
-4.3252
-4.25648
-4.20499
-4.17069
-4.15355
249.216
235.143
221.248
207.582
194.192
181.12
168.398
156.056
144.119
132.606
121.534
110.913
100.753
91.0579
81.8309
73.0714
64.7765
56.9413
49.5594
42.6225
36.1209
30.0439
24.3797
19.1154
14.2375
9.73217
5.58472
1.7804
-1.69586
-4.8592
-7.72484
-10.3079
-12.6234
-14.6862
-16.5109
-18.1118
-19.5028
-20.6976
-21.7094
-22.5509
-23.2345
-23.772
-24.1749
-24.4541
-24.6199
-24.6824
-24.6509
-24.5345
-24.3415
-24.0801
-23.7577
-23.3814
-22.958
-22.4935
-21.9938
-21.4642
-20.9099
-20.3354
-19.7451
-19.1428
-18.5322
-17.9166
-17.299
-16.6823
-16.0688
-15.4608
-14.8604
-14.2694
-13.6893
-13.1216
-12.5675
-12.0281
-11.5045
-10.9973
-10.5073
-10.035
-9.58096
-9.14554
-8.72903
-8.33168
-7.95364
-7.59503
-7.2559
-6.93628
-6.63616
-6.35548
-6.09419
-5.85219
-5.62939
-5.42569
-5.24096
-5.07509
-4.92799
-4.79953
-4.68962
-4.59817
-4.52511
-4.47037
-4.4339
-4.41568
263.949
249.044
234.327
219.854
205.672
191.827
178.353
165.281
152.638
140.446
128.719
117.47
106.709
96.441
86.6686
77.3912
68.6059
60.3075
52.4892
45.1422
38.2563
31.82
25.8209
20.2454
15.0792
10.3075
5.91487
1.88564
-1.79612
-5.14647
-8.18151
-10.9173
-13.3697
-15.5544
-17.487
-19.1825
-20.6557
-21.9212
-22.9928
-23.884
-24.608
-25.1774
-25.6041
-25.8997
-26.0754
-26.1416
-26.1082
-25.9849
-25.7805
-25.5036
-25.1622
-24.7637
-24.3152
-23.8232
-23.294
-22.7331
-22.1461
-21.5376
-20.9123
-20.2745
-19.6278
-18.9758
-18.3217
-17.6685
-17.0187
-16.3748
-15.7389
-15.1129
-14.4985
-13.8973
-13.3104
-12.7392
-12.1846
-11.6474
-11.1284
-10.6282
-10.1474
-9.6862
-9.24507
-8.82422
-8.42384
-8.04402
-7.68485
-7.34633
-7.02847
-6.7312
-6.45446
-6.19816
-5.96219
-5.74644
-5.55079
-5.37512
-5.21931
-5.08326
-4.96685
-4.87
-4.79262
-4.73464
-4.69602
-4.67672
278.617
262.884
247.349
232.071
217.102
202.487
188.265
174.466
161.121
148.25
135.872
123.998
112.639
101.8
91.4848
81.6918
72.4183
63.6588
55.406
47.6507
40.3822
33.5883
27.2558
21.3705
15.9172
10.8803
6.24356
1.99042
-1.89593
-5.43247
-8.63616
-11.524
-14.1126
-16.4188
-18.4587
-20.2484
-21.8036
-23.1393
-24.2705
-25.2113
-25.9755
-26.5765
-27.0269
-27.339
-27.5244
-27.5943
-27.5591
-27.4289
-27.2132
-26.9209
-26.5605
-26.1398
-25.6664
-25.1471
-24.5884
-23.9964
-23.3767
-22.7345
-22.0745
-21.4011
-20.7185
-20.0303
-19.3399
-18.6503
-17.9645
-17.2848
-16.6135
-15.9528
-15.3042
-14.6695
-14.0501
-13.4471
-12.8617
-12.2946
-11.7468
-11.2188
-10.7113
-10.2245
-9.75882
-9.31459
-8.89195
-8.49103
-8.1119
-7.75457
-7.41904
-7.10525
-6.81314
-6.54259
-6.29351
-6.06577
-5.85925
-5.67382
-5.50936
-5.36574
-5.24287
-5.14063
-5.05895
-4.99775
-4.95698
-4.93661
293.216
276.659
260.31
244.231
228.478
213.097
198.129
183.608
169.563
156.018
142.991
130.495
118.541
107.134
96.2785
85.9724
76.2129
66.9945
58.3092
50.1475
42.4981
35.3483
28.684
22.4902
16.7512
11.4504
6.5707
2.09471
-1.99528
-5.71712
-9.08869
-12.1278
-14.8521
-17.2791
-19.4259
-21.3094
-22.9461
-24.3518
-25.5422
-26.5323
-27.3366
-27.969
-28.4431
-28.7715
-28.9667
-29.0401
-29.0031
-28.8661
-28.6391
-28.3315
-27.9522
-27.5095
-27.0112
-26.4647
-25.8768
-25.2538
-24.6016
-23.9257
-23.2311
-22.5225
-21.8041
-21.0798
-20.3532
-19.6276
-18.9058
-18.1905
-17.4841
-16.7886
-16.1061
-15.4382
-14.7863
-14.1517
-13.5356
-12.9389
-12.3623
-11.8067
-11.2725
-10.7602
-10.2702
-9.80266
-9.35788
-8.93595
-8.53695
-8.1609
-7.80779
-7.47756
-7.17013
-6.88541
-6.62328
-6.38361
-6.16626
-5.97112
-5.79804
-5.6469
-5.51758
-5.40999
-5.32403
-5.25962
-5.21672
-5.19528
307.742
290.365
273.206
256.331
239.797
223.654
207.945
192.704
177.964
163.748
150.075
136.96
124.414
112.442
101.048
90.2317
79.9887
70.3135
61.198
52.632
44.6036
37.0995
30.105
23.6044
17.5811
12.0177
6.89623
2.19849
-2.09414
-6.00037
-9.53897
-12.7286
-15.5879
-18.1352
-20.3883
-22.3652
-24.0829
-25.5583
-26.8076
-27.8468
-28.6909
-29.3547
-29.8522
-30.1969
-30.4017
-30.4789
-30.44
-30.2962
-30.058
-29.7351
-29.337
-28.8724
-28.3494
-27.7759
-27.1588
-26.5049
-25.8204
-25.1111
-24.3821
-23.6383
-22.8843
-22.1242
-21.3616
-20.6
-19.8424
-19.0917
-18.3503
-17.6204
-16.9041
-16.203
-15.5188
-14.8528
-14.2062
-13.5799
-12.9748
-12.3916
-11.831
-11.2933
-10.779
-10.2883
-9.82149
-9.37866
-8.95989
-8.56521
-8.19461
-7.84802
-7.52536
-7.22653
-6.95141
-6.69987
-6.47176
-6.26694
-6.08529
-5.92666
-5.79094
-5.67802
-5.5878
-5.5202
-5.47517
-5.45267
322.193
304
286.035
268.368
251.057
234.156
217.71
201.753
186.321
171.437
157.122
143.392
130.256
117.722
105.793
94.4687
83.7448
73.6153
64.0717
55.1034
46.6981
38.8416
31.5187
24.7128
18.4067
12.582
7.22005
2.30172
-2.19248
-6.28213
-9.9869
-13.3263
-16.3199
-18.9867
-21.3457
-23.4154
-25.2137
-26.7584
-28.0664
-29.1544
-30.0382
-30.7331
-31.254
-31.6149
-31.8293
-31.9101
-31.8694
-31.7188
-31.4694
-31.1314
-30.7146
-30.2282
-29.6807
-29.0802
-28.4341
-27.7495
-27.0329
-26.2902
-25.527
-24.7483
-23.9589
-23.1631
-22.3647
-21.5673
-20.7742
-19.9882
-19.2119
-18.4478
-17.6978
-16.9639
-16.2476
-15.5503
-14.8733
-14.2176
-13.5841
-12.9735
-12.3865
-11.8236
-11.2851
-10.7714
-10.2827
-9.81906
-9.38062
-8.96741
-8.5794
-8.21654
-7.87873
-7.56587
-7.27783
-7.01448
-6.77565
-6.56122
-6.37104
-6.20496
-6.06287
-5.94464
-5.85018
-5.77942
-5.73227
-5.70871
336.564
317.56
298.794
280.338
262.255
244.601
227.42
210.752
194.631
179.084
164.131
149.788
136.066
122.973
110.512
98.6824
87.4802
76.8988
66.9296
57.5613
48.781
40.5741
32.9245
25.8151
19.2277
13.1432
7.5421
2.40438
-2.29027
-6.56235
-10.4324
-13.9208
-17.0478
-19.8336
-22.2978
-24.4598
-26.3384
-27.952
-29.3183
-30.4548
-31.378
-32.104
-32.6481
-33.0251
-33.2491
-33.3334
-33.2909
-33.1336
-32.8731
-32.52
-32.0846
-31.5765
-31.0046
-30.3773
-29.7024
-28.9873
-28.2387
-27.4629
-26.6656
-25.8522
-25.0276
-24.1962
-23.3622
-22.5293
-21.7008
-20.8797
-20.0689
-19.2707
-18.4872
-17.7206
-16.9723
-16.2439
-15.5367
-14.8517
-14.19
-13.5522
-12.939
-12.351
-11.7885
-11.2519
-10.7413
-10.257
-9.79904
-9.3674
-8.96208
-8.58303
-8.23016
-7.90335
-7.60246
-7.32735
-7.07788
-6.85388
-6.65521
-6.48173
-6.3333
-6.2098
-6.11113
-6.0372
-5.98796
-5.96335
350.853
331.041
311.478
292.24
273.389
254.985
237.075
219.699
202.894
186.687
171.099
156.146
141.842
128.194
115.204
102.872
91.194
80.1634
69.7709
60.0049
50.8519
42.2966
34.3223
26.9111
20.0439
13.7012
7.86228
2.50645
-2.38751
-6.84094
-10.8752
-14.5117
-17.7716
-20.6756
-23.2445
-25.4982
-27.4565
-29.1386
-30.563
-31.7477
-32.7101
-33.4669
-34.0341
-34.4271
-34.6606
-34.7485
-34.7042
-34.5403
-34.2686
-33.9006
-33.4467
-32.917
-32.3208
-31.6669
-30.9634
-30.2179
-29.4375
-28.6287
-27.7976
-26.9497
-26.0901
-25.2234
-24.354
-23.4857
-22.6221
-21.7661
-20.9209
-20.0888
-19.2721
-18.4729
-17.6928
-16.9335
-16.1963
-15.4822
-14.7924
-14.1275
-13.4883
-12.8753
-12.289
-11.7296
-11.1973
-10.6925
-10.215
-9.76508
-9.34255
-8.94741
-8.57956
-8.23887
-7.92521
-7.63842
-7.37836
-7.14485
-6.93775
-6.7569
-6.60217
-6.47343
-6.37057
-6.2935
-6.24217
-6.21651
365.054
344.441
324.086
304.069
284.455
265.306
246.671
228.592
211.107
194.243
178.024
162.467
147.584
133.383
119.867
107.036
94.8853
83.4083
72.5951
62.4338
52.9103
44.0086
35.7116
28.0003
20.8553
14.2557
8.18052
2.6079
-2.48415
-7.11785
-11.3155
-15.0991
-18.4909
-21.5125
-24.1853
-26.5303
-28.5679
-30.3181
-31.8001
-33.0328
-34.0341
-34.8215
-35.4117
-35.8206
-36.0636
-36.155
-36.1089
-35.9384
-35.6557
-35.2728
-34.8005
-34.2494
-33.6291
-32.9487
-32.2167
-31.441
-30.6291
-29.7876
-28.9228
-28.0406
-27.1461
-26.2444
-25.3398
-24.4364
-23.5377
-22.6472
-21.7677
-20.9019
-20.0522
-19.2206
-18.409
-17.6189
-16.8519
-16.1089
-15.3911
-14.6994
-14.0343
-13.3965
-12.7864
-12.2043
-11.6506
-11.1253
-10.6285
-10.1603
-9.72072
-9.30958
-8.92684
-8.57236
-8.246
-7.94761
-7.67702
-7.43406
-7.21857
-7.0304
-6.86941
-6.73545
-6.62843
-6.54825
-6.49483
-6.46814
379.166
357.755
336.614
315.823
295.451
275.562
256.207
237.429
219.267
201.752
184.906
168.747
153.289
138.539
124.501
111.173
98.5532
86.6325
75.4013
64.8472
54.9555
45.7098
37.092
29.0827
21.6614
14.8068
8.49674
2.70871
-2.58018
-7.393
-11.7529
-15.6828
-19.2057
-22.3441
-25.1203
-27.5559
-29.6722
-31.49
-33.0294
-34.3097
-35.3497
-36.1676
-36.7806
-37.2053
-37.4576
-37.5527
-37.5048
-37.3276
-37.0341
-36.6363
-36.1458
-35.5733
-34.929
-34.2223
-33.4621
-32.6564
-31.8131
-30.939
-30.0408
-29.1245
-28.1955
-27.2589
-26.3194
-25.381
-24.4476
-23.5226
-22.6091
-21.7099
-20.8273
-19.9636
-19.1206
-18.3
-17.5033
-16.7316
-15.9861
-15.2676
-14.5768
-13.9143
-13.2807
-12.6761
-12.1009
-11.5553
-11.0394
-10.5531
-10.0965
-9.66945
-9.27191
-8.90373
-8.56476
-8.25483
-7.97378
-7.72143
-7.49762
-7.30217
-7.13495
-6.99582
-6.88466
-6.80138
-6.7459
-6.71817
393.184
370.982
349.059
327.499
306.374
285.75
265.679
246.207
227.374
209.211
191.742
174.986
158.956
143.661
129.103
115.284
102.197
89.8354
78.189
67.2447
56.9873
47.3998
38.4633
30.1579
22.4623
15.3542
8.81087
2.80885
-2.67558
-7.66633
-12.1874
-16.2626
-19.9158
-23.1702
-26.049
-28.5746
-30.7692
-32.6542
-34.2505
-35.5781
-36.6567
-37.5047
-38.1404
-38.5808
-38.8425
-38.941
-38.8914
-38.7076
-38.4032
-37.9908
-37.4821
-36.8885
-36.2204
-35.4875
-34.6992
-33.8638
-32.9892
-32.0829
-31.1515
-30.2012
-29.2379
-28.2667
-27.2924
-26.3193
-25.3515
-24.3923
-23.445
-22.5125
-21.5973
-20.7016
-19.8275
-18.9766
-18.1504
-17.3502
-16.5771
-15.832
-15.1157
-14.4288
-13.7717
-13.1448
-12.5483
-11.9825
-11.4475
-10.9433
-10.4698
-10.0269
-9.6147
-9.23291
-8.88141
-8.56002
-8.26858
-8.0069
-7.77481
-7.57214
-7.39874
-7.25446
-7.13919
-7.05283
-6.9953
-6.96655
407.105
384.117
361.418
339.094
317.222
295.867
275.086
254.924
235.424
216.618
198.531
181.182
164.584
148.747
133.674
119.365
105.815
93.016
80.9573
69.6255
59.005
49.078
39.8252
31.2257
23.2576
15.8978
9.12282
2.90829
-2.77031
-7.93777
-12.6189
-16.8384
-20.6209
-23.9906
-26.9713
-29.5863
-31.8586
-33.8104
-35.4632
-36.8378
-37.9545
-38.8326
-39.4908
-39.9468
-40.2177
-40.3197
-40.2683
-40.0781
-39.7629
-39.3358
-38.8092
-38.1946
-37.5028
-36.744
-35.9277
-35.0627
-34.1572
-33.2188
-32.2544
-31.2705
-30.2731
-29.2675
-28.2587
-27.2512
-26.249
-25.2559
-24.2751
-23.3096
-22.362
-21.4346
-20.5295
-19.6485
-18.793
-17.9645
-17.164
-16.3926
-15.6509
-14.9396
-14.2593
-13.6102
-12.9926
-12.4068
-11.8528
-11.3307
-10.8404
-10.382
-9.95512
-9.55981
-9.19586
-8.8631
-8.56133
-8.29039
-8.05008
-7.84024
-7.6607
-7.51131
-7.39196
-7.30255
-7.24298
-7.21321
420.925
397.157
373.687
350.606
327.991
305.911
284.424
263.578
243.416
223.972
205.271
187.332
170.171
153.797
138.213
123.418
109.407
96.1738
83.7057
71.9892
61.0081
50.7441
41.1772
32.2858
24.0471
16.4375
9.43252
3.00702
-2.86436
-8.20724
-13.0473
-17.4101
-21.3209
-24.805
-27.8869
-30.5907
-32.9402
-34.9582
-36.6671
-38.0884
-39.243
-40.1509
-40.8314
-41.3029
-41.583
-41.6885
-41.6354
-41.4387
-41.1128
-40.6712
-40.1267
-39.4912
-38.7759
-37.9914
-37.1474
-36.2531
-35.3168
-34.3465
-33.3494
-32.3321
-31.3008
-30.2611
-29.2181
-28.1763
-27.1402
-26.1133
-25.0992
-24.1009
-23.1211
-22.1623
-21.2264
-20.3155
-19.431
-18.5744
-17.7467
-16.9491
-16.1822
-15.4468
-14.7433
-14.0722
-13.4337
-12.828
-12.2552
-11.7154
-11.2085
-10.7344
-10.2931
-9.88435
-9.50805
-9.16398
-8.85198
-8.57184
-8.32337
-8.1064
-7.92077
-7.76631
-7.64291
-7.55046
-7.48887
-7.45808
434.642
410.099
385.865
362.031
338.679
315.88
293.693
272.167
251.349
231.271
211.96
193.437
175.717
158.809
142.716
127.439
112.973
99.3078
86.4334
74.3351
62.9962
52.3977
42.519
33.3378
24.8307
16.9732
9.7399
3.10501
-2.95771
-8.4747
-13.4725
-17.9774
-22.0157
-25.6133
-28.7956
-31.5876
-34.0136
-36.0974
-37.862
-39.3296
-40.5218
-41.4593
-42.162
-42.6489
-42.9381
-43.047
-42.9922
-42.7891
-42.4526
-41.9966
-41.4343
-40.7781
-40.0395
-39.2294
-38.3579
-37.4344
-36.4677
-35.4658
-34.4362
-33.3857
-32.3208
-31.2472
-30.1702
-29.0945
-28.0246
-26.9643
-25.9171
-24.8863
-23.8746
-22.8845
-21.9182
-20.9775
-20.0642
-19.1797
-18.3251
-17.5014
-16.7096
-15.9502
-15.2238
-14.5308
-13.8715
-13.246
-12.6546
-12.0971
-11.5737
-11.0842
-10.6285
-10.2065
-9.81788
-9.46261
-9.14044
-8.85117
-8.59461
-8.37057
-8.17888
-8.01939
-7.89197
-7.7965
-7.73291
-7.70112
448.252
422.94
397.947
373.367
349.284
325.77
302.889
280.69
259.219
238.512
218.597
199.494
181.219
163.781
147.185
131.43
116.51
102.417
89.1398
76.6627
64.9687
54.0384
43.8503
34.3817
25.6082
17.5046
10.0449
3.20223
-3.05032
-8.74006
-13.8943
-18.5403
-22.7051
-26.4153
-29.6973
-32.5767
-35.0787
-37.2277
-39.0475
-40.5611
-41.7906
-42.7575
-43.4822
-43.9843
-44.2826
-44.3949
-44.3383
-44.1289
-43.7818
-43.3116
-42.7317
-42.0549
-41.2932
-40.4578
-39.559
-38.6066
-37.6096
-36.5763
-35.5144
-34.4311
-33.3329
-32.2256
-31.1149
-30.0055
-28.9021
-27.8086
-26.7286
-25.6655
-24.6221
-23.601
-22.6045
-21.6344
-20.6925
-19.7802
-18.8988
-18.0494
-17.2328
-16.4496
-15.7005
-14.9858
-14.3058
-13.6608
-13.0508
-12.4759
-11.9361
-11.4313
-10.9613
-10.526
-10.1253
-9.75891
-9.42664
-9.12832
-8.86372
-8.63267
-8.43498
-8.2705
-8.13909
-8.04063
-7.97504
-7.94226
461.751
435.677
409.931
384.611
359.802
335.581
312.01
289.142
267.025
245.695
225.18
205.502
186.676
168.713
151.618
135.388
120.019
105.502
91.8242
78.9713
66.9252
55.6657
45.1709
35.4171
26.3794
18.0318
10.3474
3.29866
-3.14218
-9.00326
-14.3127
-19.0986
-23.3888
-27.2108
-30.5916
-33.5577
-36.135
-38.3488
-40.2234
-41.7826
-43.0491
-44.0451
-44.7916
-45.3088
-45.6161
-45.7319
-45.6735
-45.4578
-45.1003
-44.6159
-44.0185
-43.3214
-42.5368
-41.6761
-40.7503
-39.7692
-38.7421
-37.6777
-36.5839
-35.468
-34.3367
-33.1961
-32.0519
-30.9091
-29.7724
-28.646
-27.5336
-26.4384
-25.3636
-24.3118
-23.2852
-22.2859
-21.3156
-20.3759
-19.468
-18.593
-17.7517
-16.945
-16.1733
-15.437
-14.7366
-14.0722
-13.4438
-12.8516
-12.2956
-11.7755
-11.2914
-10.843
-10.4302
-10.0528
-9.71052
-9.40321
-9.13065
-8.89264
-8.689
-8.51956
-8.38419
-8.28277
-8.2152
-8.18144
475.136
448.306
421.814
395.76
370.232
345.308
321.055
297.524
274.765
252.817
231.707
211.458
192.087
173.604
156.013
139.312
123.498
108.56
94.4859
81.2605
68.8651
57.2793
46.4802
36.4437
27.1441
18.5545
10.6473
3.39428
-3.23327
-9.26424
-14.7276
-19.6523
-24.0668
-27.9996
-31.4784
-34.5305
-37.1825
-39.4604
-41.3893
-42.9937
-44.297
-45.3219
-46.09
-46.6222
-46.9384
-47.0575
-46.9975
-46.7755
-46.4076
-45.9092
-45.2945
-44.5772
-43.7698
-42.8842
-41.9315
-40.922
-39.8652
-38.7699
-37.6444
-36.4961
-35.332
-34.1584
-32.981
-31.8051
-30.6355
-29.4764
-28.3317
-27.2048
-26.0989
-25.0165
-23.9601
-22.9319
-21.9335
-20.9665
-20.0323
-19.1319
-18.2663
-17.4362
-16.6421
-15.8845
-15.1638
-14.4801
-13.8335
-13.2242
-12.652
-12.1169
-11.6187
-11.1573
-10.7326
-10.3442
-9.99201
-9.67579
-9.39532
-9.15041
-8.94087
-8.76652
-8.62723
-8.52287
-8.45334
-8.4186
488.403
460.824
433.592
406.811
380.57
354.951
330.02
305.832
282.438
259.877
238.177
217.363
197.451
178.452
160.369
143.202
126.946
111.591
97.1243
83.5296
70.7881
58.8787
47.7782
37.4614
27.902
19.0726
10.9446
3.48906
-3.32356
-9.52294
-15.1389
-20.201
-24.7389
-28.7814
-32.3574
-35.4947
-38.2208
-40.5623
-42.5451
-44.1943
-45.534
-46.5874
-47.377
-47.9241
-48.2491
-48.3715
-48.3099
-48.0816
-47.7035
-47.1911
-46.5593
-45.822
-44.992
-44.0817
-43.1024
-42.0647
-40.9784
-39.8525
-38.6956
-37.5152
-36.3186