/*--------------------------------*- C++ -*----------------------------------*\
| =========                 |                                                 |
| \\      /  F ield         | OpenFOAM: The Open Source CFD Toolbox           |
|  \\    /   O peration     | Version:  2406                                  |
|   \\  /    A nd           | Website:  www.openfoam.com                      |
|    \\/     M anipulation  |                                                 |
\*---------------------------------------------------------------------------*/
FoamFile
{
    version     2.0;
    format      ascii;
    arch        "LSB;label=32;scalar=64";
    class       volVectorField;
    location    "60";
    object      flux;
}
// * * * * * * * * * * * * * * * * * * * * * * * * * * * * * * * * * * * * * //

dimensions      [0 1 -1 1 0 0 0];

internalField   nonuniform List<vector> 
20000
(
(-0.00105262 0.0365823 0)
(-0.00101679 0.0345126 0)
(-0.000979608 0.0325158 0)
(-0.000941583 0.0305946 0)
(-0.000903509 0.0287494 0)
(-0.000865231 0.0269807 0)
(-0.00082679 0.0252888 0)
(-0.000788588 0.0236737 0)
(-0.000750828 0.0221347 0)
(-0.000713636 0.0206706 0)
(-0.000677133 0.0192803 0)
(-0.000641434 0.0179622 0)
(-0.00060664 0.0167147 0)
(-0.000572834 0.0155358 0)
(-0.000540085 0.0144235 0)
(-0.000508446 0.0133756 0)
(-0.000477956 0.0123899 0)
(-0.000448648 0.0114639 0)
(-0.00042054 0.0105954 0)
(-0.000393644 0.00978184 0)
(-0.000367964 0.00902089 0)
(-0.000343495 0.00831008 0)
(-0.000320226 0.00764699 0)
(-0.000298142 0.00702925 0)
(-0.000277222 0.0064545 0)
(-0.000257439 0.00592043 0)
(-0.000238766 0.0054248 0)
(-0.000221169 0.00496542 0)
(-0.000204616 0.00454018 0)
(-0.000189069 0.00414701 0)
(-0.00017449 0.00378395 0)
(-0.000160842 0.00344909 0)
(-0.000148084 0.00314062 0)
(-0.000136176 0.00285679 0)
(-0.000125078 0.00259595 0)
(-0.00011475 0.00235651 0)
(-0.000105153 0.00213697 0)
(-9.62466e-05 0.00193592 0)
(-8.7994e-05 0.00175201 0)
(-8.03572e-05 0.00158397 0)
(-7.33e-05 0.0014306 0)
(-6.67872e-05 0.00129078 0)
(-6.07849e-05 0.00116347 0)
(-5.52602e-05 0.00104766 0)
(-5.01819e-05 0.000942438 0)
(-4.552e-05 0.000846943 0)
(-4.12457e-05 0.000760369 0)
(-3.73319e-05 0.000681969 0)
(-3.37526e-05 0.00061105 0)
(-3.04834e-05 0.000546966 0)
(-2.75011e-05 0.000489123 0)
(-2.47838e-05 0.000436968 0)
(-2.23111e-05 0.000389993 0)
(-2.00636e-05 0.000347729 0)
(-1.80234e-05 0.000309743 0)
(-1.61735e-05 0.000275639 0)
(-1.44981e-05 0.000245053 0)
(-1.29826e-05 0.00021765 0)
(-1.16133e-05 0.000193126 0)
(-1.03776e-05 0.0001712 0)
(-9.26377e-06 0.000151617 0)
(-8.2609e-06 0.000134147 0)
(-7.35899e-06 0.000118576 0)
(-6.54881e-06 0.000104712 0)
(-5.82185e-06 9.23818e-05 0)
(-5.17031e-06 8.14261e-05 0)
(-4.58702e-06 7.17017e-05 0)
(-4.06542e-06 6.3079e-05 0)
(-3.5995e-06 5.54409e-05 0)
(-3.18378e-06 4.86818e-05 0)
(-2.81327e-06 4.27065e-05 0)
(-2.48342e-06 3.74293e-05 0)
(-2.19009e-06 3.27733e-05 0)
(-1.92953e-06 2.86694e-05 0)
(-1.69834e-06 2.50556e-05 0)
(-1.49343e-06 2.18764e-05 0)
(-1.31202e-06 1.90822e-05 0)
(-1.1516e-06 1.66286e-05 0)
(-1.0099e-06 1.44761e-05 0)
(-8.84899e-07 1.25892e-05 0)
(-7.74757e-07 1.09366e-05 0)
(-6.77834e-07 9.49035e-06 0)
(-5.92661e-07 8.22545e-06 0)
(-5.17925e-07 7.11983e-06 0)
(-4.52455e-07 6.15385e-06 0)
(-3.95206e-07 5.3101e-06 0)
(-3.45254e-07 4.57311e-06 0)
(-3.01776e-07 3.92915e-06 0)
(-2.64048e-07 3.36606e-06 0)
(-2.31432e-07 2.87301e-06 0)
(-2.0337e-07 2.44038e-06 0)
(-1.79373e-07 2.05958e-06 0)
(-1.5902e-07 1.72292e-06 0)
(-1.41951e-07 1.42353e-06 0)
(-1.27858e-07 1.15515e-06 0)
(-1.16487e-07 9.1212e-07 0)
(-1.07631e-07 6.89225e-07 0)
(-1.01128e-07 4.81618e-07 0)
(-9.68582e-08 2.84732e-07 0)
(-9.47353e-08 9.4201e-08 0)
(-0.00315747 0.0365729 0)
(-0.00304967 0.0345039 0)
(-0.00293843 0.0325081 0)
(-0.00282481 0.0305871 0)
(-0.00271039 0.0287422 0)
(-0.0025954 0.026974 0)
(-0.00248013 0.0252826 0)
(-0.00236557 0.0236679 0)
(-0.0022523 0.0221292 0)
(-0.00214073 0.0206655 0)
(-0.00203123 0.0192756 0)
(-0.00192414 0.0179578 0)
(-0.00181977 0.0167106 0)
(-0.00171836 0.015532 0)
(-0.00162012 0.01442 0)
(-0.00152521 0.0133723 0)
(-0.00143375 0.0123868 0)
(-0.00134583 0.0114611 0)
(-0.00126152 0.0105928 0)
(-0.00118084 0.00977945 0)
(-0.0011038 0.00901868 0)
(-0.0010304 0.00830804 0)
(-0.000960602 0.00764512 0)
(-0.000894356 0.00702753 0)
(-0.000831599 0.00645292 0)
(-0.000772256 0.00591898 0)
(-0.000716239 0.00542348 0)
(-0.000663455 0.00496421 0)
(-0.000613798 0.00453907 0)
(-0.000567161 0.004146 0)
(-0.00052343 0.00378303 0)
(-0.000482488 0.00344825 0)
(-0.000444216 0.00313985 0)
(-0.000408495 0.00285609 0)
(-0.000375204 0.00259531 0)
(-0.000344223 0.00235593 0)
(-0.000315433 0.00213645 0)
(-0.000288717 0.00193545 0)
(-0.000263961 0.00175158 0)
(-0.000241053 0.00158358 0)
(-0.000219883 0.00143025 0)
(-0.000200346 0.00129047 0)
(-0.000182341 0.00116318 0)
(-0.000165768 0.0010474 0)
(-0.000150534 0.00094221 0)
(-0.000136549 0.000846738 0)
(-0.000123728 0.000760185 0)
(-0.000111987 0.000681804 0)
(-0.00010125 0.000610902 0)
(-9.14433e-05 0.000546834 0)
(-8.2497e-05 0.000489005 0)
(-7.43459e-05 0.000436863 0)
(-6.69283e-05 0.000389899 0)
(-6.01864e-05 0.000347645 0)
(-5.40661e-05 0.000309669 0)
(-4.85167e-05 0.000275573 0)
(-4.3491e-05 0.000244994 0)
(-3.89448e-05 0.000217598 0)
(-3.48374e-05 0.000193079 0)
(-3.11306e-05 0.000171159 0)
(-2.77893e-05 0.000151581 0)
(-2.47809e-05 0.000134114 0)
(-2.20754e-05 0.000118547 0)
(-1.9645e-05 0.000104687 0)
(-1.74643e-05 9.23597e-05 0)
(-1.55098e-05 8.14066e-05 0)
(-1.37601e-05 7.16846e-05 0)
(-1.21954e-05 6.3064e-05 0)
(-1.07977e-05 5.54277e-05 0)
(-9.55066e-06 4.86702e-05 0)
(-8.43922e-06 4.26963e-05 0)
(-7.44974e-06 3.74204e-05 0)
(-6.56982e-06 3.27655e-05 0)
(-5.78819e-06 2.86626e-05 0)
(-5.09465e-06 2.50496e-05 0)
(-4.47996e-06 2.18712e-05 0)
(-3.93577e-06 1.90777e-05 0)
(-3.45455e-06 1.66247e-05 0)
(-3.0295e-06 1.44726e-05 0)
(-2.65451e-06 1.25862e-05 0)
(-2.32411e-06 1.09341e-05 0)
(-2.03336e-06 9.48811e-06 0)
(-1.77786e-06 8.22351e-06 0)
(-1.55367e-06 7.11815e-06 0)
(-1.35727e-06 6.15241e-06 0)
(-1.18554e-06 5.30886e-06 0)
(-1.03569e-06 4.57204e-06 0)
(-9.05267e-07 3.92824e-06 0)
(-7.92092e-07 3.36528e-06 0)
(-6.94251e-07 2.87235e-06 0)
(-6.10068e-07 2.43982e-06 0)
(-5.38082e-07 2.0591e-06 0)
(-4.7703e-07 1.72253e-06 0)
(-4.25825e-07 1.4232e-06 0)
(-3.83549e-07 1.15489e-06 0)
(-3.49437e-07 9.11915e-07 0)
(-3.22871e-07 6.89074e-07 0)
(-3.03365e-07 4.81516e-07 0)
(-2.90559e-07 2.84674e-07 0)
(-2.84198e-07 9.41844e-08 0)
(-0.00526146 0.0365549 0)
(-0.00508159 0.0344869 0)
(-0.00489644 0.0324921 0)
(-0.00470745 0.030572 0)
(-0.00451665 0.028728 0)
(-0.00432487 0.0269606 0)
(-0.00413283 0.0252701 0)
(-0.00394197 0.0236562 0)
(-0.00375323 0.0221183 0)
(-0.00356731 0.0206553 0)
(-0.00338483 0.019266 0)
(-0.00320638 0.0179489 0)
(-0.00303245 0.0167023 0)
(-0.00286347 0.0155243 0)
(-0.00269976 0.0144128 0)
(-0.00254161 0.0133657 0)
(-0.0023892 0.0123807 0)
(-0.00224269 0.0114554 0)
(-0.00210218 0.0105875 0)
(-0.00196774 0.00977461 0)
(-0.00183937 0.00901422 0)
(-0.00171705 0.00830393 0)
(-0.00160074 0.00764134 0)
(-0.00149035 0.00702405 0)
(-0.00138577 0.00644972 0)
(-0.00128688 0.00591605 0)
(-0.00119354 0.00542079 0)
(-0.00110558 0.00496175 0)
(-0.00102283 0.00453682 0)
(-0.000945113 0.00414394 0)
(-0.00087224 0.00378115 0)
(-0.000804014 0.00344654 0)
(-0.000740239 0.0031383 0)
(-0.000680714 0.00285468 0)
(-0.000625237 0.00259403 0)
(-0.000573611 0.00235477 0)
(-0.000525635 0.00213539 0)
(-0.000481117 0.00193449 0)
(-0.000439863 0.00175072 0)
(-0.000401689 0.0015828 0)
(-0.000366412 0.00142954 0)
(-0.000333856 0.00128983 0)
(-0.000303851 0.00116261 0)
(-0.000276235 0.00104688 0)
(-0.000250849 0.000941742 0)
(-0.000227545 0.000846317 0)
(-0.000206179 0.000759807 0)
(-0.000186615 0.000681466 0)
(-0.000168723 0.000610599 0)
(-0.00015238 0.000546563 0)
(-0.000137472 0.000488762 0)
(-0.000123889 0.000436646 0)
(-0.000111529 0.000389706 0)
(-0.000100294 0.000347472 0)
(-9.00955e-05 0.000309515 0)
(-8.0848e-05 0.000275436 0)
(-7.24731e-05 0.000244872 0)
(-6.48974e-05 0.00021749 0)
(-5.80528e-05 0.000192983 0)
(-5.18758e-05 0.000171073 0)
(-4.63079e-05 0.000151506 0)
(-4.12947e-05 0.000134048 0)
(-3.67862e-05 0.000118488 0)
(-3.27363e-05 0.000104635 0)
(-2.91024e-05 9.23139e-05 0)
(-2.58455e-05 8.13662e-05 0)
(-2.29297e-05 7.1649e-05 0)
(-2.03223e-05 6.30326e-05 0)
(-1.79933e-05 5.54002e-05 0)
(-1.59152e-05 4.8646e-05 0)
(-1.40631e-05 4.26751e-05 0)
(-1.24142e-05 3.74018e-05 0)
(-1.09479e-05 3.27493e-05 0)
(-9.64541e-06 2.86484e-05 0)
(-8.4897e-06 2.50372e-05 0)
(-7.46539e-06 2.18604e-05 0)
(-6.55855e-06 1.90682e-05 0)
(-5.75664e-06 1.66164e-05 0)
(-5.04834e-06 1.44655e-05 0)
(-4.42347e-06 1.258e-05 0)
(-3.87289e-06 1.09286e-05 0)
(-3.38838e-06 9.48341e-06 0)
(-2.96262e-06 8.21944e-06 0)
(-2.58903e-06 7.11463e-06 0)
(-2.26175e-06 6.14936e-06 0)
(-1.97558e-06 5.30623e-06 0)
(-1.72587e-06 4.56978e-06 0)
(-1.50853e-06 3.9263e-06 0)
(-1.31994e-06 3.36362e-06 0)
(-1.1569e-06 2.87093e-06 0)
(-1.01662e-06 2.43861e-06 0)
(-8.96659e-07 2.05809e-06 0)
(-7.94921e-07 1.72168e-06 0)
(-7.09593e-07 1.4225e-06 0)
(-6.39144e-07 1.15432e-06 0)
(-5.823e-07 9.1147e-07 0)
(-5.3803e-07 6.8874e-07 0)
(-5.05528e-07 4.81284e-07 0)
(-4.8419e-07 2.84536e-07 0)
(-4.73594e-07 9.41397e-08 0)
(-0.00736426 0.036528 0)
(-0.00711245 0.0344614 0)
(-0.00685331 0.0324679 0)
(-0.00658892 0.0305493 0)
(-0.00632178 0.0287067 0)
(-0.00605324 0.0269406 0)
(-0.00578449 0.0252514 0)
(-0.00551739 0.0236387 0)
(-0.00525324 0.0221019 0)
(-0.00499301 0.02064 0)
(-0.0047376 0.0192518 0)
(-0.00448783 0.0179357 0)
(-0.00424439 0.01669 0)
(-0.00400787 0.0155128 0)
(-0.00377874 0.0144022 0)
(-0.00355737 0.0133558 0)
(-0.00334405 0.0123715 0)
(-0.00313899 0.0114469 0)
(-0.00294233 0.0105797 0)
(-0.00275415 0.00976736 0)
(-0.00257448 0.00900753 0)
(-0.00240328 0.00829777 0)
(-0.00224048 0.00763567 0)
(-0.00208597 0.00701884 0)
(-0.0019396 0.00644494 0)
(-0.00180119 0.00591166 0)
(-0.00167054 0.00541677 0)
(-0.00154742 0.00495807 0)
(-0.00143161 0.00453346 0)
(-0.00132283 0.00414087 0)
(-0.00122083 0.00377835 0)
(-0.00112534 0.00344398 0)
(-0.00103608 0.00313597 0)
(-0.000952763 0.00285256 0)
(-0.000875116 0.0025921 0)
(-0.000802856 0.00235302 0)
(-0.000735707 0.00213381 0)
(-0.000673397 0.00193306 0)
(-0.000615656 0.00174942 0)
(-0.000562225 0.00158162 0)
(-0.000512849 0.00142848 0)
(-0.000467282 0.00128887 0)
(-0.000425286 0.00116174 0)
(-0.000386633 0.00104611 0)
(-0.000351102 0.000941044 0)
(-0.000318484 0.00084569 0)
(-0.000288579 0.000759244 0)
(-0.000261196 0.00068096 0)
(-0.000236153 0.000610146 0)
(-0.00021328 0.000546157 0)
(-0.000192414 0.0004884 0)
(-0.000173402 0.000436322 0)
(-0.000156102 0.000389417 0)
(-0.000140377 0.000347215 0)
(-0.000126102 0.000309285 0)
(-0.000113159 0.000275232 0)
(-0.000101437 0.000244691 0)
(-9.08339e-05 0.000217329 0)
(-8.12537e-05 0.00019284 0)
(-7.26081e-05 0.000170947 0)
(-6.48149e-05 0.000151393 0)
(-5.77983e-05 0.000133948 0)
(-5.1488e-05 0.000118401 0)
(-4.58195e-05 0.000104558 0)
(-4.07333e-05 9.22455e-05 0)
(-3.61747e-05 8.13059e-05 0)
(-3.20936e-05 7.15959e-05 0)
(-2.84442e-05 6.2986e-05 0)
(-2.51843e-05 5.53592e-05 0)
(-2.22757e-05 4.861e-05 0)
(-1.96834e-05 4.26435e-05 0)
(-1.73756e-05 3.73741e-05 0)
(-1.53233e-05 3.2725e-05 0)
(-1.35002e-05 2.86272e-05 0)
(-1.18826e-05 2.50187e-05 0)
(-1.0449e-05 2.18442e-05 0)
(-9.1797e-06 1.90541e-05 0)
(-8.05731e-06 1.66042e-05 0)
(-7.06593e-06 1.44548e-05 0)
(-6.19133e-06 1.25707e-05 0)
(-5.4207e-06 1.09206e-05 0)
(-4.74257e-06 9.47641e-06 0)
(-4.14664e-06 8.21337e-06 0)
(-3.62374e-06 7.10938e-06 0)
(-3.16567e-06 6.14483e-06 0)
(-2.76513e-06 5.30232e-06 0)
(-2.41563e-06 4.56641e-06 0)
(-2.11143e-06 3.9234e-06 0)
(-1.84746e-06 3.36114e-06 0)
(-1.61926e-06 2.86882e-06 0)
(-1.42291e-06 2.43682e-06 0)
(-1.25501e-06 2.05658e-06 0)
(-1.11262e-06 1.72042e-06 0)
(-9.93186e-07 1.42146e-06 0)
(-8.94581e-07 1.15347e-06 0)
(-8.15018e-07 9.108e-07 0)
(-7.53057e-07 6.88235e-07 0)
(-7.07569e-07 4.80933e-07 0)
(-6.77703e-07 2.84328e-07 0)
(-6.62874e-07 9.40712e-08 0)
(-0.00946527 0.0364919 0)
(-0.00914162 0.0344273 0)
(-0.00880853 0.0324358 0)
(-0.00846874 0.0305191 0)
(-0.00812532 0.0286783 0)
(-0.00778009 0.026914 0)
(-0.00743471 0.0252265 0)
(-0.00709146 0.0236154 0)
(-0.00675195 0.0220801 0)
(-0.00641748 0.0206197 0)
(-0.0060892 0.0192328 0)
(-0.00576817 0.017918 0)
(-0.00545528 0.0166735 0)
(-0.00515128 0.0154975 0)
(-0.00485678 0.0143879 0)
(-0.00457226 0.0133426 0)
(-0.00429808 0.0123593 0)
(-0.00403452 0.0114356 0)
(-0.00378175 0.0105692 0)
(-0.00353989 0.00975772 0)
(-0.00330896 0.00899864 0)
(-0.00308892 0.00828959 0)
(-0.00287967 0.00762814 0)
(-0.00268108 0.00701192 0)
(-0.00249295 0.00643858 0)
(-0.00231505 0.00590583 0)
(-0.00214713 0.00541142 0)
(-0.00198889 0.00495318 0)
(-0.00184003 0.00452898 0)
(-0.00170022 0.00413679 0)
(-0.00156913 0.00377462 0)
(-0.00144639 0.00344059 0)
(-0.00133166 0.00313287 0)
(-0.00122458 0.00284975 0)
(-0.00112478 0.00258955 0)
(-0.0010319 0.0023507 0)
(-0.000945598 0.00213171 0)
(-0.000865511 0.00193115 0)
(-0.000791298 0.00174769 0)
(-0.000722623 0.00158006 0)
(-0.000659161 0.00142707 0)
(-0.000600593 0.0012876 0)
(-0.000546616 0.0011606 0)
(-0.000496935 0.00104508 0)
(-0.000451268 0.000940116 0)
(-0.000409345 0.000844856 0)
(-0.000370908 0.000758495 0)
(-0.000335713 0.000680289 0)
(-0.000303526 0.000609544 0)
(-0.000274127 0.000545619 0)
(-0.000247308 0.000487918 0)
(-0.000222872 0.000435892 0)
(-0.000200636 0.000389033 0)
(-0.000180426 0.000346873 0)
(-0.000162078 0.000308981 0)
(-0.000145442 0.000274961 0)
(-0.000130376 0.00024445 0)
(-0.000116748 0.000217115 0)
(-0.000104435 0.00019265 0)
(-9.33226e-05 0.000170778 0)
(-8.33061e-05 0.000151244 0)
(-7.42876e-05 0.000133817 0)
(-6.61771e-05 0.000118284 0)
(-5.88914e-05 0.000104455 0)
(-5.23541e-05 9.21547e-05 0)
(-4.6495e-05 8.1226e-05 0)
(-4.12497e-05 7.15255e-05 0)
(-3.65591e-05 6.2924e-05 0)
(-3.23692e-05 5.53047e-05 0)
(-2.86308e-05 4.85622e-05 0)
(-2.5299e-05 4.26016e-05 0)
(-2.23327e-05 3.73374e-05 0)
(-1.96949e-05 3.26929e-05 0)
(-1.73517e-05 2.85991e-05 0)
(-1.52727e-05 2.49941e-05 0)
(-1.343e-05 2.18228e-05 0)
(-1.17986e-05 1.90354e-05 0)
(-1.0356e-05 1.65879e-05 0)
(-9.08179e-06 1.44406e-05 0)
(-7.95767e-06 1.25584e-05 0)
(-6.96719e-06 1.09099e-05 0)
(-6.09559e-06 9.46713e-06 0)
(-5.32965e-06 8.20533e-06 0)
(-4.65757e-06 7.10242e-06 0)
(-4.06882e-06 6.13882e-06 0)
(-3.554e-06 5.29713e-06 0)
(-3.10479e-06 4.56194e-06 0)
(-2.7138e-06 3.91957e-06 0)
(-2.37452e-06 3.35786e-06 0)
(-2.08122e-06 2.86602e-06 0)
(-1.82886e-06 2.43444e-06 0)
(-1.61306e-06 2.05457e-06 0)
(-1.43004e-06 1.71874e-06 0)
(-1.27654e-06 1.42007e-06 0)
(-1.1498e-06 1.15235e-06 0)
(-1.04754e-06 9.09912e-07 0)
(-9.67898e-07 6.87564e-07 0)
(-9.09435e-07 4.80464e-07 0)
(-8.71051e-07 2.84052e-07 0)
(-8.51993e-07 9.39801e-08 0)
(-0.0115639 0.0364467 0)
(-0.0111685 0.0343847 0)
(-0.0107616 0.0323957 0)
(-0.0103465 0.0304814 0)
(-0.00992683 0.0286429 0)
(-0.00950502 0.0268808 0)
(-0.0090831 0.0251954 0)
(-0.00866377 0.0235863 0)
(-0.008249 0.0220529 0)
(-0.00784037 0.0205942 0)
(-0.00743931 0.019209 0)
(-0.00704709 0.0178958 0)
(-0.00666483 0.0166529 0)
(-0.00629343 0.0154784 0)
(-0.00593363 0.0143702 0)
(-0.00558602 0.0133261 0)
(-0.00525105 0.012344 0)
(-0.00492905 0.0114215 0)
(-0.00462024 0.0105562 0)
(-0.00432475 0.00974566 0)
(-0.00404262 0.00898752 0)
(-0.00377379 0.00827934 0)
(-0.00351815 0.00761871 0)
(-0.00327553 0.00700325 0)
(-0.00304568 0.00643062 0)
(-0.00282834 0.00589853 0)
(-0.00262319 0.00540474 0)
(-0.00242987 0.00494706 0)
(-0.002248 0.00452338 0)
(-0.0020772 0.00413167 0)
(-0.00191703 0.00376995 0)
(-0.00176708 0.00343633 0)
(-0.00162692 0.003129 0)
(-0.00149609 0.00284622 0)
(-0.00137416 0.00258635 0)
(-0.0012607 0.00234779 0)
(-0.00115526 0.00212907 0)
(-0.00105741 0.00192876 0)
(-0.000966744 0.00174553 0)
(-0.000882843 0.00157811 0)
(-0.000805309 0.00142531 0)
(-0.000733757 0.00128601 0)
(-0.000667812 0.00115917 0)
(-0.000607116 0.00104379 0)
(-0.000551323 0.000938955 0)
(-0.000500105 0.000843812 0)
(-0.000453146 0.000757558 0)
(-0.000410147 0.000679449 0)
(-0.000370823 0.000608792 0)
(-0.000334906 0.000544945 0)
(-0.000302141 0.000487316 0)
(-0.000272288 0.000435354 0)
(-0.000245121 0.000388553 0)
(-0.00022043 0.000346444 0)
(-0.000198014 0.000308599 0)
(-0.00017769 0.000274621 0)
(-0.000159283 0.000244148 0)
(-0.000142633 0.000216847 0)
(-0.00012759 0.000192413 0)
(-0.000114014 0.000170568 0)
(-0.000101777 0.000151058 0)
(-9.07587e-05 0.000133652 0)
(-8.08498e-05 0.000118138 0)
(-7.19488e-05 0.000104326 0)
(-6.39621e-05 9.20411e-05 0)
(-5.68039e-05 8.11258e-05 0)
(-5.03956e-05 7.14373e-05 0)
(-4.4665e-05 6.28465e-05 0)
(-3.95461e-05 5.52366e-05 0)
(-3.49789e-05 4.85024e-05 0)
(-3.09082e-05 4.25491e-05 0)
(-2.72843e-05 3.72914e-05 0)
(-2.40617e-05 3.26526e-05 0)
(-2.1199e-05 2.85638e-05 0)
(-1.86589e-05 2.49634e-05 0)
(-1.64077e-05 2.17959e-05 0)
(-1.44146e-05 1.9012e-05 0)
(-1.26521e-05 1.65675e-05 0)
(-1.10954e-05 1.44228e-05 0)
(-9.72205e-06 1.2543e-05 0)
(-8.51196e-06 1.08965e-05 0)
(-7.44711e-06 9.4555e-06 0)
(-6.51135e-06 8.19525e-06 0)
(-5.69026e-06 7.0937e-06 0)
(-4.97096e-06 6.13128e-06 0)
(-4.342e-06 5.29063e-06 0)
(-3.79319e-06 4.55635e-06 0)
(-3.31551e-06 3.91477e-06 0)
(-2.90101e-06 3.35375e-06 0)
(-2.54267e-06 2.86251e-06 0)
(-2.23436e-06 2.43147e-06 0)
(-1.97072e-06 2.05206e-06 0)
(-1.74711e-06 1.71664e-06 0)
(-1.55958e-06 1.41834e-06 0)
(-1.40474e-06 1.15094e-06 0)
(-1.2798e-06 9.08804e-07 0)
(-1.1825e-06 6.86727e-07 0)
(-1.11108e-06 4.7988e-07 0)
(-1.06419e-06 2.83707e-07 0)
(-1.04091e-06 9.3866e-08 0)
(-0.0136597 0.0363926 0)
(-0.0131926 0.0343337 0)
(-0.0127119 0.0323476 0)
(-0.0122216 0.0304361 0)
(-0.0117259 0.0286004 0)
(-0.0112276 0.0268409 0)
(-0.0107293 0.025158 0)
(-0.010234 0.0235513 0)
(-0.00974403 0.0220201 0)
(-0.00926133 0.0205636 0)
(-0.00878758 0.0191805 0)
(-0.00832428 0.0178692 0)
(-0.00787273 0.0166282 0)
(-0.00743402 0.0154554 0)
(-0.00700901 0.0143488 0)
(-0.0065984 0.0133063 0)
(-0.00620272 0.0123257 0)
(-0.00582236 0.0114045 0)
(-0.00545759 0.0105405 0)
(-0.00510855 0.00973119 0)
(-0.00477528 0.00897417 0)
(-0.00445773 0.00826704 0)
(-0.00415576 0.00760739 0)
(-0.00386917 0.00699285 0)
(-0.00359767 0.00642107 0)
(-0.00334094 0.00588977 0)
(-0.0030986 0.00539671 0)
(-0.00287024 0.00493971 0)
(-0.00265542 0.00451667 0)
(-0.00245365 0.00412554 0)
(-0.00226446 0.00376435 0)
(-0.00208734 0.00343123 0)
(-0.00192177 0.00312436 0)
(-0.00176723 0.002842 0)
(-0.00162321 0.00258251 0)
(-0.00148918 0.00234431 0)
(-0.00136463 0.00212591 0)
(-0.00124905 0.0019259 0)
(-0.00114195 0.00174294 0)
(-0.00104284 0.00157577 0)
(-0.000951259 0.00142319 0)
(-0.000866739 0.0012841 0)
(-0.000788843 0.00115744 0)
(-0.000717146 0.00104224 0)
(-0.000651242 0.00093756 0)
(-0.000590741 0.000842559 0)
(-0.000535272 0.000756433 0)
(-0.00048448 0.00067844 0)
(-0.000438029 0.000607887 0)
(-0.000395603 0.000544136 0)
(-0.000356899 0.000486592 0)
(-0.000321636 0.000434707 0)
(-0.000289546 0.000387976 0)
(-0.000260379 0.00034593 0)
(-0.000233901 0.000308141 0)
(-0.000209894 0.000274214 0)
(-0.000188151 0.000243786 0)
(-0.000168484 0.000216525 0)
(-0.000150714 0.000192127 0)
(-0.000134677 0.000170315 0)
(-0.000120222 0.000150834 0)
(-0.000107207 0.000133453 0)
(-9.55027e-05 0.000117963 0)
(-8.49884e-05 0.000104171 0)
(-7.55542e-05 9.19045e-05 0)
(-6.70988e-05 8.10055e-05 0)
(-5.9529e-05 7.13314e-05 0)
(-5.27598e-05 6.27533e-05 0)
(-4.67133e-05 5.51547e-05 0)
(-4.13183e-05 4.84305e-05 0)
(-3.65099e-05 4.24861e-05 0)
(-3.22292e-05 3.72362e-05 0)
(-2.84225e-05 3.26042e-05 0)
(-2.5041e-05 2.85215e-05 0)
(-2.20406e-05 2.49264e-05 0)
(-1.93813e-05 2.17636e-05 0)
(-1.7027e-05 1.89839e-05 0)
(-1.49452e-05 1.65429e-05 0)
(-1.31063e-05 1.44015e-05 0)
(-1.1484e-05 1.25244e-05 0)
(-1.00546e-05 1.08803e-05 0)
(-8.7968e-06 9.44151e-06 0)
(-7.69145e-06 8.18313e-06 0)
(-6.72154e-06 7.08321e-06 0)
(-5.87188e-06 6.12222e-06 0)
(-5.12893e-06 5.28282e-06 0)
(-4.48065e-06 4.54962e-06 0)
(-3.91641e-06 3.90899e-06 0)
(-3.42678e-06 3.3488e-06 0)
(-3.0035e-06 2.85829e-06 0)
(-2.63931e-06 2.42788e-06 0)
(-2.32788e-06 2.04904e-06 0)
(-2.06376e-06 1.71412e-06 0)
(-1.84224e-06 1.41626e-06 0)
(-1.65934e-06 1.14926e-06 0)
(-1.51175e-06 9.07471e-07 0)
(-1.39682e-06 6.8572e-07 0)
(-1.31246e-06 4.79176e-07 0)
(-1.25706e-06 2.83291e-07 0)
(-1.22957e-06 9.37284e-08 0)
(-0.0157521 0.0363295 0)
(-0.0152134 0.0342742 0)
(-0.0146591 0.0322916 0)
(-0.0140937 0.0303834 0)
(-0.0135221 0.0285509 0)
(-0.0129474 0.0267944 0)
(-0.0123728 0.0251144 0)
(-0.0118016 0.0235105 0)
(-0.0112366 0.021982 0)
(-0.01068 0.020528 0)
(-0.0101337 0.0191473 0)
(-0.00959941 0.0178383 0)
(-0.0090787 0.0165994 0)
(-0.00857278 0.0154286 0)
(-0.00808266 0.014324 0)
(-0.00760915 0.0132833 0)
(-0.00715286 0.0123043 0)
(-0.00671424 0.0113848 0)
(-0.00629359 0.0105222 0)
(-0.00589108 0.00971432 0)
(-0.00550676 0.00895862 0)
(-0.00514057 0.00825271 0)
(-0.00479235 0.0075942 0)
(-0.00446185 0.00698072 0)
(-0.00414876 0.00640994 0)
(-0.0038527 0.00587956 0)
(-0.00357325 0.00538735 0)
(-0.00330991 0.00493115 0)
(-0.00306218 0.00450884 0)
(-0.00282951 0.00411838 0)
(-0.00261134 0.00375783 0)
(-0.00240708 0.00342528 0)
(-0.00221615 0.00311894 0)
(-0.00203794 0.00283707 0)
(-0.00187185 0.00257803 0)
(-0.00171729 0.00234024 0)
(-0.00157366 0.00212222 0)
(-0.00144038 0.00192256 0)
(-0.00131688 0.00173992 0)
(-0.00120259 0.00157303 0)
(-0.00109697 0.00142073 0)
(-0.000999507 0.00128188 0)
(-0.000909678 0.00115544 0)
(-0.000826999 0.00104043 0)
(-0.000751 0.000935934 0)
(-0.000681232 0.000841098 0)
(-0.000617265 0.000755122 0)
(-0.000558693 0.000677263 0)
(-0.000505127 0.000606834 0)
(-0.000456201 0.000543193 0)
(-0.000411569 0.000485748 0)
(-0.000370904 0.000433954 0)
(-0.000333899 0.000387303 0)
(-0.000300264 0.00034533 0)
(-0.000269731 0.000307607 0)
(-0.000242045 0.000273738 0)
(-0.000216972 0.000243363 0)
(-0.000194292 0.000216149 0)
(-0.0001738 0.000191794 0)
(-0.000155307 0.000170019 0)
(-0.000138638 0.000150572 0)
(-0.000123629 0.000133222 0)
(-0.000110132 0.000117758 0)
(-9.80071e-05 0.000103991 0)
(-8.71278e-05 9.17453e-05 0)
(-7.73771e-05 8.08651e-05 0)
(-6.86478e-05 7.12078e-05 0)
(-6.08417e-05 6.26446e-05 0)
(-5.38689e-05 5.50591e-05 0)
(-4.76475e-05 4.83466e-05 0)
(-4.21026e-05 4.24125e-05 0)
(-3.71662e-05 3.71717e-05 0)
(-3.27763e-05 3.25478e-05 0)
(-2.88768e-05 2.84721e-05 0)
(-2.54168e-05 2.48832e-05 0)
(-2.23502e-05 2.1726e-05 0)
(-1.96353e-05 1.8951e-05 0)
(-1.72345e-05 1.65143e-05 0)
(-1.5114e-05 1.43766e-05 0)
(-1.32432e-05 1.25027e-05 0)
(-1.15948e-05 1.08615e-05 0)
(-1.01443e-05 9.42519e-06 0)
(-8.86965e-06 8.16899e-06 0)
(-7.75117e-06 7.07097e-06 0)
(-6.77136e-06 6.11164e-06 0)
(-5.9146e-06 5.27369e-06 0)
(-5.16702e-06 4.54176e-06 0)
(-4.51634e-06 3.90223e-06 0)
(-3.95171e-06 3.34301e-06 0)
(-3.46359e-06 2.85335e-06 0)
(-3.0436e-06 2.42369e-06 0)
(-2.68448e-06 2.0455e-06 0)
(-2.3799e-06 1.71116e-06 0)
(-2.12444e-06 1.41382e-06 0)
(-1.91353e-06 1.14728e-06 0)
(-1.74334e-06 9.0591e-07 0)
(-1.6108e-06 6.84541e-07 0)
(-1.51351e-06 4.78352e-07 0)
(-1.44964e-06 2.82803e-07 0)
(-1.41792e-06 9.35671e-08 0)
(-0.0178406 0.0362575 0)
(-0.0172305 0.0342063 0)
(-0.0166027 0.0322276 0)
(-0.0159624 0.0303232 0)
(-0.0153149 0.0284943 0)
(-0.014664 0.0267414 0)
(-0.0140132 0.0250647 0)
(-0.0133664 0.0234639 0)
(-0.0127265 0.0219384 0)
(-0.0120961 0.0204873 0)
(-0.0114773 0.0191093 0)
(-0.0108722 0.0178029 0)
(-0.0102824 0.0165665 0)
(-0.00970942 0.015398 0)
(-0.00915432 0.0142956 0)
(-0.00861803 0.0132569 0)
(-0.00810124 0.0122799 0)
(-0.00760446 0.0113622 0)
(-0.00712804 0.0105014 0)
(-0.00667216 0.00969506 0)
(-0.00623689 0.00894085 0)
(-0.00582214 0.00823635 0)
(-0.00542775 0.00757915 0)
(-0.00505343 0.00696688 0)
(-0.00469883 0.00639723 0)
(-0.00436352 0.0058679 0)
(-0.00404701 0.00537667 0)
(-0.00374876 0.00492137 0)
(-0.00346818 0.00449989 0)
(-0.00320466 0.00411022 0)
(-0.00295757 0.00375037 0)
(-0.00272623 0.00341849 0)
(-0.00250998 0.00311275 0)
(-0.00230814 0.00283144 0)
(-0.00212004 0.00257291 0)
(-0.00194498 0.0023356 0)
(-0.00178231 0.00211801 0)
(-0.00163136 0.00191875 0)
(-0.00149148 0.00173647 0)
(-0.00136204 0.00156991 0)
(-0.00124242 0.00141791 0)
(-0.00113203 0.00127933 0)
(-0.00103029 0.00115315 0)
(-0.000936648 0.00103837 0)
(-0.000850573 0.000934078 0)
(-0.000771554 0.00083943 0)
(-0.000699106 0.000753624 0)
(-0.000632768 0.00067592 0)
(-0.0005721 0.00060563 0)
(-0.000516688 0.000542115 0)
(-0.000466138 0.000484785 0)
(-0.000420081 0.000433093 0)
(-0.000378169 0.000386535 0)
(-0.000340075 0.000344645 0)
(-0.000305493 0.000306997 0)
(-0.000274137 0.000273195 0)
(-0.00024574 0.00024288 0)
(-0.000220053 0.000215721 0)
(-0.000196844 0.000191414 0)
(-0.000175899 0.000169682 0)
(-0.00015702 0.000150274 0)
(-0.000140021 0.000132958 0)
(-0.000124734 0.000117525 0)
(-0.000111002 0.000103785 0)
(-9.86798e-05 9.15634e-05 0)
(-8.76363e-05 8.07048e-05 0)
(-7.77496e-05 7.10667e-05 0)
(-6.89085e-05 6.25204e-05 0)
(-6.10112e-05 5.495e-05 0)
(-5.39649e-05 4.82508e-05 0)
(-4.76848e-05 4.23285e-05 0)
(-4.20939e-05 3.7098e-05 0)
(-3.7122e-05 3.24833e-05 0)
(-3.27055e-05 2.84158e-05 0)
(-2.87868e-05 2.4834e-05 0)
(-2.53136e-05 2.16829e-05 0)
(-2.22387e-05 1.89135e-05 0)
(-1.95196e-05 1.64816e-05 0)
(-1.71179e-05 1.43481e-05 0)
(-1.49991e-05 1.2478e-05 0)
(-1.31322e-05 1.084e-05 0)
(-1.14893e-05 9.40654e-06 0)
(-1.00457e-05 8.15283e-06 0)
(-8.77889e-06 7.05699e-06 0)
(-7.66917e-06 6.09955e-06 0)
(-6.69881e-06 5.26326e-06 0)
(-5.85211e-06 4.53278e-06 0)
(-5.11516e-06 3.89452e-06 0)
(-4.47566e-06 3.3364e-06 0)
(-3.92282e-06 2.84771e-06 0)
(-3.44715e-06 2.4189e-06 0)
(-3.04041e-06 2.04146e-06 0)
(-2.69545e-06 1.70778e-06 0)
(-2.40612e-06 1.41102e-06 0)
(-2.16724e-06 1.14501e-06 0)
(-1.97449e-06 9.04122e-07 0)
(-1.82438e-06 6.8319e-07 0)
(-1.71419e-06 4.77408e-07 0)
(-1.64185e-06 2.82245e-07 0)
(-1.60594e-06 9.33824e-08 0)
(-0.0199247 0.0361766 0)
(-0.0192433 0.03413 0)
(-0.0185422 0.0321557 0)
(-0.0178271 0.0302556 0)
(-0.0171039 0.0284307 0)
(-0.0163771 0.0266817 0)
(-0.0156502 0.0250087 0)
(-0.0149278 0.0234115 0)
(-0.0142132 0.0218894 0)
(-0.0135091 0.0204416 0)
(-0.0128181 0.0190666 0)
(-0.0121423 0.0177632 0)
(-0.0114836 0.0165295 0)
(-0.0108437 0.0153636 0)
(-0.0102237 0.0142636 0)
(-0.00962478 0.0132273 0)
(-0.00904761 0.0122525 0)
(-0.0084928 0.0113368 0)
(-0.00796072 0.0104779 0)
(-0.00745159 0.0096734 0)
(-0.00696547 0.00892088 0)
(-0.00650228 0.00821795 0)
(-0.00606181 0.00756222 0)
(-0.00564377 0.00695132 0)
(-0.00524774 0.00638294 0)
(-0.00487326 0.00585479 0)
(-0.00451978 0.00536466 0)
(-0.00418668 0.00491037 0)
(-0.00387333 0.00448984 0)
(-0.00357903 0.00410103 0)
(-0.00330307 0.003742 0)
(-0.0030447 0.00341085 0)
(-0.00280319 0.0031058 0)
(-0.00257778 0.00282512 0)
(-0.0023677 0.00256717 0)
(-0.00217219 0.00233038 0)
(-0.00199052 0.00211328 0)
(-0.00182193 0.00191446 0)
(-0.00166571 0.00173259 0)
(-0.00152115 0.00156641 0)
(-0.00138756 0.00141474 0)
(-0.00126427 0.00127648 0)
(-0.00115065 0.00115057 0)
(-0.00104607 0.00103605 0)
(-0.000949935 0.000931991 0)
(-0.000861686 0.000837555 0)
(-0.000780775 0.000751941 0)
(-0.000706687 0.00067441 0)
(-0.000638932 0.000604277 0)
(-0.000577046 0.000540904 0)
(-0.000520591 0.000483702 0)
(-0.000469154 0.000432126 0)
(-0.000422346 0.000385671 0)
(-0.000379802 0.000343876 0)
(-0.000341181 0.000306311 0)
(-0.000306162 0.000272585 0)
(-0.000274447 0.000242338 0)
(-0.000245759 0.000215239 0)
(-0.000219839 0.000190986 0)
(-0.000196447 0.000169303 0)
(-0.000175362 0.000149938 0)
(-0.000156378 0.000132661 0)
(-0.000139305 0.000117263 0)
(-0.000123969 0.000103553 0)
(-0.000110207 9.1359e-05 0)
(-9.78738e-05 8.05247e-05 0)
(-8.68322e-05 7.0908e-05 0)
(-7.69583e-05 6.23809e-05 0)
(-6.81385e-05 5.48274e-05 0)
(-6.0269e-05 4.81431e-05 0)
(-5.32553e-05 4.2234e-05 0)
(-4.70113e-05 3.70153e-05 0)
(-4.14586e-05 3.24108e-05 0)
(-3.65262e-05 2.83524e-05 0)
(-3.21496e-05 2.47786e-05 0)
(-2.82707e-05 2.16346e-05 0)
(-2.48366e-05 1.88713e-05 0)
(-2.17999e-05 1.64449e-05 0)
(-1.91176e-05 1.43161e-05 0)
(-1.67513e-05 1.24502e-05 0)
(-1.46663e-05 1.08159e-05 0)
(-1.28315e-05 9.38557e-06 0)
(-1.12192e-05 8.13466e-06 0)
(-9.80445e-06 7.04126e-06 0)
(-8.56509e-06 6.08596e-06 0)
(-7.48137e-06 5.25154e-06 0)
(-6.53576e-06 4.52268e-06 0)
(-5.71272e-06 3.88584e-06 0)
(-4.99852e-06 3.32897e-06 0)
(-4.38109e-06 2.84137e-06 0)
(-3.84985e-06 2.41351e-06 0)
(-3.39559e-06 2.03691e-06 0)
(-3.01033e-06 1.70398e-06 0)
(-2.68721e-06 1.40788e-06 0)
(-2.42043e-06 1.14246e-06 0)
(-2.20516e-06 9.02109e-07 0)
(-2.03751e-06 6.81669e-07 0)
(-1.91445e-06 4.76346e-07 0)
(-1.83366e-06 2.81617e-07 0)
(-1.79355e-06 9.31748e-08 0)
(-0.0220039 0.0360868 0)
(-0.0212514 0.0340452 0)
(-0.0204771 0.0320758 0)
(-0.0196874 0.0301804 0)
(-0.0188888 0.0283601 0)
(-0.018086 0.0266154 0)
(-0.0172834 0.0249466 0)
(-0.0164856 0.0233533 0)
(-0.0156964 0.0218351 0)
(-0.0149189 0.0203908 0)
(-0.0141557 0.0190193 0)
(-0.0134094 0.017719 0)
(-0.012682 0.0164884 0)
(-0.0119752 0.0153254 0)
(-0.0112906 0.0142282 0)
(-0.0106292 0.0131945 0)
(-0.00999176 0.0122221 0)
(-0.00937905 0.0113086 0)
(-0.00879145 0.0104519 0)
(-0.00822919 0.00964936 0)
(-0.00769234 0.00889871 0)
(-0.00718081 0.00819752 0)
(-0.00669438 0.00754342 0)
(-0.00623271 0.00693404 0)
(-0.00579536 0.00636707 0)
(-0.0053818 0.00584024 0)
(-0.00499143 0.00535132 0)
(-0.00462357 0.00489817 0)
(-0.00427752 0.00447868 0)
(-0.00395251 0.00409084 0)
(-0.00364775 0.00373269 0)
(-0.00336243 0.00340237 0)
(-0.00309572 0.00309808 0)
(-0.00284678 0.0028181 0)
(-0.00261477 0.00256079 0)
(-0.00239887 0.00232459 0)
(-0.00219823 0.00210803 0)
(-0.00201205 0.0019097 0)
(-0.00183953 0.00172828 0)
(-0.00167988 0.00156251 0)
(-0.00153235 0.00141122 0)
(-0.0013962 0.0012733 0)
(-0.00127072 0.00114771 0)
(-0.00115523 0.00103347 0)
(-0.00104906 0.000929675 0)
(-0.000951605 0.000835473 0)
(-0.000862251 0.000750072 0)
(-0.000780431 0.000672734 0)
(-0.000705606 0.000602775 0)
(-0.000637262 0.00053956 0)