/*--------------------------------*- C++ -*----------------------------------*\
| =========                 |                                                 |
| \\      /  F ield         | OpenFOAM: The Open Source CFD Toolbox           |
|  \\    /   O peration     | Version:  2406                                  |
|   \\  /    A nd           | Website:  www.openfoam.com                      |
|    \\/     M anipulation  |                                                 |
\*---------------------------------------------------------------------------*/
FoamFile
{
    version     2.0;
    format      ascii;
    arch        "LSB;label=32;scalar=64";
    class       volScalarField;
    location    "110";
    object      T;
}
// * * * * * * * * * * * * * * * * * * * * * * * * * * * * * * * * * * * * * //

dimensions      [0 0 0 1 0 0 0];

internalField   nonuniform List<scalar> 
20000
(
300.464
300.475
300.483
300.49
300.496
300.5
300.503
300.505
300.505
300.504
300.503
300.501
300.497
300.493
300.488
300.483
300.477
300.471
300.464
300.456
300.448
300.44
300.432
300.423
300.414
300.405
300.396
300.386
300.377
300.367
300.358
300.348
300.339
300.329
300.319
300.31
300.301
300.291
300.282
300.273
300.264
300.255
300.247
300.238
300.23
300.222
300.214
300.206
300.198
300.191
300.184
300.176
300.169
300.163
300.156
300.15
300.144
300.138
300.132
300.126
300.121
300.115
300.11
300.105
300.1
300.096
300.091
300.087
300.083
300.079
300.075
300.071
300.067
300.064
300.06
300.057
300.054
300.051
300.048
300.045
300.042
300.039
300.037
300.034
300.032
300.029
300.027
300.025
300.023
300.021
300.018
300.016
300.014
300.012
300.01
300.009
300.007
300.005
300.003
300.001
301.392
301.423
301.449
301.471
301.487
301.5
301.508
301.513
301.515
301.513
301.509
301.501
301.492
301.48
301.465
301.449
301.431
301.412
301.391
301.368
301.345
301.32
301.295
301.269
301.242
301.215
301.187
301.159
301.13
301.102
301.073
301.044
301.016
300.987
300.958
300.93
300.902
300.874
300.847
300.819
300.793
300.766
300.74
300.715
300.69
300.665
300.641
300.618
300.595
300.572
300.551
300.529
300.508
300.488
300.469
300.449
300.431
300.413
300.395
300.378
300.362
300.346
300.331
300.316
300.301
300.287
300.274
300.261
300.248
300.236
300.224
300.213
300.202
300.191
300.181
300.171
300.162
300.152
300.143
300.135
300.126
300.118
300.111
300.103
300.096
300.088
300.082
300.075
300.068
300.062
300.055
300.049
300.043
300.037
300.031
300.026
300.02
300.014
300.008
300.003
302.32
302.372
302.415
302.451
302.478
302.499
302.514
302.522
302.525
302.522
302.514
302.502
302.486
302.465
302.442
302.415
302.385
302.352
302.317
302.28
302.241
302.2
302.158
302.114
302.07
302.024
301.978
301.931
301.884
301.836
301.788
301.74
301.692
301.644
301.597
301.55
301.503
301.456
301.411
301.365
301.321
301.277
301.234
301.191
301.149
301.109
301.069
301.029
300.991
300.954
300.917
300.882
300.847
300.814
300.781
300.749
300.718
300.688
300.659
300.631
300.603
300.577
300.551
300.526
300.502
300.479
300.456
300.434
300.413
300.393
300.374
300.355
300.336
300.319
300.302
300.285
300.269
300.254
300.239
300.225
300.211
300.197
300.184
300.172
300.159
300.147
300.136
300.125
300.114
300.103
300.092
300.082
300.072
300.062
300.052
300.043
300.033
300.024
300.014
300.005
303.248
303.32
303.381
303.43
303.469
303.498
303.518
303.53
303.534
303.53
303.519
303.502
303.479
303.451
303.417
303.38
303.338
303.292
303.243
303.191
303.136
303.079
303.02
302.959
302.897
302.833
302.768
302.703
302.636
302.57
302.503
302.436
302.369
302.302
302.235
302.169
302.103
302.039
301.974
301.911
301.849
301.787
301.726
301.667
301.609
301.552
301.496
301.441
301.387
301.335
301.284
301.234
301.186
301.139
301.093
301.048
301.005
300.963
300.922
300.883
300.844
300.807
300.771
300.736
300.703
300.67
300.639
300.608
300.579
300.55
300.523
300.496
300.471
300.446
300.422
300.399
300.377
300.355
300.335
300.314
300.295
300.276
300.258
300.24
300.223
300.206
300.19
300.174
300.159
300.144
300.129
300.115
300.101
300.087
300.073
300.06
300.046
300.033
300.02
300.007
304.174
304.267
304.345
304.409
304.459
304.496
304.522
304.537
304.542
304.537
304.523
304.501
304.472
304.435
304.392
304.344
304.29
304.231
304.168
304.102
304.031
303.958
303.882
303.804
303.723
303.641
303.558
303.474
303.389
303.303
303.217
303.13
303.044
302.958
302.873
302.788
302.704
302.62
302.538
302.456
302.376
302.297
302.219
302.143
302.068
301.994
301.922
301.852
301.783
301.716
301.65
301.586
301.524
301.464
301.405
301.347
301.292
301.238
301.185
301.134
301.085
301.037
300.991
300.946
300.903
300.861
300.821
300.782
300.744
300.707
300.672
300.638
300.605
300.573
300.543
300.513
300.484
300.457
300.43
300.404
300.379
300.355
300.331
300.309
300.287
300.265
300.244
300.224
300.204
300.185
300.166
300.148
300.129
300.112
300.094
300.077
300.059
300.042
300.025
300.008
305.1
305.213
305.308
305.386
305.447
305.493
305.525
305.543
305.549
305.543
305.526
305.499
305.463
305.419
305.366
305.307
305.241
305.17
305.093
305.011
304.925
304.835
304.743
304.647
304.549
304.449
304.347
304.244
304.14
304.035
303.93
303.825
303.719
303.614
303.51
303.406
303.303
303.201
303.1
303.001
302.903
302.806
302.711
302.618
302.526
302.436
302.348
302.262
302.178
302.096
302.016
301.938
301.862
301.788
301.716
301.646
301.578
301.512
301.448
301.386
301.326
301.267
301.211
301.156
301.103
301.052
301.003
300.955
300.909
300.864
300.821
300.779
300.739
300.7
300.663
300.627
300.592
300.558
300.525
300.494
300.463
300.434
300.405
300.377
300.35
300.324
300.299
300.274
300.25
300.226
300.203
300.18
300.158
300.136
300.115
300.094
300.073
300.052
300.031
300.01
306.024
306.158
306.27
306.362
306.435
306.489
306.526
306.548
306.554
306.547
306.527
306.496
306.453
306.401
306.339
306.269
306.191
306.106
306.016
305.919
305.818
305.712
305.602
305.489
305.373
305.255
305.135
305.013
304.89
304.766
304.642
304.518
304.393
304.269
304.146
304.023
303.902
303.781
303.662
303.545
303.429
303.315
303.202
303.092
302.984
302.878
302.774
302.672
302.573
302.476
302.382
302.289
302.2
302.112
302.027
301.944
301.864
301.786
301.71
301.637
301.566
301.497
301.43
301.366
301.303
301.243
301.184
301.128
301.073
301.021
300.97
300.921
300.873
300.827
300.783
300.74
300.699
300.659
300.621
300.583
300.547
300.512
300.478
300.446
300.414
300.383
300.353
300.323
300.295
300.267
300.24
300.213
300.187
300.161
300.136
300.11
300.086
300.061
300.037
300.012
306.946
307.101
307.231
307.337
307.42
307.483
307.526
307.55
307.558
307.55
307.527
307.491
307.442
307.381
307.31
307.229
307.139
307.042
306.937
306.826
306.709
306.587
306.46
306.33
306.196
306.06
305.921
305.781
305.639
305.497
305.353
305.21
305.066
304.923
304.781
304.64
304.499
304.36
304.223
304.088
303.954
303.822
303.693
303.566
303.441
303.319
303.199
303.082
302.967
302.856
302.746
302.64
302.537
302.436
302.338
302.242
302.15
302.06
301.972
301.888
301.806
301.726
301.649
301.575
301.503
301.433
301.366
301.301
301.238
301.177
301.118
301.062
301.007
300.954
300.903
300.854
300.806
300.76
300.716
300.673
300.631
300.591
300.552
300.514
300.477
300.441
300.407
300.373
300.34
300.308
300.276
300.246
300.215
300.186
300.156
300.127
300.099
300.07
300.042
300.014
307.867
308.043
308.19
308.309
308.404
308.475
308.524
308.552
308.56
308.551
308.525
308.484
308.428
308.36
308.279
308.188
308.086
307.976
307.857
307.731
307.598
307.46
307.317
307.169
307.018
306.863
306.707
306.547
306.387
306.225
306.063
305.9
305.738
305.576
305.415
305.255
305.096
304.939
304.783
304.63
304.478
304.329
304.183
304.039
303.897
303.759
303.623
303.49
303.361
303.234
303.111
302.99
302.873
302.759
302.647
302.539
302.435
302.333
302.234
302.138
302.045
301.955
301.868
301.784
301.702
301.623
301.547
301.473
301.402
301.333
301.267
301.202
301.14
301.081
301.023
300.967
300.913
300.861
300.811
300.762
300.715
300.669
300.625
300.582
300.54
300.5
300.461
300.422
300.385
300.349
300.313
300.278
300.244
300.21
300.177
300.144
300.112
300.08
300.048
300.016
308.787
308.982
309.146
309.28
309.386
309.465
309.519
309.551
309.56
309.55
309.521
309.475
309.413
309.336
309.246
309.144
309.031
308.907
308.775
308.634
308.486
308.332
308.172
308.007
307.838
307.665
307.49
307.312
307.133
306.953
306.771
306.59
306.408
306.227
306.047
305.869
305.691
305.515
305.342
305.17
305.001
304.835
304.671
304.51
304.353
304.198
304.046
303.898
303.753
303.612
303.474
303.339
303.208
303.081
302.957
302.836
302.719
302.605
302.495
302.388
302.284
302.184
302.086
301.992
301.901
301.813
301.728
301.645
301.566
301.489
301.415
301.343
301.274
301.207
301.142
301.08
301.02
300.961
300.905
300.851
300.798
300.747
300.698
300.65
300.603
300.558
300.514
300.472
300.43
300.389
300.35
300.311
300.272
300.235
300.198
300.161
300.125
300.089
300.053
300.018
309.703
309.92
310.101
310.249
310.365
310.453
310.513
310.547
310.558
310.547
310.515
310.464
310.395
310.311
310.211
310.098
309.973
309.837
309.69
309.535
309.371
309.201
309.024
308.842
308.656
308.465
308.272
308.075
307.877
307.678
307.478
307.277
307.077
306.877
306.678
306.481
306.285
306.091
305.899
305.71
305.523
305.339
305.159
304.981
304.807
304.636
304.469
304.305
304.145
303.989
303.837
303.688
303.543
303.402
303.265
303.132
303.003
302.877
302.755
302.637
302.522
302.411
302.304
302.2
302.099
302.002
301.908
301.817
301.729
301.644
301.562
301.483
301.407
301.333
301.261
301.193
301.126
301.062
301
300.94
300.881
300.825
300.771
300.718
300.666
300.617
300.568
300.521
300.475
300.43
300.386
300.343
300.301
300.259
300.218
300.178
300.138
300.098
300.059
300.02
310.618
310.855
311.053
311.214
311.342
311.438
311.503
311.541
311.553
311.54
311.506
311.45
311.375
311.282
311.174
311.05
310.913
310.764
310.604
310.434
310.255
310.068
309.875
309.676
309.471
309.263
309.051
308.837
308.62
308.402
308.183
307.963
307.744
307.525
307.308
307.092
306.877
306.665
306.455
306.248
306.044
305.843
305.645
305.45
305.26
305.073
304.89
304.711
304.536
304.365
304.198
304.036
303.877
303.723
303.573
303.427
303.286
303.148
303.015
302.885
302.76
302.639
302.521
302.407
302.297
302.191
302.088
301.988
301.892
301.799
301.709
301.623
301.539
301.458
301.38
301.305
301.232
301.162
301.094
301.028
300.964
300.903
300.843
300.785
300.729
300.675
300.622
300.57
300.52
300.471
300.423
300.375
300.329
300.284
300.239
300.195
300.151
300.108
300.064
300.021
311.53
311.787
312.002
312.177
312.316
312.42
312.491
312.532
312.545
312.532
312.494
312.433
312.352
312.251
312.133
311.999
311.85
311.688
311.514
311.33
311.135
310.933
310.723
310.507
310.285
310.059
309.828
309.595
309.36
309.123
308.885
308.647
308.409
308.172
307.935
307.701
307.468
307.237
307.01
306.785
306.563
306.344
306.13
305.919
305.711
305.509
305.31
305.115
304.925
304.74
304.559
304.382
304.21
304.043
303.88
303.722
303.568
303.419
303.274
303.133
302.997
302.865
302.738
302.614
302.494
302.379
302.267
302.159
302.055
301.954
301.856
301.762
301.671
301.584
301.499
301.417
301.338
301.262
301.188
301.116
301.047
300.98
300.916
300.853
300.792
300.733
300.675
300.619
300.564
300.511
300.459
300.408
300.357
300.308
300.259
300.211
300.164
300.117
300.07
300.023
312.439
312.716
312.948
313.138
313.287
313.399
313.476
313.52
313.534
313.52
313.479
313.413
313.326
313.217
313.09
312.945
312.785
312.61
312.422
312.223
312.013
311.795
311.568
311.335
311.096
310.852
310.603
310.352
310.098
309.843
309.586
309.329
309.072
308.816
308.561
308.308
308.057
307.808
307.562
307.32
307.08
306.845
306.613
306.385
306.162
305.943
305.728
305.519
305.314
305.113
304.918
304.728
304.542
304.361
304.186
304.015
303.849
303.688
303.532
303.38
303.233
303.091
302.953
302.82
302.691
302.566
302.446
302.329
302.217
302.108
302.003
301.901
301.803
301.709
301.617
301.529
301.444
301.361
301.281
301.204
301.13
301.058
300.988
300.92
300.854
300.79
300.728
300.668
300.609
300.551
300.495
300.44
300.386
300.332
300.28
300.228
300.177
300.126
300.076
300.025
313.345
313.642
313.891
314.094
314.255
314.375
314.458
314.505
314.52
314.504
314.46
314.39
314.296
314.18
314.043
313.888
313.716
313.528
313.327
313.113
312.888
312.654
312.411
312.161
311.904
311.642
311.376
311.106
310.834
310.559
310.284
310.008
309.733
309.458
309.185
308.913
308.644
308.377
308.113
307.853
307.596
307.343
307.094
306.85
306.611
306.376
306.146
305.921
305.701
305.486
305.276
305.072
304.873
304.679
304.491
304.307
304.129
303.957
303.789
303.626
303.469
303.316
303.168
303.025
302.887
302.753
302.624
302.499
302.378
302.261
302.149
302.04
301.934
301.833
301.735
301.64
301.549
301.46
301.375
301.292
301.212
301.135
301.06
300.987
300.917
300.848
300.781
300.716
300.653
300.591
300.531
300.472
300.414
300.357
300.3
300.245
300.19
300.135
300.081
300.027
314.248
314.565
314.831
315.048
315.219
315.347
315.436
315.486
315.502
315.485
315.439
315.364
315.263
315.139
314.993
314.827
314.643
314.443
314.228
314
313.76
313.51
313.25
312.983
312.709
312.429
312.145
311.857
311.566
311.274
310.98
310.685
310.391
310.098
309.806
309.516
309.228
308.943
308.662
308.384
308.11
307.84
307.574
307.314
307.058
306.807
306.561
306.321
306.086
305.857
305.633
305.415
305.203
304.996
304.794
304.599
304.409
304.224
304.045
303.872
303.704
303.541
303.383
303.23
303.082
302.939
302.801
302.668
302.539
302.414
302.294
302.178
302.065
301.957
301.852
301.751
301.653
301.559
301.468
301.38
301.294
301.212
301.131
301.054
300.979
300.905
300.834
300.765
300.697
300.631
300.567
300.504
300.442
300.381
300.321
300.261
300.203
300.144
300.086
300.029
315.147
315.484
315.767
315.998
316.18
316.316
316.41
316.464
316.481
316.463
316.413
316.333
316.227
316.094
315.939
315.763
315.568
315.355
315.126
314.884
314.629
314.362
314.087
313.802
313.511
313.214
312.912
312.605
312.296
311.985
311.673
311.36
311.047
310.735
310.425
310.116
309.811
309.508
309.208
308.913
308.622
308.335
308.052
307.775
307.503
307.237
306.975
306.72
306.47
306.227
305.989
305.757
305.531
305.311
305.097
304.889
304.687
304.491
304.301
304.116
303.937
303.764
303.596
303.434
303.277
303.125
302.978
302.836
302.699
302.567
302.439
302.315
302.196
302.08
301.969
301.862
301.758
301.657
301.56
301.467
301.376
301.288
301.203
301.12
301.04
300.963
300.887
300.813
300.741
300.671
300.603
300.536
300.47
300.405
300.341
300.278
300.215
300.153
300.092
300.031
316.042
316.4
316.699
316.943
317.136
317.281
317.38
317.437
317.455
317.436
317.383
317.299
317.186
317.046
316.882
316.695
316.488
316.262
316.02
315.764
315.493
315.211
314.919
314.618
314.31
313.995
313.675
313.351
313.023
312.694
312.363
312.031
311.7
311.37
311.041
310.715
310.391
310.07
309.753
309.44
309.131
308.827
308.528
308.235
307.947
307.664
307.388
307.117
306.853
306.595
306.343
306.097
305.858
305.625
305.398
305.178
304.964
304.756
304.555
304.359
304.17
303.987
303.809
303.637
303.471
303.31
303.154
303.004
302.859
302.718
302.583
302.452
302.325
302.203
302.086
301.972
301.862
301.755
301.653
301.553
301.457
301.364
301.274
301.187
301.102
301.019
300.939
300.861
300.785
300.711
300.638
300.567
300.497
300.429
300.361
300.294
300.228
300.163
300.097
300.032
316.934
317.311
317.627
317.885
318.088
318.241
318.346
318.406
318.425
318.405
318.349
318.26
318.141
317.993
317.82
317.623
317.404
317.166
316.911
316.64
316.354
316.057
315.748
315.431
315.105
314.773
314.435
314.093
313.747
313.399
313.05
312.7
312.35
312.002
311.655
311.31
310.968
310.63
310.295
309.964
309.639
309.318
309.002
308.692
308.388
308.09
307.798
307.513
307.234
306.961
306.695
306.436
306.183
305.937
305.698
305.466
305.24
305.021
304.808
304.602
304.402
304.208
304.021
303.839
303.663
303.494
303.329
303.171
303.017
302.869
302.726
302.588
302.455
302.326
302.201
302.081
301.965
301.853
301.745
301.64
301.538
301.44
301.345
301.253
301.163
301.076
300.992
300.909
300.829
300.75
300.674
300.599
300.525
300.453
300.381
300.311
300.241
300.172
300.103
300.034
317.821
318.218
318.55
318.822
319.036
319.197
319.307
319.371
319.39
319.369
319.311
319.217
319.091
318.936
318.753
318.546
318.316
318.066
317.797
317.511
317.211
316.898
316.574
316.239
315.897
315.547
315.191
314.831
314.467
314.101
313.734
313.365
312.997
312.631
312.265
311.903
311.543
311.186
310.834
310.487
310.144
309.806
309.474
309.148
308.828
308.514
308.207
307.906
307.613
307.326
307.046
306.773
306.507
306.249
305.997
305.752
305.515
305.284
305.06
304.843
304.632
304.429
304.231
304.04
303.855
303.677
303.504
303.337
303.176
303.02
302.869
302.724
302.583
302.448
302.317
302.19
302.068
301.95
301.836
301.726
301.619
301.515
301.415
301.318
301.224
301.132
301.043
300.957
300.872
300.79
300.709
300.63
300.553
300.476
300.401
300.327
300.253
300.181
300.108
300.036
318.704
319.121
319.47
319.754
319.979
320.148
320.264
320.33
320.351
320.329
320.267
320.169
320.037
319.874
319.682
319.465
319.224
318.961
318.679
318.379
318.064
317.735
317.395
317.044
316.684
316.317
315.944
315.566
315.184
314.8
314.414
314.028
313.641
313.256
312.873
312.492
312.115
311.741
311.371
311.006
310.646
310.292
309.943
309.601
309.265
308.936
308.614
308.298
307.99
307.689
307.395
307.109
306.83
306.558
306.294
306.037
305.788
305.546
305.311
305.083
304.862
304.648
304.441
304.24
304.046
303.859
303.678
303.502
303.333
303.169
303.011
302.859
302.711
302.569
302.432
302.299
302.171
302.047
301.927
301.811
301.699
301.59
301.485
301.383
301.285
301.189
301.095
301.004
300.916
300.829
300.744
300.661
300.58
300.5
300.421
300.343
300.266
300.19
300.114
300.038
319.582
320.018
320.384
320.682
320.917
321.094
321.215
321.285
321.306
321.283
321.219
321.116
320.978
320.807
320.607
320.379
320.126
319.851
319.556
319.242
318.912
318.568
318.212
317.844
317.468
317.083
316.692
316.297
315.897
315.495
315.091
314.686
314.282
313.879
313.477
313.079
312.683
312.292
311.905
311.523
311.146
310.775
310.41
310.052
309.7
309.356
309.018
308.688
308.365
308.05
307.742
307.443
307.15
306.866
306.59
306.321
306.06
305.806
305.56
305.321
305.09
304.866
304.649
304.439
304.236
304.04
303.85
303.667
303.489
303.318
303.153
302.993
302.839
302.69
302.546
302.407
302.272
302.143
302.017
301.896
301.779
301.665
301.555
301.448
301.345
301.244
301.147
301.051
300.959
300.868
300.779
300.692
300.607
300.523
300.441
300.359
300.278
300.198
300.119
300.04
320.456
320.911
321.293
321.605
321.85
322.035
322.161
322.234
322.257
322.233
322.166
322.058
321.914
321.735
321.526
321.288
321.024
320.736
320.428
320.1
319.756
319.396
319.024
318.64
318.247
317.845
317.437
317.024
316.606
316.186
315.764
315.341
314.919
314.498
314.079
313.662
313.249
312.84
312.436
312.037
311.643
311.256
310.875
310.5
310.133
309.773
309.42
309.075
308.738
308.409
308.088
307.774
307.469
307.172
306.883
306.603
306.33
306.065
305.808
305.559
305.317
305.083
304.857
304.638
304.425
304.22
304.022
303.83
303.645
303.466
303.293
303.126
302.965
302.81
302.659
302.514
302.374
302.238
302.107
301.981
301.858
301.739
301.625
301.513
301.405
301.3
301.198
301.098
301.001
300.907
300.814
300.723
300.634
300.547
300.46
300.375
300.291
300.207
300.124
300.041
321.324
321.799
322.197
322.522
322.778
322.97
323.102
323.178
323.202
323.177
323.106
322.995
322.844
322.658
322.44
322.192
321.916
321.617
321.295
320.954
320.594
320.22
319.832
319.431
319.021
318.603
318.177
317.746
317.311
316.873
316.433
315.993
315.552
315.113
314.676
314.242
313.812
313.385
312.964
312.548
312.138
311.734
311.336
310.946
310.563
310.188
309.82
309.461
309.109
308.766
308.431
308.105
307.786
307.477
307.176
306.883
306.599
306.322
306.055
305.795
305.543
305.299
305.063
304.834
304.613
304.399
304.193
303.993
303.8
303.613
303.433
303.259
303.091
302.929
302.772
302.621
302.475
302.333
302.197
302.065
301.937
301.813
301.693
301.577
301.465
301.355
301.249
301.145
301.044
300.945
300.849
300.754
300.661
300.57
300.48
300.391
300.303
300.216
300.129
300.043
322.187
322.682
323.095
323.433
323.7
323.9
324.037
324.116
324.141
324.115
324.042
323.925
323.769
323.575
323.348
323.09
322.804
322.492
322.157
321.802
321.428
321.038
320.634
320.218
319.791
319.356
318.913
318.465
318.012
317.556
317.098
316.64
316.182
315.725
315.27
314.819
314.371
313.927
313.489
313.056
312.629
312.209
311.795
311.389
310.991
310.6
310.218
309.844
309.478
309.121
308.772
308.433
308.102
307.78
307.466
307.162
306.866
306.578
306.3
306.029
305.767
305.514
305.268
305.03
304.8
304.577
304.362
304.154
303.954
303.76
303.572
303.391
303.216
303.047
302.884
302.727
302.575
302.428
302.286
302.148
302.015
301.887
301.762
301.641
301.524
301.41
301.299
301.191
301.086
300.983
300.883
300.784
300.688
300.593
300.499
300.407
300.316
300.225
300.135
300.045
323.045
323.558
323.988
324.339
324.616
324.824
324.967
325.049
325.074
325.047
324.971
324.85
324.688
324.487
324.251
323.982
323.685
323.361
323.014
322.645
322.256
321.851
321.432
321
320.556
320.104
319.644
319.178
318.708
318.235
317.759
317.283
316.807
316.333
315.861
315.392
314.926
314.466
314.01
313.56
313.117
312.681
312.251
311.829
311.416
311.01
310.613
310.224
309.844
309.473
309.111
308.759
308.415
308.08
307.755
307.438
307.131
306.833
306.543
306.262
305.99
305.727
305.472
305.225
304.986
304.754
304.531
304.315
304.106
303.905
303.71
303.522
303.341
303.165
302.996
302.832
302.674
302.522
302.374
302.231
302.093
301.96
301.83
301.705
301.583
301.464
301.349
301.237
301.128
301.021
300.917
300.815
300.714
300.616
300.519
300.423
300.328
300.234
300.14
300.047
323.897
324.429
324.875
325.239
325.526
325.742
325.89
325.975
326.001
325.973
325.894
325.769
325.6
325.392
325.147
324.869
324.561
324.225
323.864
323.482
323.079
322.659
322.224
321.776
321.316
320.847
320.37
319.887
319.4
318.909
318.416
317.922
317.429
316.937
316.447
315.961
315.478
315
314.528
314.062
313.602
313.149
312.704
312.267
311.838
311.417
311.005
310.602
310.208
309.824
309.448
309.082
308.726
308.379
308.041
307.713
307.395
307.085
306.785
306.494
306.212
305.938
305.674
305.418
305.17
304.93
304.699
304.475
304.258
304.049
303.847
303.652
303.464
303.282
303.107
302.937
302.773
302.615
302.462
302.314
302.171
302.032
301.898
301.768
301.641
301.519
301.399
301.283
301.17
301.059
300.951
300.845
300.741
300.639
300.538
300.438
300.34
300.242
300.145
300.048
324.743
325.294
325.756
326.133
326.43
326.653
326.806
326.894
326.922
326.893
326.811
326.681
326.507
326.291
326.038
325.75
325.43
325.083
324.709
324.313
323.896
323.462
323.011
322.547
322.071
321.585
321.092
320.592
320.087
319.578
319.068
318.557
318.046
317.536
317.029
316.526
316.026
315.531
315.042
314.56
314.084
313.615
313.154
312.701
312.257
311.821
311.395
310.977
310.57
310.171
309.783
309.404
309.035
308.676
308.326
307.987
307.657
307.336
307.025
306.724
306.432
306.149
305.875
305.609
305.353
305.105
304.865
304.633
304.409
304.193
303.984
303.782
303.587
303.398
303.217
303.041
302.871
302.707
302.549
302.396
302.248
302.104
301.965
301.83
301.699
301.572
301.449
301.328
301.211
301.097
300.985
300.875
300.767
300.661
300.557
300.454
300.352
300.251
300.15
300.05
325.583
326.153
326.63
327.02
327.327
327.558
327.716
327.807
327.836
327.806
327.721
327.587
327.407
327.183
326.921
326.624
326.294
325.934
325.548
325.138
324.708
324.258
323.792
323.312
322.82
322.318
321.808
321.291
320.769
320.243
319.715
319.187
318.658
318.132
317.607
317.087
316.57
316.059
315.553
315.054
314.562
314.077
313.6
313.132
312.673
312.223
311.782
311.35
310.928
310.517
310.115
309.723
309.342
308.97
308.609
308.258
307.916
307.585
307.264
306.952
306.65
306.357
306.074
305.8
305.535
305.278
305.03
304.79
304.559
304.335
304.119
303.91
303.709
303.514
303.326
303.144
302.969
302.799
302.636
302.477
302.324
302.175
302.032
301.892
301.757
301.626
301.498
301.374
301.252
301.134
301.018
300.905
300.793
300.684
300.576
300.469
300.364
300.259
300.155
300.052
326.416
327.005
327.498
327.9
328.218
328.456
328.619
328.713
328.743
328.712
328.625
328.486
328.3
328.069
327.799
327.491
327.15
326.779
326.381
325.958
325.513
325.049
324.568
324.072
323.564
323.045
322.518
321.984
321.445
320.903
320.358
319.812
319.266
318.723
318.181
317.644
317.11
316.582
316.06
315.544
315.036
314.536
314.044
313.56
313.086
312.621
312.165
311.72
311.285
310.859
310.444
310.04
309.646
309.262
308.889
308.527
308.174
307.832
307.501
307.179
306.867
306.565
306.272
305.989
305.715
305.45
305.194
304.946
304.707
304.476
304.253
304.037
303.829
303.628
303.434
303.247
303.066
302.891
302.721
302.558
302.4
302.246
302.098
301.954
301.814
301.679
301.547
301.418
301.293
301.171
301.051
300.934
300.819
300.706
300.595
300.485
300.376
300.268
300.16
300.053
327.244
327.851
328.359
328.774
329.101
329.347
329.516
329.613
329.643
329.611
329.521
329.378
329.186
328.948
328.669
328.352
328.001
327.618
327.207
326.77
326.312
325.833
325.337
324.826
324.302
323.767
323.223
322.673
322.117
321.557
320.995
320.432
319.87
319.309
318.751
318.196
317.646
317.101
316.563
316.031
315.507
314.991
314.483
313.985
313.496
313.016
312.546
312.087
311.638
311.199
310.772
310.354
309.948
309.553
309.168
308.794
308.43
308.078
307.735
307.403
307.082
306.77
306.468
306.176
305.894
305.621
305.357
305.101
304.855
304.616
304.386
304.164
303.949
303.742
303.542
303.348
303.162
302.981
302.807
302.638
302.475
302.317
302.164
302.015
301.871
301.731
301.595
301.463
301.334
301.207
301.084
300.963
300.845
300.728
300.613
300.5
300.387
300.276
300.165
300.055
328.064
328.689
329.213
329.64
329.978
330.231
330.404
330.504
330.535
330.502
330.41
330.263
330.065
329.82
329.533
329.206
328.844
328.449
328.026
327.577
327.104
326.611
326.1
325.573
325.034
324.483
323.923
323.356
322.783
322.206
321.627
321.048
320.468
319.89
319.315
318.744
318.177
317.616
317.062
316.514
315.974
315.442
314.92
314.406
313.902
313.408
312.924
312.451
311.988
311.537
311.096
310.666
310.248
309.84
309.444
309.059
308.684
308.321
307.968
307.626
307.295
306.974
306.663
306.362
306.071
305.79
305.518
305.255
305.001
304.755
304.518
304.289
304.068
303.855
303.648
303.449
303.257
303.071
302.891
302.717
302.549
302.386
302.229
302.076
301.927
301.783
301.643
301.507
301.374
301.244
301.117
300.992
300.87
300.75
300.632
300.515
300.399
300.284
300.17
300.057
328.878
329.521
330.06
330.5
330.847
331.107
331.286
331.389
331.42
331.387
331.292
331.14
330.936
330.684
330.389
330.053
329.68
329.274
328.838
328.376
327.89
327.382
326.856
326.315
325.759
325.192
324.616
324.033
323.443
322.85
322.254
321.658
321.061
320.467
319.875
319.287
318.704
318.127
317.556
316.993
316.437
315.89
315.352
314.824
314.305
313.797
313.299
312.812
312.336
311.871
311.418
310.975
310.545
310.125
309.718
309.321
308.936
308.562
308.199
307.847
307.507
307.176
306.856
306.547
306.247
305.958
305.678
305.407
305.146
304.893
304.649
304.414
304.186
303.966
303.754
303.549
303.351
303.16
302.975
302.796
302.623
302.456
302.293
302.136
301.983
301.835
301.691
301.55
301.414
301.28
301.149
301.021
300.895
300.772
300.65
300.53
300.411
300.293
300.175
300.058
329.684
330.345
330.899
331.351
331.708
331.976
332.159
332.265
332.298
332.263
332.165
332.01
331.8
331.541
331.237
330.892
330.509
330.092
329.644
329.168
328.668
328.147
327.606
327.049
326.479
325.896
325.304
324.704
324.098
323.488
322.876
322.262
321.65
321.038
320.43
319.826
319.227
318.633
318.046
317.467
316.896
316.334
315.781
315.237
314.704
314.182
313.67
313.17
312.68
312.203
311.736
311.282
310.839
310.408
309.989
309.581
309.186
308.801
308.428
308.067
307.716
307.377
307.048
306.73
306.422
306.124
305.836
305.558
305.289
305.03
304.779
304.537
304.303
304.077
303.859
303.648
303.445
303.248
303.058
302.874
302.696
302.524
302.357
302.196
302.039
301.886
301.738
301.594
301.453
301.316
301.181
301.05
300.92
300.793
300.668
300.544
300.422
300.301
300.18
300.06
330.483
331.162
331.731
332.195
332.562
332.836
333.025
333.134
333.167
333.131
333.031
332.871
332.656
332.39
332.078
331.723
331.33
330.902
330.442
329.954
329.44
328.905
328.35
327.778
327.191
326.593
325.985
325.369
324.747
324.12
323.491
322.862
322.232
321.605
320.98
320.36
319.744
319.135
318.532
317.937
317.351
316.773
316.206
315.648
315.1
314.564
314.038
313.524
313.022
312.531
312.052
311.586
311.131
310.688
310.258
309.839
309.433
309.038
308.655
308.284
307.924
307.575
307.238
306.911
306.595
306.289
305.993
305.708
305.432
305.165
304.908
304.659
304.419
304.187
303.963
303.747
303.538
303.336
303.14
302.952
302.769
302.592
302.421
302.255
302.094
301.937
301.785
301.637
301.492
301.351
301.213
301.078
300.945
300.815
300.686
300.559
300.433
300.309
300.185
300.062
331.274
331.971
332.555
333.031
333.407
333.689
333.883
333.994
334.029
333.992
333.889
333.725
333.504
333.231
332.911
332.547
332.144
331.704
331.232
330.731
330.205
329.655
329.086
328.499
327.897
327.284
326.659
326.027
325.389
324.747
324.101
323.455
322.81
322.166
321.525
320.888
320.257
319.632
319.013
318.403
317.801
317.209
316.626
316.054
315.492
314.942
314.403
313.875
313.36
312.856
312.365
311.886
311.42
310.966
310.524
310.095
309.678
309.273
308.88
308.499
308.13
307.772
307.426
307.09
306.766
306.452
306.149
305.856
305.573
305.299
305.035
304.78
304.534
304.296
304.066
303.844
303.629
303.422
303.222
303.028
302.841
302.659
302.484
302.313
302.148
301.987
301.831
301.679
301.531
301.386
301.244
301.106
300.97
300.836
300.704
300.574
300.445
300.317
300.19
300.063
332.058
332.773
333.371
333.859
334.244
334.533
334.732
334.846
334.881
334.844
334.738
334.57
334.344
334.064
333.736
333.363
332.949
332.499
332.015
331.502
330.962
330.398
329.815
329.213
328.597
327.967
327.328
326.68
326.025
325.367
324.706
324.043
323.381
322.721
322.064
321.412
320.764
320.124
319.49
318.864
318.248
317.64
317.043
316.456
315.881
315.316
314.764
314.223
313.695
313.179
312.675
312.184
311.706
311.241
310.788
310.348
309.92
309.505
309.102
308.712
308.333
307.967
307.612
307.268
306.936
306.614
306.303
306.003
305.713
305.432
305.161
304.9
304.647
304.403
304.168
303.94
303.72
303.508
303.303
303.104
302.912
302.726
302.546
302.371
302.202
302.037
301.877
301.721
301.569
301.421
301.276
301.133