/*--------------------------------*- C++ -*----------------------------------*\
| =========                 |                                                 |
| \\      /  F ield         | OpenFOAM: The Open Source CFD Toolbox           |
|  \\    /   O peration     | Version:  2406                                  |
|   \\  /    A nd           | Website:  www.openfoam.com                      |
|    \\/     M anipulation  |                                                 |
\*---------------------------------------------------------------------------*/
FoamFile
{
    version     2.0;
    format      ascii;
    arch        "LSB;label=32;scalar=64";
    class       volVectorField;
    location    "20";
    object      flux;
}
// * * * * * * * * * * * * * * * * * * * * * * * * * * * * * * * * * * * * * //

dimensions      [0 1 -1 1 0 0 0];

internalField   nonuniform List<vector> 
20000
(
(-0.000613867 0.00998943 0)
(-0.000552441 0.00882569 0)
(-0.000495896 0.00777979 0)
(-0.00044401 0.00684222 0)
(-0.00039653 0.00600387 0)
(-0.000353213 0.0052562 0)
(-0.000313846 0.00459109 0)
(-0.00027815 0.00400089 0)
(-0.000245859 0.00347858 0)
(-0.000216764 0.00301752 0)
(-0.000190636 0.00261156 0)
(-0.00016723 0.00225502 0)
(-0.000146317 0.00194269 0)
(-0.000127689 0.00166979 0)
(-0.000111149 0.00143196 0)
(-9.6507e-05 0.00122522 0)
(-8.35844e-05 0.00104596 0)
(-7.22113e-05 0.000890905 0)
(-6.223e-05 0.00075713 0)
(-5.34947e-05 0.000642 0)
(-4.58715e-05 0.000543164 0)
(-3.92375e-05 0.000458526 0)
(-3.34806e-05 0.000386224 0)
(-2.84989e-05 0.000324612 0)
(-2.41999e-05 0.000272236 0)
(-2.05002e-05 0.000227819 0)
(-1.73249e-05 0.00019024 0)
(-1.4607e-05 0.000158523 0)
(-1.22868e-05 0.000131816 0)
(-1.03112e-05 0.000109379 0)
(-8.63348e-06 9.05738e-05 0)
(-7.21236e-06 7.48476e-05 0)
(-6.01164e-06 6.17262e-05 0)
(-4.99969e-06 5.08025e-05 0)
(-4.14895e-06 4.17286e-05 0)
(-3.43548e-06 3.42078e-05 0)
(-2.83858e-06 2.79876e-05 0)
(-2.34041e-06 2.28541e-05 0)
(-1.9256e-06 1.86265e-05 0)
(-1.58102e-06 1.51522e-05 0)
(-1.29544e-06 1.23028e-05 0)
(-1.05929e-06 9.97073e-06 0)
(-8.64448e-07 8.06591e-06 0)
(-7.04047e-07 6.51315e-06 0)
(-5.72287e-07 5.24989e-06 0)
(-4.64286e-07 4.22414e-06 0)
(-3.75948e-07 3.39286e-06 0)
(-3.03843e-07 2.72044e-06 0)
(-2.4511e-07 2.17756e-06 0)
(-1.97367e-07 1.74006e-06 0)
(-1.58635e-07 1.38814e-06 0)
(-1.27275e-07 1.10556e-06 0)
(-1.01934e-07 8.79066e-07 0)
(-8.14959e-08 6.97846e-07 0)
(-6.50433e-08 5.53101e-07 0)
(-5.18237e-08 4.37688e-07 0)
(-4.12215e-08 3.45818e-07 0)
(-3.27339e-08 2.72811e-07 0)
(-2.59514e-08 2.1489e-07 0)
(-2.05409e-08 1.69012e-07 0)
(-1.62325e-08 1.32731e-07 0)
(-1.28075e-08 1.04086e-07 0)
(-1.00894e-08 8.15039e-08 0)
(-7.93602e-09 6.37299e-08 0)
(-6.23273e-09 4.97615e-08 0)
(-4.88768e-09 3.88003e-08 0)
(-3.82723e-09 3.02118e-08 0)
(-2.99248e-09 2.34922e-08 0)
(-2.33642e-09 1.82425e-08 0)
(-1.82159e-09 1.4147e-08 0)
(-1.41821e-09 1.09565e-08 0)
(-1.10261e-09 8.47444e-09 0)
(-8.56074e-10 6.54622e-09 0)
(-6.63759e-10 5.0503e-09 0)
(-5.13962e-10 3.8913e-09 0)
(-3.97437e-10 2.99455e-09 0)
(-3.06933e-10 2.30162e-09 0)
(-2.3673e-10 1.76687e-09 0)
(-1.82352e-10 1.35473e-09 0)
(-1.4029e-10 1.03749e-09 0)
(-1.07793e-10 7.93599e-10 0)
(-8.27243e-11 6.06334e-10 0)
(-6.34073e-11 4.62716e-10 0)
(-4.85464e-11 3.5271e-10 0)
(-3.71181e-11 2.68546e-10 0)
(-2.83534e-11 2.04228e-10 0)
(-2.16328e-11 1.55137e-10 0)
(-1.64933e-11 1.17694e-10 0)
(-1.25591e-11 8.91731e-11 0)
(-9.55986e-12 6.74595e-11 0)
(-7.27202e-12 5.09399e-11 0)
(-5.534e-12 3.83715e-11 0)
(-4.22156e-12 2.87976e-11 0)
(-3.22597e-12 2.14914e-11 0)
(-2.48355e-12 1.58922e-11 0)
(-1.93838e-12 1.15526e-11 0)
(-1.54542e-12 8.14025e-12 0)
(-1.26585e-12 5.38179e-12 0)
(-1.09655e-12 3.06599e-12 0)
(-1.01578e-12 9.92486e-13 0)
(-0.00184145 0.00998696 0)
(-0.00165719 0.00882352 0)
(-0.00148757 0.00777788 0)
(-0.00133191 0.00684053 0)
(-0.00118949 0.00600241 0)
(-0.00105957 0.0052549 0)
(-0.000941456 0.00458994 0)
(-0.000834361 0.00399991 0)
(-0.000737515 0.00347773 0)
(-0.000650251 0.00301678 0)
(-0.000571866 0.00261091 0)
(-0.000501645 0.00225446 0)
(-0.000438911 0.00194221 0)
(-0.000383033 0.00166938 0)
(-0.000333418 0.00143161 0)
(-0.000289498 0.00122492 0)
(-0.000250734 0.0010457 0)
(-0.000216617 0.000890685 0)
(-0.000186675 0.000756942 0)
(-0.000160471 0.000641841 0)
(-0.000137603 0.000543029 0)
(-0.000117702 0.000458412 0)
(-0.000100433 0.000386129 0)
(-8.54895e-05 0.000324532 0)
(-7.25935e-05 0.000272169 0)
(-6.14954e-05 0.000227762 0)
(-5.19704e-05 0.000190194 0)
(-4.38174e-05 0.000158484 0)
(-3.68572e-05 0.000131784 0)
(-3.09311e-05 0.000109352 0)
(-2.58983e-05 9.05515e-05 0)
(-2.16353e-05 7.48292e-05 0)
(-1.80335e-05 6.1711e-05 0)
(-1.49979e-05 5.079e-05 0)
(-1.24458e-05 4.17184e-05 0)
(-1.03056e-05 3.41994e-05 0)
(-8.51505e-06 2.79807e-05 0)
(-7.02064e-06 2.28485e-05 0)
(-5.77634e-06 1.8622e-05 0)
(-4.74269e-06 1.51485e-05 0)
(-3.88601e-06 1.22998e-05 0)
(-3.17761e-06 9.9683e-06 0)
(-2.59313e-06 8.06394e-06 0)
(-2.11197e-06 6.51157e-06 0)
(-1.71672e-06 5.24861e-06 0)
(-1.39275e-06 4.22312e-06 0)
(-1.12775e-06 3.39204e-06 0)
(-9.11456e-07 2.71979e-06 0)
(-7.35273e-07 2.17703e-06 0)
(-5.92055e-07 1.73964e-06 0)
(-4.75867e-07 1.3878e-06 0)
(-3.81796e-07 1.10529e-06 0)
(-3.05778e-07 8.78857e-07 0)
(-2.44469e-07 6.97681e-07 0)
(-1.95115e-07 5.52971e-07 0)
(-1.55459e-07 4.37585e-07 0)
(-1.23655e-07 3.45738e-07 0)
(-9.81944e-08 2.72748e-07 0)
(-7.78483e-08 2.1484e-07 0)
(-6.16181e-08 1.68973e-07 0)
(-4.86938e-08 1.32701e-07 0)
(-3.84197e-08 1.04062e-07 0)
(-3.02661e-08 8.14855e-08 0)
(-2.38063e-08 6.37157e-08 0)
(-1.86969e-08 4.97505e-08 0)
(-1.4662e-08 3.87918e-08 0)
(-1.14809e-08 3.02052e-08 0)
(-8.97683e-09 2.34872e-08 0)
(-7.00879e-09 1.82386e-08 0)
(-5.46442e-09 1.4144e-08 0)
(-4.25435e-09 1.09542e-08 0)
(-3.30764e-09 8.4727e-09 0)
(-2.56807e-09 6.5449e-09 0)
(-1.99116e-09 5.04928e-09 0)
(-1.54179e-09 3.89054e-09 0)
(-1.19225e-09 2.99397e-09 0)
(-9.20744e-10 2.30118e-09 0)
(-7.10154e-10 1.76654e-09 0)
(-5.47031e-10 1.35448e-09 0)
(-4.20845e-10 1.0373e-09 0)
(-3.23364e-10 7.93459e-10 0)
(-2.48162e-10 6.06227e-10 0)
(-1.90213e-10 4.62638e-10 0)
(-1.45625e-10 3.52653e-10 0)
(-1.1136e-10 2.68504e-10 0)
(-8.50587e-11 2.04196e-10 0)
(-6.48983e-11 1.55107e-10 0)
(-4.94721e-11 1.17679e-10 0)
(-3.76756e-11 8.91591e-11 0)
(-2.86749e-11 6.74518e-11 0)
(-2.18176e-11 5.09352e-11 0)
(-1.66067e-11 3.83653e-11 0)
(-1.26585e-11 2.87945e-11 0)
(-9.67946e-12 2.14914e-11 0)
(-7.45374e-12 1.5886e-11 0)
(-5.81202e-12 1.1551e-11 0)
(-4.6285e-12 8.1418e-12 0)
(-3.80531e-12 5.388e-12 0)
(-3.29276e-12 3.06754e-12 0)
(-3.0458e-12 9.95593e-13 0)
(-0.00306856 0.00998202 0)
(-0.00276152 0.00881915 0)
(-0.00247888 0.00777405 0)
(-0.00221948 0.00683716 0)
(-0.00198217 0.00599944 0)
(-0.00176568 0.0052523 0)
(-0.00156883 0.00458767 0)
(-0.00139036 0.00399794 0)
(-0.00122899 0.00347602 0)
(-0.00108358 0.00301529 0)
(-0.000952959 0.00260962 0)
(-0.000835935 0.00225334 0)
(-0.000731392 0.00194125 0)
(-0.000638281 0.00166856 0)
(-0.000555606 0.00143091 0)
(-0.00048242 0.00122432 0)
(-0.000417823 0.00104519 0)
(-0.00036097 0.000890245 0)
(-0.000311074 0.000756568 0)
(-0.000267407 0.000641523 0)
(-0.0002293 0.00054276 0)
(-0.000196138 0.000458185 0)
(-0.000167361 0.000385938 0)
(-0.000142459 0.000324371 0)
(-0.000120969 0.000272034 0)
(-0.000102475 0.00022765 0)
(-8.6603e-05 0.0001901 0)
(-7.30169e-05 0.000158406 0)
(-6.14186e-05 0.000131719 0)
(-5.15433e-05 0.000109299 0)
(-4.31568e-05 9.05069e-05 0)
(-3.60529e-05 7.47923e-05 0)
(-3.00508e-05 6.16806e-05 0)
(-2.49923e-05 5.0765e-05 0)
(-2.07396e-05 4.16978e-05 0)
(-1.71732e-05 3.41825e-05 0)
(-1.41894e-05 2.79669e-05 0)
(-1.16991e-05 2.28373e-05 0)
(-9.62565e-06 1.86128e-05 0)
(-7.90318e-06 1.5141e-05 0)
(-6.47562e-06 1.22938e-05 0)
(-5.29514e-06 9.96342e-06 0)
(-4.32118e-06 8.06e-06 0)
(-3.51937e-06 6.50839e-06 0)
(-2.86074e-06 5.24605e-06 0)
(-2.32086e-06 4.22106e-06 0)
(-1.87928e-06 3.39039e-06 0)
(-1.51885e-06 2.71847e-06 0)
(-1.22525e-06 2.17598e-06 0)
(-9.86597e-07 1.7388e-06 0)
(-7.92983e-07 1.38713e-06 0)
(-6.36223e-07 1.10476e-06 0)
(-5.09548e-07 8.78434e-07 0)
(-4.07382e-07 6.97346e-07 0)
(-3.25139e-07 5.52706e-07 0)
(-2.59057e-07 4.37377e-07 0)
(-2.06059e-07 3.45573e-07 0)
(-1.63631e-07 2.72619e-07 0)
(-1.29726e-07 2.14739e-07 0)
(-1.02681e-07 1.68893e-07 0)
(-8.11435e-08 1.32639e-07 0)
(-6.40227e-08 1.04013e-07 0)
(-5.04357e-08 8.14477e-08 0)
(-3.96711e-08 6.36863e-08 0)
(-3.11566e-08 4.97276e-08 0)
(-2.44329e-08 3.87741e-08 0)
(-1.91319e-08 3.01915e-08 0)
(-1.49591e-08 2.34766e-08 0)
(-1.16795e-08 1.82304e-08 0)
(-9.106e-09 1.41377e-08 0)
(-7.08952e-09 1.09494e-08 0)
(-5.51192e-09 8.46899e-09 0)
(-4.27949e-09 6.54206e-09 0)
(-3.31812e-09 5.04711e-09 0)
(-2.56928e-09 3.88887e-09 0)
(-1.9868e-09 2.99271e-09 0)
(-1.53436e-09 2.30022e-09 0)
(-1.18342e-09 1.76581e-09 0)
(-9.1159e-10 1.35393e-09 0)
(-7.01313e-10 1.03688e-09 0)
(-5.3887e-10 7.93139e-10 0)
(-4.13544e-10 6.05987e-10 0)
(-3.16982e-10 4.6246e-10 0)
(-2.42681e-10 3.52517e-10 0)
(-1.85576e-10 2.68403e-10 0)
(-1.41747e-10 2.04124e-10 0)
(-1.08153e-10 1.55051e-10 0)
(-8.24385e-11 1.17637e-10 0)
(-6.2786e-11 8.91296e-11 0)
(-4.77853e-11 6.74269e-11 0)
(-3.6357e-11 5.09181e-11 0)
(-2.76762e-11 3.83528e-11 0)
(-2.10938e-11 2.87852e-11 0)
(-1.61376e-11 2.14821e-11 0)
(-1.24239e-11 1.58767e-11 0)
(-9.68412e-12 1.15448e-11 0)
(-7.70846e-12 8.13248e-12 0)
(-6.34011e-12 5.38334e-12 0)
(-5.48896e-12 3.06288e-12 0)
(-5.07581e-12 9.95593e-13 0)
(-0.00429493 0.00997464 0)
(-0.00386516 0.00881261 0)
(-0.00346957 0.00776829 0)
(-0.00310651 0.00683209 0)
(-0.00277435 0.00599499 0)
(-0.00247135 0.00524842 0)
(-0.00219582 0.00458428 0)
(-0.00194601 0.00399498 0)
(-0.00172017 0.00347344 0)
(-0.00151665 0.00301305 0)
(-0.00133382 0.00260768 0)
(-0.00117002 0.00225167 0)
(-0.00102369 0.00193981 0)
(-0.00089337 0.00166733 0)
(-0.000777657 0.00142985 0)
(-0.000675223 0.00122342 0)
(-0.00058481 0.00104441 0)
(-0.000505235 0.000889585 0)
(-0.000435397 0.000756006 0)
(-0.000374278 0.000641047 0)
(-0.000320941 0.000542358 0)
(-0.000274525 0.000457846 0)
(-0.000234247 0.000385652 0)
(-0.000199393 0.000324131 0)
(-0.000169315 0.000271833 0)
(-0.00014343 0.000227481 0)
(-0.000121214 0.000189959 0)
(-0.000102198 0.000158289 0)
(-8.59648e-05 0.000131621 0)
(-7.21428e-05 0.000109218 0)
(-6.04046e-05 9.044e-05 0)
(-5.04616e-05 7.4737e-05 0)
(-4.20608e-05 6.1635e-05 0)
(-3.49806e-05 5.07275e-05 0)
(-2.90283e-05 4.1667e-05 0)
(-2.40365e-05 3.41573e-05 0)
(-1.98603e-05 2.79463e-05 0)
(-1.63748e-05 2.28204e-05 0)
(-1.34726e-05 1.85991e-05 0)
(-1.10617e-05 1.51299e-05 0)
(-9.06363e-06 1.22847e-05 0)
(-7.41138e-06 9.95609e-06 0)
(-6.04816e-06 8.05408e-06 0)
(-4.92591e-06 6.50361e-06 0)
(-4.00405e-06 5.24221e-06 0)
(-3.24841e-06 4.21797e-06 0)
(-2.63035e-06 3.38791e-06 0)
(-2.12586e-06 2.71648e-06 0)
(-1.71494e-06 2.17439e-06 0)
(-1.3809e-06 1.73754e-06 0)
(-1.10991e-06 1.38613e-06 0)
(-8.90495e-07 1.10396e-06 0)
(-7.13194e-07 8.77799e-07 0)
(-5.70196e-07 6.96843e-07 0)
(-4.55084e-07 5.52308e-07 0)
(-3.62592e-07 4.37063e-07 0)
(-2.88413e-07 3.45326e-07 0)
(-2.29029e-07 2.72424e-07 0)
(-1.81574e-07 2.14586e-07 0)
(-1.43718e-07 1.68774e-07 0)
(-1.13574e-07 1.32545e-07 0)
(-8.96105e-08 1.0394e-07 0)
(-7.05933e-08 8.13906e-08 0)
(-5.55264e-08 6.36419e-08 0)
(-4.36091e-08 4.96931e-08 0)
(-3.41981e-08 3.87473e-08 0)
(-2.67784e-08 3.01708e-08 0)
(-2.09379e-08 2.34605e-08 0)
(-1.63476e-08 1.8218e-08 0)
(-1.27455e-08 1.41282e-08 0)
(-9.92309e-09 1.0942e-08 0)
(-7.71496e-09 8.46334e-09 0)
(-5.98995e-09 6.53772e-09 0)
(-4.64434e-09 5.04379e-09 0)
(-3.59619e-09 3.88634e-09 0)
(-2.78091e-09 2.99077e-09 0)
(-2.14764e-09 2.29874e-09 0)
(-1.65644e-09 1.76469e-09 0)
(-1.27596e-09 1.35307e-09 0)
(-9.81634e-10 1.03623e-09 0)
(-7.54258e-10 7.92649e-10 0)
(-5.78842e-10 6.05615e-10 0)
(-4.43683e-10 4.62177e-10 0)
(-3.3968e-10 3.52308e-10 0)
(-2.59755e-10 2.68248e-10 0)
(-1.98409e-10 2.04008e-10 0)
(-1.51388e-10 1.54968e-10 0)
(-1.15396e-10 1.17567e-10 0)
(-8.78839e-11 8.90768e-11 0)
(-6.68864e-11 6.73897e-11 0)
(-5.08902e-11 5.0887e-11 0)
(-3.87396e-11 3.83295e-11 0)
(-2.95307e-11 2.87697e-11 0)
(-2.25864e-11 2.14681e-11 0)
(-1.73895e-11 1.58736e-11 0)
(-1.35562e-11 1.15402e-11 0)
(-1.07884e-11 8.13248e-12 0)
(-8.87646e-12 5.37868e-12 0)
(-7.68206e-12 3.06133e-12 0)
(-7.10427e-12 9.92486e-13 0)
(-0.00552025 0.0099648 0)
(-0.00496787 0.00880391 0)
(-0.0044594 0.00776061 0)
(-0.00399277 0.00682534 0)
(-0.00356584 0.00598907 0)
(-0.0031764 0.00524323 0)
(-0.00282226 0.00457975 0)
(-0.00250119 0.00399104 0)
(-0.00221092 0.00347001 0)
(-0.00194935 0.00301008 0)
(-0.00171434 0.00260511 0)
(-0.00150381 0.00224945 0)
(-0.00131574 0.0019379 0)
(-0.00114824 0.00166568 0)
(-0.000999516 0.00142844 0)
(-0.00086786 0.00122221 0)
(-0.000751653 0.00104338 0)
(-0.000649375 0.000888706 0)
(-0.000559612 0.000755259 0)
(-0.000481056 0.000640413 0)
(-0.000412502 0.000541821 0)
(-0.000352844 0.000457393 0)
(-0.000301076 0.00038527 0)
(-0.000256278 0.000323811 0)
(-0.000217619 0.000271564 0)
(-0.000184349 0.000227257 0)
(-0.000155796 0.000189771 0)
(-0.000131355 0.000158133 0)
(-0.00011049 0.000131491 0)
(-9.27244e-05 0.00010911 0)
(-7.76374e-05 9.03507e-05 0)
(-6.48579e-05 7.46633e-05 0)
(-5.40603e-05 6.15742e-05 0)
(-4.49603e-05 5.06775e-05 0)
(-3.73098e-05 4.1626e-05 0)
(-3.08939e-05 3.41236e-05 0)
(-2.55263e-05 2.79188e-05 0)
(-2.10464e-05 2.2798e-05 0)
(-1.73162e-05 1.85808e-05 0)
(-1.42176e-05 1.5115e-05 0)
(-1.16494e-05 1.22726e-05 0)
(-9.52579e-06 9.94632e-06 0)
(-7.77366e-06 8.04617e-06 0)
(-6.33124e-06 6.49724e-06 0)
(-5.14638e-06 5.23707e-06 0)
(-4.17516e-06 4.21384e-06 0)
(-3.38077e-06 3.3846e-06 0)
(-2.73236e-06 2.71383e-06 0)
(-2.2042e-06 2.17227e-06 0)
(-1.77486e-06 1.73584e-06 0)
(-1.42656e-06 1.38478e-06 0)
(-1.14455e-06 1.10289e-06 0)
(-9.16666e-07 8.76949e-07 0)
(-7.32872e-07 6.96169e-07 0)
(-5.84919e-07 5.51776e-07 0)
(-4.6604e-07 4.36642e-07 0)
(-3.70697e-07 3.44994e-07 0)
(-2.94371e-07 2.72163e-07 0)
(-2.33377e-07 2.14381e-07 0)
(-1.84722e-07 1.68613e-07 0)
(-1.45977e-07 1.32419e-07 0)
(-1.15177e-07 1.03842e-07 0)
(-9.07341e-08 8.13139e-08 0)
(-7.13686e-08 6.3582e-08 0)
(-5.60512e-08 4.96466e-08 0)
(-4.39553e-08 3.87112e-08 0)
(-3.44187e-08 3.01428e-08 0)
(-2.69118e-08 2.34388e-08 0)
(-2.10119e-08 1.82013e-08 0)
(-1.6382e-08 1.41152e-08 0)
(-1.27544e-08 1.0932e-08 0)
(-9.91622e-09 8.45568e-09 0)
(-7.69904e-09 6.53184e-09 0)
(-5.9695e-09 5.03928e-09 0)
(-4.6223e-09 3.88289e-09 0)
(-3.57439e-09 2.98813e-09 0)
(-2.76044e-09 2.29672e-09 0)
(-2.12909e-09 1.76315e-09 0)
(-1.64004e-09 1.35191e-09 0)
(-1.26174e-09 1.03535e-09 0)
(-9.69487e-10 7.91979e-10 0)
(-7.44015e-10 6.05107e-10 0)
(-5.7029e-10 4.61795e-10 0)
(-4.3661e-10 3.52014e-10 0)
(-3.33878e-10 2.68024e-10 0)
(-2.55029e-10 2.0384e-10 0)
(-1.94591e-10 1.5484e-10 0)
(-1.48329e-10 1.17477e-10 0)
(-1.12963e-10 8.901e-11 0)
(-8.59751e-11 6.73384e-11 0)
(-6.54171e-11 5.08482e-11 0)
(-4.97936e-11 3.83031e-11 0)
(-3.79552e-11 2.87464e-11 0)
(-2.90322e-11 2.14573e-11 0)
(-2.2355e-11 1.58611e-11 0)
(-1.74252e-11 1.15309e-11 0)
(-1.38684e-11 8.12938e-12 0)
(-1.14128e-11 5.37558e-12 0)
(-9.87361e-12 3.06133e-12 0)
(-9.13118e-12 9.94039e-13 0)
(-0.00674421 0.00995248 0)
(-0.00606935 0.00879304 0)
(-0.00544814 0.00775102 0)
(-0.00487804 0.00681691 0)
(-0.00435646 0.00598168 0)
(-0.00388067 0.00523676 0)
(-0.00344801 0.00457409 0)
(-0.00305575 0.0039861 0)
(-0.00270113 0.00346572 0)
(-0.00238156 0.00300636 0)
(-0.00209444 0.00260189 0)
(-0.00183723 0.00224667 0)
(-0.00160746 0.0019355 0)
(-0.00140282 0.00166362 0)
(-0.00122113 0.00142668 0)
(-0.00106028 0.0012207 0)
(-0.000918311 0.00104209 0)
(-0.000793356 0.000887607 0)
(-0.00068369 0.000754325 0)
(-0.000587715 0.000639621 0)
(-0.000503961 0.000541151 0)
(-0.000431076 0.000456827 0)
(-0.000367829 0.000384794 0)
(-0.000313099 0.00032341 0)
(-0.000265869 0.000271229 0)
(-0.000225223 0.000226976 0)
(-0.000190338 0.000189537 0)
(-0.000160478 0.000157937 0)
(-0.000134987 0.000131329 0)
(-0.000113283 0.000108975 0)
(-9.48512e-05 9.02392e-05 0)
(-7.92381e-05 7.45712e-05 0)
(-6.60465e-05 6.14982e-05 0)
(-5.49288e-05 5.0615e-05 0)
(-4.55822e-05 4.15747e-05 0)
(-3.77437e-05 3.40816e-05 0)
(-3.11859e-05 2.78844e-05 0)
(-2.57128e-05 2.27699e-05 0)
(-2.11556e-05 1.85579e-05 0)
(-1.73699e-05 1.50964e-05 0)
(-1.42323e-05 1.22576e-05 0)
(-1.16379e-05 9.93409e-06 0)
(-9.49724e-06 8.03629e-06 0)
(-7.73501e-06 6.48926e-06 0)
(-6.28744e-06 5.23065e-06 0)
(-5.10089e-06 4.20868e-06 0)
(-4.13036e-06 3.38045e-06 0)
(-3.33819e-06 2.71051e-06 0)
(-2.69292e-06 2.16962e-06 0)
(-2.16839e-06 1.73373e-06 0)
(-1.74286e-06 1.38309e-06 0)
(-1.39833e-06 1.10155e-06 0)
(-1.11991e-06 8.75883e-07 0)
(-8.95369e-07 6.95325e-07 0)
(-7.14611e-07 5.51108e-07 0)
(-5.69374e-07 4.36114e-07 0)
(-4.52892e-07 3.44578e-07 0)
(-3.59642e-07 2.71836e-07 0)
(-2.85124e-07 2.14124e-07 0)
(-2.25681e-07 1.68411e-07 0)
(-1.78345e-07 1.32261e-07 0)
(-1.40716e-07 1.03718e-07 0)
(-1.10853e-07 8.12172e-08 0)
(-8.71937e-08 6.35067e-08 0)
(-6.84799e-08 4.95879e-08 0)
(-5.3702e-08 3.86656e-08 0)
(-4.20508e-08 3.01074e-08 0)
(-3.28794e-08 2.34114e-08 0)
(-2.56712e-08 1.81801e-08 0)
(-2.00147e-08 1.40989e-08 0)
(-1.55827e-08 1.09194e-08 0)
(-1.21152e-08 8.44596e-09 0)
(-9.40635e-09 6.52437e-09 0)
(-7.29329e-09 5.03355e-09 0)
(-5.64734e-09 3.87849e-09 0)
(-4.36707e-09 2.98477e-09 0)
(-3.37262e-09 2.29416e-09 0)
(-2.60126e-09 1.76119e-09 0)
(-2.00376e-09 1.35041e-09 0)
(-1.54156e-09 1.03421e-09 0)
(-1.1845e-09 7.91112e-10 0)
(-9.09024e-10 6.04449e-10 0)
(-6.96777e-10 4.61295e-10 0)
(-5.3345e-10 3.5164e-10 0)
(-4.07929e-10 2.67741e-10 0)
(-3.11594e-10 2.03621e-10 0)
(-2.37749e-10 1.54679e-10 0)
(-1.81227e-10 1.17356e-10 0)
(-1.38022e-10 8.89184e-11 0)
(-1.05048e-10 6.72685e-11 0)
(-7.9927e-11 5.07939e-11 0)
(-6.08383e-11 3.82612e-11 0)
(-4.63781e-11 2.872e-11 0)
(-3.54717e-11 2.14309e-11 0)
(-2.73159e-11 1.58425e-11 0)
(-2.12911e-11 1.152e-11 0)
(-1.69422e-11 8.11695e-12 0)
(-1.39461e-11 5.37092e-12 0)
(-1.20605e-11 3.05512e-12 0)
(-1.11581e-11 9.92486e-13 0)
(-0.0079665 0.00993771 0)
(-0.00716933 0.00877999 0)
(-0.00643553 0.00773952 0)
(-0.00576211 0.0068068 0)
(-0.005146 0.0059728 0)
(-0.00458398 0.00522899 0)
(-0.00407291 0.0045673 0)
(-0.00360956 0.00398019 0)
(-0.00319067 0.00346058 0)
(-0.00281318 0.00300189 0)
(-0.00247403 0.00259803 0)
(-0.00217019 0.00224334 0)
(-0.00189878 0.00193263 0)
(-0.00165706 0.00166116 0)
(-0.00144244 0.00142456 0)
(-0.00125245 0.00121889 0)
(-0.00108474 0.00104054 0)
(-0.00093714 0.000886289 0)
(-0.000807598 0.000753205 0)
(-0.00069423 0.000638671 0)
(-0.000595295 0.000540348 0)
(-0.000509202 0.000456149 0)
(-0.000434492 0.000384223 0)
(-0.000369843 0.00032293 0)
(-0.000314053 0.000270826 0)
(-0.000266041 0.000226639 0)
(-0.000224834 0.000189256 0)
(-0.000189563 0.000157703 0)
(-0.000159452 0.000131134 0)
(-0.000133814 0.000108814 0)
(-0.000112041 9.01054e-05 0)
(-9.35988e-05 7.44606e-05 0)
(-7.80165e-05 6.14071e-05 0)
(-6.48838e-05 5.054e-05 0)
(-5.38433e-05 4.15131e-05 0)
(-4.45842e-05 3.40311e-05 0)
(-3.68379e-05 2.78431e-05 0)
(-3.03728e-05 2.27362e-05 0)
(-2.49897e-05 1.85305e-05 0)
(-2.05179e-05 1.50741e-05 0)
(-1.68117e-05 1.22394e-05 0)
(-1.3747e-05 9.91942e-06 0)
(-1.12185e-05 8.02443e-06 0)
(-9.13688e-06 6.47969e-06 0)
(-7.42696e-06 5.22294e-06 0)
(-6.02536e-06 4.20248e-06 0)
(-4.87894e-06 3.37548e-06 0)
(-3.94319e-06 2.70653e-06 0)
(-3.18098e-06 2.16643e-06 0)
(-2.56139e-06 1.73118e-06 0)
(-2.05874e-06 1.38106e-06 0)
(-1.65176e-06 1.09994e-06 0)
(-1.32289e-06 8.74603e-07 0)
(-1.05765e-06 6.9431e-07 0)
(-8.44129e-07 5.50304e-07 0)
(-6.72569e-07 4.35479e-07 0)
(-5.34976e-07 3.44077e-07 0)
(-4.24825e-07 2.71441e-07 0)
(-3.36802e-07 2.13814e-07 0)
(-2.66585e-07 1.68168e-07 0)
(-2.1067e-07 1.3207e-07 0)
(-1.66221e-07 1.03569e-07 0)
(-1.30945e-07 8.11007e-08 0)
(-1.02998e-07 6.34158e-08 0)
(-8.08923e-08 4.95172e-08 0)
(-6.34358e-08 3.86106e-08 0)
(-4.96729e-08 3.00647e-08 0)
(-3.88391e-08 2.33783e-08 0)
(-3.03244e-08 1.81545e-08 0)
(-2.36427e-08 1.40791e-08 0)
(-1.84073e-08 1.09042e-08 0)
(-1.43113e-08 8.43419e-09 0)
(-1.11115e-08 6.5153e-09 0)
(-8.61538e-09 5.02659e-09 0)
(-6.67108e-09 3.87315e-09 0)
(-5.15873e-09 2.98067e-09 0)
(-3.98402e-09 2.29102e-09 0)
(-3.07283e-09 1.7588e-09 0)
(-2.36702e-09 1.34859e-09 0)
(-1.82104e-09 1.03282e-09 0)
(-1.39925e-09 7.90058e-10 0)
(-1.07383e-09 6.03649e-10 0)
(-8.231e-10 4.60686e-10 0)
(-6.30163e-10 3.5118e-10 0)
(-4.81895e-10 2.67393e-10 0)
(-3.68091e-10 2.03363e-10 0)
(-2.8086e-10 1.5448e-10 0)
(-2.14088e-10 1.172e-10 0)
(-1.63049e-10 8.8805e-11 0)
(-1.24098e-10 6.71862e-11 0)
(-9.44244e-11 5.07348e-11 0)
(-7.18722e-11 3.82146e-11 0)
(-5.47855e-11 2.86842e-11 0)
(-4.19065e-11 2.1406e-11 0)
(-3.22674e-11 1.5827e-11 0)
(-2.51492e-11 1.15045e-11 0)
(-2.00159e-11 8.11074e-12 0)
(-1.64746e-11 5.36626e-12 0)
(-1.42536e-11 3.05512e-12 0)
(-1.31803e-11 9.8938e-13 0)
(-0.00918682 0.00992049 0)
(-0.00826754 0.00876478 0)
(-0.00742134 0.00772611 0)
(-0.00664476 0.006795 0)
(-0.00593427 0.00596245 0)
(-0.00528617 0.00521992 0)
(-0.00469681 0.00455939 0)
(-0.00416248 0.00397329 0)
(-0.00367942 0.00345458 0)
(-0.00324411 0.00299669 0)
(-0.002853 0.00259353 0)
(-0.00250262 0.00223945 0)
(-0.00218964 0.00192928 0)
(-0.0019109 0.00165828 0)
(-0.0016634 0.00142209 0)
(-0.0014443 0.00121677 0)
(-0.00125091 0.00103874 0)
(-0.00108069 0.000884753 0)
(-0.000931308 0.000751899 0)
(-0.000800572 0.000637564 0)
(-0.000686483 0.000539411 0)
(-0.000587201 0.000455358 0)
(-0.000501048 0.000383557 0)
(-0.000426496 0.000322371 0)
(-0.00036216 0.000270357 0)
(-0.000306793 0.000226246 0)
(-0.000259274 0.000188928 0)
(-0.0002186 0.00015743 0)
(-0.000183877 0.000130907 0)
(-0.000154312 0.000108625 0)
(-0.000129204 8.99494e-05 0)
(-0.000107936 7.43317e-05 0)
(-8.99672e-05 6.13008e-05 0)
(-7.48229e-05 5.04525e-05 0)
(-6.20911e-05 4.14413e-05 0)
(-5.14137e-05 3.39723e-05 0)
(-4.24808e-05 2.7795e-05 0)
(-3.50254e-05 2.26969e-05 0)
(-2.88177e-05 1.84985e-05 0)
(-2.36609e-05 1.50481e-05 0)
(-1.9387e-05 1.22183e-05 0)
(-1.58529e-05 9.9023e-06 0)
(-1.2937e-05 8.01059e-06 0)
(-1.05365e-05 6.46852e-06 0)
(-8.56465e-06 5.21394e-06 0)
(-6.94835e-06 4.19525e-06 0)
(-5.62632e-06 3.36967e-06 0)
(-4.54723e-06 2.70187e-06 0)
(-3.66827e-06 2.16271e-06 0)
(-2.95376e-06 1.72821e-06 0)
(-2.37411e-06 1.3787e-06 0)
(-1.90479e-06 1.09805e-06 0)
(-1.52554e-06 8.73106e-07 0)
(-1.21967e-06 6.93123e-07 0)
(-9.73441e-07 5.49365e-07 0)
(-7.756e-07 4.34737e-07 0)
(-6.1693e-07 3.43492e-07 0)
(-4.89905e-07 2.7098e-07 0)
(-3.88398e-07 2.13451e-07 0)
(-3.07424e-07 1.67883e-07 0)
(-2.42944e-07 1.31847e-07 0)
(-1.91685e-07 1.03394e-07 0)
(-1.51006e-07 8.09642e-08 0)
(-1.18777e-07 6.33093e-08 0)
(-9.32852e-08 4.94342e-08 0)
(-7.31545e-08 3.8546e-08 0)
(-5.72831e-08 3.00145e-08 0)
(-4.47896e-08 2.33394e-08 0)
(-3.49704e-08 1.81244e-08 0)
(-2.7265e-08 1.40558e-08 0)
(-2.12275e-08 1.08862e-08 0)
(-1.6504e-08 8.42033e-09 0)
(-1.28139e-08 6.50464e-09 0)
(-9.93545e-09 5.01838e-09 0)
(-7.69326e-09 3.86685e-09 0)
(-5.94919e-09 2.97584e-09 0)
(-4.59449e-09 2.28733e-09 0)
(-3.5437e-09 1.75597e-09 0)
(-2.72974e-09 1.34643e-09 0)
(-2.10009e-09 1.03118e-09 0)
(-1.61367e-09 7.88804e-10 0)
(-1.23839e-09 6.027e-10 0)
(-9.49245e-10 4.59967e-10 0)
(-7.26742e-10 3.50627e-10 0)
(-5.55746e-10 2.66979e-10 0)
(-4.24506e-10 2.0305e-10 0)
(-3.23911e-10 1.54245e-10 0)
(-2.46902e-10 1.17028e-10 0)
(-1.88041e-10 8.86683e-11 0)
(-1.43118e-10 6.70806e-11 0)
(-1.08899e-10 5.06556e-11 0)
(-8.28873e-11 3.81587e-11 0)
(-6.31852e-11 2.86392e-11 0)
(-4.83321e-11 2.13734e-11 0)
(-3.72143e-11 1.58006e-11 0)
(-2.90073e-11 1.14889e-11 0)
(-2.30835e-11 8.09676e-12 0)
(-1.90001e-11 5.35849e-12 0)
(-1.64389e-11 3.04891e-12 0)
(-1.5201e-11 9.90933e-13 0)
(-0.0104049 0.00990082 0)
(-0.00936371 0.00874741 0)
(-0.00840531 0.00771079 0)
(-0.00752578 0.00678153 0)
(-0.00672108 0.00595063 0)
(-0.00598705 0.00520958 0)
(-0.00531955 0.00455035 0)
(-0.00471436 0.00396541 0)
(-0.00416727 0.00344773 0)
(-0.00367424 0.00299075 0)
(-0.00323127 0.00258839 0)
(-0.00283443 0.00223501 0)
(-0.00247995 0.00192546 0)
(-0.00216426 0.00165499 0)
(-0.00188395 0.00141927 0)
(-0.0016358 0.00121436 0)
(-0.00141676 0.00103668 0)
(-0.00122398 0.000882999 0)
(-0.00105479 0.000750408 0)
(-0.000906718 0.0006363 0)
(-0.000777501 0.000538342 0)
(-0.000665056 0.000454455 0)
(-0.00056748 0.000382796 0)
(-0.000483043 0.000321732 0)
(-0.000410178 0.000269821 0)
(-0.00034747 0.000225798 0)
(-0.000293651 0.000188553 0)
(-0.000247584 0.000157118 0)
(-0.000208257 0.000130647 0)
(-0.000174772 0.00010841 0)
(-0.000146335 8.97712e-05 0)
(-0.000122247 7.41845e-05 0)
(-0.000101896 6.11794e-05 0)
(-8.47434e-05 5.03526e-05 0)
(-7.03235e-05 4.13592e-05 0)
(-5.82305e-05 3.3905e-05 0)
(-4.81133e-05 2.774e-05 0)
(-3.96693e-05 2.2652e-05 0)
(-3.26386e-05 1.84619e-05 0)
(-2.67981e-05 1.50183e-05 0)
(-2.19575e-05 1.21942e-05 0)
(-1.79548e-05 9.88274e-06 0)
(-1.46523e-05 7.99477e-06 0)
(-1.19335e-05 6.45575e-06 0)
(-9.70023e-06 5.20366e-06 0)
(-7.86963e-06 4.18698e-06 0)
(-6.37232e-06 3.36303e-06 0)
(-5.15015e-06 2.69655e-06 0)
(-4.15465e-06 2.15846e-06 0)
(-3.3454e-06 1.72481e-06 0)
(-2.6889e-06 1.37599e-06 0)
(-2.15735e-06 1.0959e-06 0)
(-1.72782e-06 8.71394e-07 0)
(-1.38139e-06 6.91766e-07 0)
(-1.10252e-06 5.4829e-07 0)
(-8.78442e-07 4.33888e-07 0)
(-6.98733e-07 3.42821e-07 0)
(-5.54866e-07 2.70452e-07 0)
(-4.39899e-07 2.13036e-07 0)
(-3.48189e-07 1.67557e-07 0)
(-2.75159e-07 1.31591e-07 0)
(-2.17103e-07 1.03194e-07 0)
(-1.7103e-07 8.08076e-08 0)
(-1.34528e-07 6.31871e-08 0)
(-1.05656e-07 4.9339e-08 0)
(-8.28555e-08 3.84719e-08 0)
(-6.48795e-08 2.9957e-08 0)
(-5.07293e-08 2.32948e-08 0)
(-3.96081e-08 1.80898e-08 0)
(-3.08809e-08 1.4029e-08 0)
(-2.40427e-08 1.08655e-08 0)
(-1.86928e-08 8.40438e-09 0)
(-1.45134e-08 6.49236e-09 0)
(-1.12532e-08 5.00893e-09 0)
(-8.71362e-09 3.8596e-09 0)
(-6.73825e-09 2.97028e-09 0)
(-5.20389e-09 2.28307e-09 0)
(-4.01373e-09 1.75271e-09 0)
(-3.09182e-09 1.34394e-09 0)
(-2.37866e-09 1.02928e-09 0)
(-1.82773e-09 7.8736e-10 0)
(-1.40267e-09 6.01597e-10 0)
(-1.07517e-09 4.59127e-10 0)
(-8.23152e-10 3.49995e-10 0)
(-6.29471e-10 2.66499e-10 0)
(-4.80826e-10 2.02685e-10 0)
(-3.66881e-10 1.53967e-10 0)
(-2.79667e-10 1.1682e-10 0)
(-2.12993e-10 8.85114e-11 0)
(-1.62109e-10 6.69672e-11 0)
(-1.23346e-10 5.05671e-11 0)
(-9.38886e-11 3.8095e-11 0)
(-7.15739e-11 2.8588e-11 0)
(-5.47436e-11 2.13392e-11 0)
(-4.21519e-11 1.57757e-11 0)
(-3.28546e-11 1.14703e-11 0)
(-2.61448e-11 8.08589e-12 0)
(-2.1521e-11 5.34917e-12 0)
(-1.86212e-11 3.0458e-12 0)
(-1.72217e-11 9.90933e-13 0)
(-0.0116204 0.00987871 0)
(-0.0104576 0.00872787 0)
(-0.00938721 0.00769357 0)
(-0.00840493 0.00676639 0)
(-0.00750623 0.00593734 0)
(-0.00668645 0.00519794 0)
(-0.00594097 0.00454019 0)
(-0.00526509 0.00395656 0)
(-0.00465408 0.00344004 0)
(-0.00410346 0.00298408 0)
(-0.00360875 0.00258261 0)
(-0.00316555 0.00223002 0)
(-0.00276966 0.00192116 0)
(-0.00241708 0.00165129 0)
(-0.00210403 0.0014161 0)
(-0.00182689 0.00121165 0)
(-0.00158227 0.00103436 0)
(-0.00136697 0.000881026 0)
(-0.00117801 0.000748732 0)
(-0.00101264 0.000634879 0)
(-0.000868328 0.000537139 0)
(-0.000742747 0.00045344 0)
(-0.000633772 0.000381941 0)
(-0.000539471 0.000321013 0)
(-0.000458094 0.000269218 0)
(-0.000388061 0.000225294 0)
(-0.000327955 0.000188132 0)
(-0.000276506 0.000156767 0)
(-0.000232585 0.000130356 0)
(-0.000195188 0.000108168 0)
(-0.00016343 8.95708e-05 0)
(-0.000136528 7.40189e-05 0)
(-0.000113799 6.10429e-05 0)
(-9.46431e-05 5.02403e-05 0)
(-7.85387e-05 4.1267e-05 0)
(-6.50329e-05 3.38294e-05 0)
(-5.37338e-05 2.76781e-05 0)
(-4.43035e-05 2.26015e-05 0)
(-3.64514e-05 1.84207e-05 0)
(-2.99286e-05 1.49849e-05 0)
(-2.45226e-05 1.2167e-05 0)
(-2.00523e-05 9.86074e-06 0)
(-1.6364e-05 7.97698e-06 0)
(-1.33276e-05 6.44139e-06 0)
(-1.08334e-05 5.19209e-06 0)
(-8.78898e-06 4.17767e-06 0)
(-7.11674e-06 3.35556e-06 0)
(-5.75181e-06 2.69057e-06 0)
(-4.64e-06 2.15367e-06 0)
(-3.73623e-06 1.72099e-06 0)
(-3.00303e-06 1.37294e-06 0)
(-2.40938e-06 1.09347e-06 0)
(-1.92967e-06 8.69467e-07 0)
(-1.54277e-06 6.90237e-07 0)
(-1.23132e-06 5.4708e-07 0)
(-9.81069e-07 4.32931e-07 0)
(-7.80365e-07 3.42066e-07 0)
(-6.19691e-07 2.69857e-07 0)
(-4.91293e-07 2.12567e-07 0)
(-3.88869e-07 1.67189e-07 0)
(-3.07307e-07 1.31303e-07 0)
(-2.42469e-07 1.02968e-07 0)
(-1.91013e-07 8.0631e-08 0)
(-1.50246e-07 6.30493e-08 0)
(-1.18e-07 4.92315e-08 0)
(-9.25364e-08 3.83883e-08 0)
(-7.24602e-08 2.9892e-08 0)
(-5.66568e-08 2.32443e-08 0)
(-4.42362e-08 1.80507e-08 0)
(-3.44893e-08 1.39988e-08 0)
(-2.68522e-08 1.08421e-08 0)
(-2.08772e-08 8.38635e-09 0)
(-1.62094e-08 6.47846e-09 0)
(-1.25682e-08 4.99825e-09 0)
(-9.73191e-09 3.85138e-09 0)
(-7.52572e-09 2.96398e-09 0)
(-5.81206e-09 2.27823e-09 0)
(-4.48282e-09 1.74902e-09 0)
(-3.45317e-09 1.34111e-09 0)
(-2.65667e-09 1.02712e-09 0)
(-2.04135e-09 7.85717e-10 0)
(-1.56663e-09 6.00342e-10 0)
(-1.20085e-09 4.58178e-10 0)
(-9.19371e-10 3.49276e-10 0)
(-7.03058e-10 2.65947e-10 0)
(-5.37036e-10 2.02267e-10 0)
(-4.09773e-10 1.53655e-10 0)
(-3.1236e-10 1.16581e-10 0)
(-2.37895e-10 8.83375e-11 0)
(-1.81064e-10 6.68305e-11 0)
(-1.37769e-10 5.04692e-11 0)
(-1.04866e-10 3.80158e-11 0)
(-7.9941e-11 2.85351e-11 0)
(-6.11427e-11 2.13004e-11 0)
(-4.70848e-11 1.57478e-11 0)
(-3.66956e-11 1.14516e-11 0)
(-2.92061e-11 8.07036e-12 0)
(-2.40402e-11 5.33675e-12 0)
(-2.07972e-11 3.04114e-12 0)
(-1.92362e-11 9.87827e-13 0)
(-0.012833 0.00985416 0)
(-0.0115488 0.00870618 0)
(-0.0103668 0.00767446 0)
(-0.00928201 0.00674957 0)
(-0.00828952 0.00592259 0)
(-0.0073842 0.00518503 0)
(-0.00656093 0.00452891 0)
(-0.00581452 0.00394673 0)
(-0.00513975 0.00343149 0)
(-0.00453167 0.00297666 0)
(-0.00398533 0.00257619 0)
(-0.00349588 0.00222448 0)
(-0.00305868 0.00191639 0)
(-0.00266931 0.00164719 0)
(-0.00232359 0.00141258 0)
(-0.00201754 0.00120864 0)
(-0.00174739 0.00103179 0)
(-0.00150961 0.000878837 0)
(-0.00130093 0.000746871 0)
(-0.00111831 0.000633301 0)
(-0.00095894 0.000535804 0)
(-0.000820254 0.000452313 0)
(-0.000699907 0.000380992 0)