/*--------------------------------*- C++ -*----------------------------------*\
| =========                 |                                                 |
| \\      /  F ield         | OpenFOAM: The Open Source CFD Toolbox           |
|  \\    /   O peration     | Version:  2406                                  |
|   \\  /    A nd           | Website:  www.openfoam.com                      |
|    \\/     M anipulation  |                                                 |
\*---------------------------------------------------------------------------*/
FoamFile
{
    version     2.0;
    format      ascii;
    arch        "LSB;label=32;scalar=64";
    class       volVectorField;
    location    "35";
    object      flux;
}
// * * * * * * * * * * * * * * * * * * * * * * * * * * * * * * * * * * * * * //

dimensions      [0 1 -1 1 0 0 0];

internalField   nonuniform List<vector> 
20000
(
(-0.00149493 0.0416418 0)
(-0.00140969 0.038739 0)
(-0.00132776 0.0360034 0)
(-0.00124913 0.0334283 0)
(-0.00117384 0.0310071 0)
(-0.0011018 0.0287333 0)
(-0.0010329 0.0266003 0)
(-0.0009673 0.0246018 0)
(-0.00090492 0.0227312 0)
(-0.000845514 0.0209824 0)
(-0.00078908 0.0193494 0)
(-0.000735631 0.0178263 0)
(-0.000685075 0.0164071 0)
(-0.000637287 0.0150861 0)
(-0.000592158 0.0138581 0)
(-0.000549604 0.0127177 0)
(-0.000509545 0.0116598 0)
(-0.000471893 0.0106796 0)
(-0.000436552 0.00977235 0)
(-0.000403423 0.0089335 0)
(-0.000372405 0.00815875 0)
(-0.000343399 0.00744397 0)
(-0.000316308 0.00678524 0)
(-0.000291038 0.00617882 0)
(-0.000267498 0.00562116 0)
(-0.000245597 0.00510889 0)
(-0.000225247 0.00463883 0)
(-0.000206362 0.00420796 0)
(-0.000188858 0.00381343 0)
(-0.000172655 0.00345257 0)
(-0.000157674 0.00312286 0)
(-0.00014384 0.00282192 0)
(-0.000131081 0.00254754 0)
(-0.000119327 0.00229763 0)
(-0.000108513 0.00207026 0)
(-9.85755e-05 0.0018636 0)
(-8.94539e-05 0.00167598 0)
(-8.10915e-05 0.00150581 0)
(-7.34342e-05 0.00135163 0)
(-6.64307e-05 0.00121209 0)
(-6.00327e-05 0.00108593 0)
(-5.41948e-05 0.000971974 0)
(-4.88741e-05 0.00086916 0)
(-4.40304e-05 0.00077649 0)
(-3.9626e-05 0.000693049 0)
(-3.56257e-05 0.000617996 0)
(-3.19966e-05 0.000550555 0)
(-2.8708e-05 0.000490017 0)
(-2.57312e-05 0.00043573 0)
(-2.30398e-05 0.000387099 0)
(-2.06092e-05 0.000343577 0)
(-1.84165e-05 0.000304667 0)
(-1.64406e-05 0.000269915 0)
(-1.46621e-05 0.000238908 0)
(-1.3063e-05 0.00021127 0)
(-1.16268e-05 0.000186659 0)
(-1.03384e-05 0.000164766 0)
(-9.18366e-06 0.000145309 0)
(-8.14995e-06 0.000128033 0)
(-7.22556e-06 0.000112711 0)
(-6.3998e-06 9.9133e-05 0)
(-5.66295e-06 8.71131e-05 0)
(-5.00613e-06 7.64826e-05 0)
(-4.42125e-06 6.70899e-05 0)
(-3.90099e-06 5.87987e-05 0)
(-3.4387e-06 5.14868e-05 0)
(-3.02833e-06 4.50447e-05 0)
(-2.66443e-06 3.93743e-05 0)
(-2.34208e-06 3.43877e-05 0)
(-2.05682e-06 3.00065e-05 0)
(-1.80465e-06 2.61609e-05 0)
(-1.58194e-06 2.27884e-05 0)
(-1.38547e-06 1.98335e-05 0)
(-1.21231e-06 1.72468e-05 0)
(-1.05986e-06 1.49845e-05 0)
(-9.25766e-07 1.30077e-05 0)
(-8.07952e-07 1.12817e-05 0)
(-7.04544e-07 9.77606e-06 0)
(-6.13877e-07 8.4637e-06 0)
(-5.34467e-07 7.3207e-06 0)
(-4.64995e-07 6.32596e-06 0)
(-4.04287e-07 5.46084e-06 0)
(-3.51304e-07 4.70891e-06 0)
(-3.05125e-07 4.05571e-06 0)
(-2.64935e-07 3.48848e-06 0)
(-2.30017e-07 2.99603e-06 0)
(-1.99736e-07 2.56847e-06 0)
(-1.73538e-07 2.19713e-06 0)
(-1.50934e-07 1.87437e-06 0)
(-1.315e-07 1.59344e-06 0)
(-1.14865e-07 1.3484e-06 0)
(-1.00709e-07 1.134e-06 0)
(-8.87569e-08 9.45587e-07 0)
(-7.87736e-08 7.78997e-07 0)
(-7.05616e-08 6.30512e-07 0)
(-6.39569e-08 4.96768e-07 0)
(-5.88268e-08 3.74699e-07 0)
(-5.50676e-08 2.61475e-07 0)
(-5.26029e-08 1.54442e-07 0)
(-5.13824e-08 5.10757e-08 0)
(-0.00448442 0.0416315 0)
(-0.00422869 0.0387294 0)
(-0.00398294 0.0359945 0)
(-0.00374713 0.03342 0)
(-0.00352115 0.0309994 0)
(-0.00330506 0.0287262 0)
(-0.00309855 0.0265938 0)
(-0.00290173 0.0245957 0)
(-0.00271447 0.0227256 0)
(-0.00253628 0.0209773 0)
(-0.00236706 0.0193447 0)
(-0.00220675 0.0178219 0)
(-0.00205507 0.016403 0)
(-0.0019117 0.0150824 0)
(-0.00177631 0.0138546 0)
(-0.00164867 0.0127145 0)
(-0.00152851 0.0116569 0)
(-0.00141556 0.010677 0)
(-0.00130955 0.00976994 0)
(-0.00121017 0.0089313 0)
(-0.00111712 0.00815673 0)
(-0.00103011 0.00744213 0)
(-0.000948845 0.00678356 0)
(-0.000873043 0.00617729 0)
(-0.000802428 0.00561977 0)
(-0.000736731 0.00510763 0)
(-0.000675685 0.00463768 0)
(-0.000619034 0.00420692 0)
(-0.000566527 0.00381249 0)
(-0.000517921 0.00345172 0)
(-0.000472982 0.00312209 0)
(-0.000431483 0.00282122 0)
(-0.00039321 0.00254691 0)
(-0.000357952 0.00229706 0)
(-0.000325513 0.00206975 0)
(-0.000295702 0.00186314 0)
(-0.00026834 0.00167556 0)
(-0.000243255 0.00150544 0)
(-0.000220284 0.0013513 0)
(-0.000199276 0.00121179 0)
(-0.000180083 0.00108566 0)
(-0.000162571 0.000971735 0)
(-0.00014661 0.000868946 0)
(-0.00013208 0.000776299 0)
(-0.000118868 0.000692878 0)
(-0.000106868 0.000617843 0)
(-9.5982e-05 0.000550419 0)
(-8.61168e-05 0.000489896 0)
(-7.71873e-05 0.000435623 0)
(-6.91138e-05 0.000387003 0)
(-6.18225e-05 0.000343492 0)
(-5.52449e-05 0.000304592 0)
(-4.93178e-05 0.000269849 0)
(-4.39828e-05 0.00023885 0)
(-3.91859e-05 0.000211218 0)
(-3.48777e-05 0.000186613 0)
(-3.10126e-05 0.000164725 0)
(-2.75487e-05 0.000145273 0)
(-2.44478e-05 0.000128002 0)
(-2.16749e-05 0.000112683 0)
(-1.91978e-05 9.91086e-05 0)
(-1.69875e-05 8.70917e-05 0)
(-1.50171e-05 7.64638e-05 0)
(-1.32627e-05 6.70733e-05 0)
(-1.1702e-05 5.87842e-05 0)
(-1.03152e-05 5.14742e-05 0)
(-9.08424e-06 4.50337e-05 0)
(-7.99265e-06 3.93646e-05 0)
(-7.02567e-06 3.43792e-05 0)
(-6.16997e-06 2.99991e-05 0)
(-5.4135e-06 2.61544e-05 0)
(-4.74544e-06 2.27828e-05 0)
(-4.15607e-06 1.98286e-05 0)
(-3.63663e-06 1.72426e-05 0)
(-3.17931e-06 1.49809e-05 0)
(-2.77707e-06 1.30045e-05 0)
(-2.42366e-06 1.12789e-05 0)
(-2.11346e-06 9.77366e-06 0)
(-1.84148e-06 8.46162e-06 0)
(-1.60327e-06 7.3189e-06 0)
(-1.39487e-06 6.32441e-06 0)
(-1.21276e-06 5.4595e-06 0)
(-1.05383e-06 4.70776e-06 0)
(-9.153e-07 4.05471e-06 0)
(-7.94741e-07 3.48763e-06 0)
(-6.89994e-07 2.9953e-06 0)
(-5.99159e-07 2.56785e-06 0)
(-5.20571e-07 2.1966e-06 0)
(-4.52765e-07 1.87391e-06 0)
(-3.94468e-07 1.59305e-06 0)
(-3.44567e-07 1.34807e-06 0)
(-3.02103e-07 1.13373e-06 0)
(-2.66249e-07 9.45357e-07 0)
(-2.36302e-07 7.78808e-07 0)
(-2.11668e-07 6.30359e-07 0)
(-1.91855e-07 4.96648e-07 0)
(-1.76466e-07 3.74609e-07 0)
(-1.6519e-07 2.61412e-07 0)
(-1.57796e-07 1.54406e-07 0)
(-1.54136e-07 5.10638e-08 0)
(-0.00747287 0.041611 0)
(-0.00704674 0.0387103 0)
(-0.00663713 0.0359767 0)
(-0.00624417 0.0334035 0)
(-0.00586759 0.0309841 0)
(-0.00550748 0.028712 0)
(-0.00516347 0.0265806 0)
(-0.00483548 0.0245835 0)
(-0.00452331 0.0227144 0)
(-0.00422638 0.0209669 0)
(-0.00394447 0.0193352 0)
(-0.00367735 0.0178131 0)
(-0.00342458 0.0163949 0)
(-0.00318563 0.0150749 0)
(-0.00296002 0.0138478 0)
(-0.00274731 0.0127083 0)
(-0.00254709 0.0116512 0)
(-0.00235889 0.0106717 0)
(-0.00218224 0.00976512 0)
(-0.00201663 0.00892689 0)
(-0.00186157 0.00815271 0)
(-0.00171657 0.00743846 0)
(-0.00158115 0.00678021 0)
(-0.00145483 0.00617424 0)
(-0.00133716 0.00561699 0)
(-0.00122768 0.00510511 0)
(-0.00112596 0.0046354 0)
(-0.00103155 0.00420484 0)
(-0.000944056 0.00381061 0)
(-0.00086306 0.00345002 0)
(-0.000788173 0.00312055 0)
(-0.000719021 0.00281983 0)
(-0.000655241 0.00254565 0)
(-0.000596489 0.00229593 0)
(-0.000542432 0.00206872 0)
(-0.000492756 0.00186222 0)
(-0.000447159 0.00167474 0)
(-0.000405358 0.00150469 0)
(-0.00036708 0.00135063 0)
(-0.000332071 0.00121119 0)
(-0.00030009 0.00108512 0)
(-0.000270907 0.000971255 0)
(-0.00024431 0.000868517 0)
(-0.000220098 0.000775915 0)
(-0.000198081 0.000692536 0)
(-0.000178085 0.000617538 0)
(-0.000159944 0.000550148 0)
(-0.000143504 0.000489655 0)
(-0.000128624 0.000435408 0)
(-0.000115171 0.000386812 0)
(-0.000103021 0.000343322 0)
(-9.20597e-05 0.000304441 0)
(-8.21828e-05 0.000269716 0)
(-7.32925e-05 0.000238732 0)
(-6.52991e-05 0.000211114 0)
(-5.81199e-05 0.000186521 0)
(-5.16791e-05 0.000164644 0)
(-4.5907e-05 0.000145201 0)
(-4.07397e-05 0.000127939 0)
(-3.61189e-05 0.000112627 0)
(-3.19911e-05 9.90597e-05 0)
(-2.83078e-05 8.70487e-05 0)
(-2.50245e-05 7.64261e-05 0)
(-2.21008e-05 6.70403e-05 0)
(-1.95002e-05 5.87552e-05 0)
(-1.71892e-05 5.14488e-05 0)
(-1.51379e-05 4.50115e-05 0)
(-1.33189e-05 3.93452e-05 0)
(-1.17075e-05 3.43623e-05 0)
(-1.02816e-05 2.99844e-05 0)
(-9.02102e-06 2.61416e-05 0)
(-7.90777e-06 2.27715e-05 0)
(-6.92564e-06 1.98188e-05 0)
(-6.06006e-06 1.72341e-05 0)
(-5.29798e-06 1.49735e-05 0)
(-4.62769e-06 1.29981e-05 0)
(-4.03877e-06 1.12734e-05 0)
(-3.52185e-06 9.76885e-06 0)
(-3.06863e-06 8.45746e-06 0)
(-2.67168e-06 7.31531e-06 0)
(-2.3244e-06 6.3213e-06 0)
(-2.02094e-06 5.45681e-06 0)
(-1.75609e-06 4.70544e-06 0)
(-1.52525e-06 4.05272e-06 0)
(-1.32435e-06 3.48592e-06 0)
(-1.1498e-06 2.99383e-06 0)
(-9.98435e-07 2.56659e-06 0)
(-8.67475e-07 2.19552e-06 0)
(-7.54485e-07 1.87299e-06 0)
(-6.57338e-07 1.59227e-06 0)
(-5.74184e-07 1.34741e-06 0)
(-5.03422e-07 1.13317e-06 0)
(-4.43676e-07 9.44895e-07 0)
(-3.93772e-07 7.78427e-07 0)
(-3.52722e-07 6.30051e-07 0)
(-3.19706e-07 4.96406e-07 0)
(-2.94062e-07 3.74427e-07 0)
(-2.75271e-07 2.61286e-07 0)
(-2.62951e-07 1.54331e-07 0)
(-2.56852e-07 5.10392e-08 0)
(-0.0104594 0.0415802 0)
(-0.00986307 0.0386817 0)
(-0.00928973 0.03595 0)
(-0.00873966 0.0333788 0)
(-0.00821262 0.0309612 0)
(-0.00770857 0.0286908 0)
(-0.00722709 0.0265609 0)
(-0.006768 0.0245653 0)
(-0.00633103 0.0226976 0)
(-0.00591546 0.0209514 0)
(-0.00552092 0.0193209 0)
(-0.00514705 0.0177999 0)
(-0.00479324 0.0163827 0)
(-0.00445877 0.0150638 0)
(-0.00414298 0.0138376 0)
(-0.00384528 0.0126989 0)
(-0.00356504 0.0116426 0)
(-0.00330164 0.0106638 0)
(-0.00305438 0.00975789 0)
(-0.00282259 0.00892028 0)
(-0.00260556 0.00814667 0)
(-0.00240261 0.00743294 0)
(-0.00221306 0.00677519 0)
(-0.00203626 0.00616967 0)
(-0.00187156 0.00561283 0)
(-0.00171833 0.00510133 0)
(-0.00157595 0.00463196 0)
(-0.00144382 0.00420173 0)
(-0.00132135 0.00380779 0)
(-0.00120799 0.00344746 0)
(-0.00110317 0.00311824 0)
(-0.00100638 0.00281774 0)
(-0.000917112 0.00254376 0)
(-0.000834878 0.00229423 0)
(-0.000759218 0.00206719 0)
(-0.000689688 0.00186084 0)
(-0.000625869 0.0016735 0)
(-0.000567361 0.00150358 0)
(-0.000513786 0.00134963 0)
(-0.000464785 0.0012103 0)
(-0.000420022 0.00108432 0)
(-0.000379176 0.000970536 0)
(-0.00034195 0.000867874 0)
(-0.000308061 0.000775341 0)
(-0.000277245 0.000692024 0)
(-0.000249257 0.000617081 0)
(-0.000223866 0.00054974 0)
(-0.000200857 0.000489292 0)
(-0.00018003 0.000435086 0)
(-0.000161199 0.000386526 0)
(-0.000144193 0.000343068 0)
(-0.000128852 0.000304216 0)
(-0.000115028 0.000269516 0)
(-0.000102584 0.000238555 0)
(-9.13962e-05 0.000210958 0)
(-8.13478e-05 0.000186383 0)
(-7.23329e-05 0.000164522 0)
(-6.42539e-05 0.000145094 0)
(-5.70215e-05 0.000127844 0)
(-5.05539e-05 0.000112544 0)
(-4.47765e-05 9.89865e-05 0)
(-3.96211e-05 8.69843e-05 0)
(-3.50256e-05 7.63695e-05 0)
(-3.09335e-05 6.69907e-05 0)
(-2.72935e-05 5.87118e-05 0)
(-2.4059e-05 5.14108e-05 0)
(-2.11879e-05 4.49782e-05 0)
(-1.86419e-05 3.93161e-05 0)
(-1.63865e-05 3.43369e-05 0)
(-1.43907e-05 2.99622e-05 0)
(-1.26263e-05 2.61222e-05 0)
(-1.10682e-05 2.27547e-05 0)
(-9.69351e-06 1.98042e-05 0)
(-8.482e-06 1.72214e-05 0)
(-7.41534e-06 1.49624e-05 0)
(-6.47718e-06 1.29885e-05 0)
(-5.65288e-06 1.12651e-05 0)
(-4.92938e-06 9.76164e-06 0)
(-4.29502e-06 8.45122e-06 0)
(-3.73943e-06 7.30991e-06 0)
(-3.25336e-06 6.31664e-06 0)
(-2.82862e-06 5.45279e-06 0)
(-2.45792e-06 4.70197e-06 0)
(-2.13482e-06 4.04973e-06 0)
(-1.85364e-06 3.48335e-06 0)
(-1.60933e-06 2.99162e-06 0)
(-1.39747e-06 2.5647e-06 0)
(-1.21417e-06 2.1939e-06 0)
(-1.05602e-06 1.87161e-06 0)
(-9.20047e-07 1.59109e-06 0)
(-8.0366e-07 1.34642e-06 0)
(-7.04618e-07 1.13234e-06 0)
(-6.20994e-07 9.44201e-07 0)
(-5.51145e-07 7.77856e-07 0)
(-4.93689e-07 6.29589e-07 0)
(-4.47479e-07 4.96042e-07 0)
(-4.11586e-07 3.74153e-07 0)
(-3.85285e-07 2.61095e-07 0)
(-3.68043e-07 1.54218e-07 0)
(-3.59506e-07 5.1002e-08 0)
(-0.0134433 0.041539 0)
(-0.0126769 0.0386435 0)
(-0.01194 0.0359146 0)
(-0.011233 0.0333458 0)
(-0.0105556 0.0309306 0)
(-0.00990775 0.0286624 0)
(-0.00928891 0.0265347 0)
(-0.00869885 0.0245411 0)
(-0.0081372 0.0226751 0)
(-0.00760308 0.0209307 0)
(-0.00709601 0.0193018 0)
(-0.00661548 0.0177823 0)
(-0.00616071 0.0163665 0)
(-0.0057308 0.0150489 0)
(-0.00532492 0.0138239 0)
(-0.00494229 0.0126863 0)
(-0.00458212 0.0116311 0)
(-0.00424357 0.0106533 0)
(-0.00392578 0.00974826 0)
(-0.00362786 0.00891147 0)
(-0.00334891 0.00813862 0)
(-0.00308805 0.0074256 0)
(-0.00284443 0.00676849 0)
(-0.00261719 0.00616357 0)
(-0.0024055 0.00560729 0)
(-0.00220855 0.00509629 0)
(-0.00202555 0.00462739 0)
(-0.00185573 0.00419758 0)
(-0.00169832 0.00380403 0)
(-0.00155261 0.00344406 0)
(-0.00141789 0.00311516 0)
(-0.00129349 0.00281496 0)
(-0.00117876 0.00254125 0)
(-0.00107306 0.00229196 0)
(-0.000975816 0.00206515 0)
(-0.00088645 0.00185901 0)
(-0.000804423 0.00167184 0)
(-0.000729224 0.0015021 0)
(-0.000660364 0.0013483 0)
(-0.000597384 0.0012091 0)
(-0.00053985 0.00108325 0)
(-0.000487352 0.000969577 0)
(-0.000439505 0.000867017 0)
(-0.000395948 0.000774575 0)
(-0.000356341 0.00069134 0)
(-0.000320368 0.000616472 0)
(-0.000287733 0.000549198 0)
(-0.000258159 0.000488809 0)
(-0.000231391 0.000434656 0)
(-0.000207188 0.000386144 0)
(-0.00018533 0.00034273 0)
(-0.000165612 0.000303916 0)
(-0.000147844 0.00026925 0)
(-0.000131851 0.00023832 0)
(-0.000117471 0.00021075 0)
(-0.000104556 0.000186199 0)
(-9.29688e-05 0.00016436 0)
(-8.2585e-05 0.00014495 0)
(-7.32892e-05 0.000127718 0)
(-6.49766e-05 0.000112433 0)
(-5.75509e-05 9.88888e-05 0)
(-5.09247e-05 8.68985e-05 0)
(-4.50181e-05 7.62942e-05 0)
(-3.97586e-05 6.69246e-05 0)
(-3.50801e-05 5.86539e-05 0)
(-3.09228e-05 5.13601e-05 0)
(-2.72326e-05 4.49338e-05 0)
(-2.39602e-05 3.92773e-05 0)
(-2.10614e-05 3.4303e-05 0)
(-1.84962e-05 2.99327e-05 0)
(-1.62285e-05 2.60965e-05 0)
(-1.42258e-05 2.27323e-05 0)
(-1.2459e-05 1.97847e-05 0)
(-1.09018e-05 1.72044e-05 0)
(-9.53087e-06 1.49477e-05 0)
(-8.32506e-06 1.29757e-05 0)
(-7.2656e-06 1.1254e-05 0)
(-6.33569e-06 9.75203e-06 0)
(-5.52036e-06 8.4429e-06 0)
(-4.80626e-06 7.30272e-06 0)
(-4.18152e-06 6.31042e-06 0)
(-3.6356e-06 5.44743e-06 0)
(-3.15914e-06 4.69735e-06 0)
(-2.74387e-06 4.04575e-06 0)
(-2.38246e-06 3.47993e-06 0)
(-2.06845e-06 2.98868e-06 0)
(-1.79615e-06 2.56218e-06 0)
(-1.56056e-06 2.19175e-06 0)
(-1.35729e-06 1.86977e-06 0)
(-1.18253e-06 1.58953e-06 0)
(-1.03294e-06 1.3451e-06 0)
(-9.05641e-07 1.13123e-06 0)
(-7.98159e-07 9.43275e-07 0)
(-7.08383e-07 7.77094e-07 0)
(-6.34536e-07 6.28973e-07 0)
(-5.75143e-07 4.95557e-07 0)
(-5.2901e-07 3.73787e-07 0)
(-4.95206e-07 2.60839e-07 0)
(-4.73044e-07 1.54068e-07 0)
(-4.62072e-07 5.09522e-08 0)
(-0.0164239 0.0414877 0)
(-0.0154875 0.0385957 0)
(-0.0145874 0.0358702 0)
(-0.0137236 0.0333046 0)
(-0.012896 0.0308924 0)
(-0.0121045 0.028627 0)
(-0.0113484 0.0265019 0)
(-0.0106276 0.0245107 0)
(-0.00994136 0.0226471 0)
(-0.00928883 0.0209049 0)
(-0.00866935 0.0192779 0)
(-0.00808228 0.0177603 0)
(-0.00752665 0.0163463 0)
(-0.00700141 0.0150303 0)
(-0.00650555 0.0138068 0)
(-0.00603809 0.0126706 0)
(-0.00559807 0.0116167 0)
(-0.00518446 0.0106401 0)
(-0.00479621 0.00973621 0)
(-0.00443223 0.00890045 0)
(-0.00409143 0.00812856 0)
(-0.00377273 0.00741642 0)
(-0.00347509 0.00676013 0)
(-0.00319747 0.00615595 0)
(-0.00293884 0.00560036 0)
(-0.00269823 0.00508999 0)
(-0.00247466 0.00462167 0)
(-0.00226718 0.00419239 0)
(-0.00207487 0.00379933 0)
(-0.00189686 0.0034398 0)
(-0.00173227 0.00311131 0)
(-0.00158028 0.00281148 0)
(-0.00144011 0.00253811 0)
(-0.00131098 0.00228913 0)
(-0.00119217 0.0020626 0)
(-0.00108299 0.00185671 0)
(-0.00098278 0.00166978 0)
(-0.000890907 0.00150024 0)
(-0.00080678 0.00134663 0)
(-0.000729836 0.00120761 0)
(-0.000659546 0.00108191 0)
(-0.000595408 0.00096838 0)
(-0.000536952 0.000865946 0)
(-0.000483737 0.000773618 0)
(-0.000435349 0.000690486 0)
(-0.0003914 0.00061571 0)
(-0.000351529 0.000548519 0)
(-0.000315398 0.000488205 0)
(-0.000282694 0.000434119 0)
(-0.000253126 0.000385667 0)
(-0.000226422 0.000342306 0)
(-0.000202332 0.00030354 0)
(-0.000180624 0.000268917 0)
(-0.000161084 0.000238025 0)
(-0.000143516 0.000210489 0)
(-0.000127738 0.00018597 0)
(-0.000113582 0.000164157 0)
(-0.000100896 0.000144772 0)
(-8.95389e-05 0.00012756 0)
(-7.93831e-05 0.000112294 0)
(-7.03111e-05 9.87667e-05 0)
(-6.22157e-05 8.67913e-05 0)
(-5.49995e-05 7.62e-05 0)
(-4.85738e-05 6.6842e-05 0)
(-4.28581e-05 5.85815e-05 0)
(-3.77791e-05 5.12967e-05 0)
(-3.32706e-05 4.48784e-05 0)
(-2.92727e-05 3.92289e-05 0)
(-2.57312e-05 3.42607e-05 0)
(-2.25972e-05 2.98957e-05 0)
(-1.98267e-05 2.60643e-05 0)
(-1.738e-05 2.27043e-05 0)
(-1.52214e-05 1.97603e-05 0)
(-1.3319e-05 1.71832e-05 0)
(-1.16441e-05 1.49293e-05 0)
(-1.01709e-05 1.29597e-05 0)
(-8.87653e-06 1.12401e-05 0)
(-7.74045e-06 9.74002e-06 0)
(-6.74434e-06 8.4325e-06 0)
(-5.87191e-06 7.29372e-06 0)
(-5.10865e-06 6.30265e-06 0)
(-4.44169e-06 5.44072e-06 0)
(-3.85959e-06 4.69157e-06 0)
(-3.35225e-06 4.04077e-06 0)
(-2.91071e-06 3.47564e-06 0)
(-2.52707e-06 2.98501e-06 0)
(-2.1944e-06 2.55903e-06 0)
(-1.90657e-06 2.18906e-06 0)
(-1.65824e-06 1.86748e-06 0)
(-1.44472e-06 1.58758e-06 0)
(-1.26196e-06 1.34345e-06 0)
(-1.10644e-06 1.12984e-06 0)
(-9.75129e-07 9.42117e-07 0)
(-8.65448e-07 7.76141e-07 0)
(-7.75227e-07 6.28201e-07 0)
(-7.02665e-07 4.94949e-07 0)
(-6.46304e-07 3.73329e-07 0)
(-6.05005e-07 2.6052e-07 0)
(-5.7793e-07 1.53879e-07 0)
(-5.64526e-07 5.08898e-08 0)
(-0.0194005 0.0414262 0)
(-0.0182944 0.0385384 0)
(-0.0172311 0.0358169 0)
(-0.0162108 0.0332552 0)
(-0.0152332 0.0308466 0)
(-0.0142982 0.0285845 0)
(-0.0134052 0.0264626 0)
(-0.0125536 0.0244744 0)
(-0.0117431 0.0226135 0)
(-0.0109723 0.0208738 0)
(-0.0102406 0.0192493 0)
(-0.00954707 0.017734 0)
(-0.00889074 0.0163221 0)
(-0.0082703 0.015008 0)
(-0.00768457 0.0137863 0)
(-0.0071324 0.0126518 0)
(-0.00661263 0.0115995 0)
(-0.00612407 0.0106243 0)
(-0.00566546 0.00972176 0)
(-0.00523551 0.00888725 0)
(-0.00483294 0.0081165 0)
(-0.00445648 0.00740542 0)
(-0.0041049 0.0067501 0)
(-0.00377696 0.00614682 0)
(-0.00347146 0.00559205 0)
(-0.00318724 0.00508243 0)
(-0.00292315 0.00461481 0)
(-0.00267807 0.00418617 0)
(-0.00245091 0.00379369 0)
(-0.00224063 0.0034347 0)
(-0.00204622 0.00310669 0)
(-0.00186669 0.00280731 0)
(-0.00170111 0.00253435 0)
(-0.00154858 0.00228573 0)
(-0.00140824 0.00205954 0)
(-0.00127927 0.00185395 0)
(-0.00116089 0.0016673 0)
(-0.00105237 0.00149801 0)
(-0.000952996 0.00134464 0)
(-0.000862108 0.00120582 0)
(-0.000779078 0.0010803 0)
(-0.000703316 0.000966943 0)
(-0.000634266 0.000864661 0)
(-0.000571407 0.000772471 0)
(-0.000514249 0.000689462 0)
(-0.000462335 0.000614797 0)
(-0.000415238 0.000547706 0)
(-0.000372559 0.000487481 0)
(-0.000333928 0.000433475 0)
(-0.000299001 0.000385095 0)
(-0.000267457 0.000341799 0)
(-0.000239001 0.00030309 0)
(-0.000213359 0.000268519 0)
(-0.000190279 0.000237672 0)
(-0.000169526 0.000210177 0)
(-0.000150888 0.000185694 0)
(-0.000134167 0.000163913 0)
(-0.000119182 0.000144557 0)
(-0.000105766 0.000127371 0)
(-9.37701e-05 0.000112128 0)
(-8.30539e-05 9.86203e-05 0)
(-7.34914e-05 8.66626e-05 0)
(-6.49674e-05 7.60871e-05 0)
(-5.73771e-05 6.67429e-05 0)
(-5.06254e-05 5.84947e-05 0)
(-4.46259e-05 5.12207e-05 0)
(-3.93004e-05 4.48119e-05 0)
(-3.45779e-05 3.91708e-05 0)
(-3.03946e-05 3.42099e-05 0)
(-2.66926e-05 2.98515e-05 0)
(-2.342e-05 2.60257e-05 0)
(-2.05298e-05 2.26706e-05 0)
(-1.79801e-05 1.9731e-05 0)
(-1.57329e-05 1.71578e-05 0)
(-1.37544e-05 1.49072e-05 0)
(-1.20142e-05 1.29405e-05 0)
(-1.04853e-05 1.12235e-05 0)
(-9.14329e-06 9.7256e-06 0)
(-7.96666e-06 8.42002e-06 0)
(-6.93611e-06 7.28293e-06 0)
(-6.03452e-06 6.29333e-06 0)
(-5.24668e-06 5.43267e-06 0)
(-4.55909e-06 4.68463e-06 0)
(-3.9598e-06 4.0348e-06 0)
(-3.43823e-06 3.47051e-06 0)
(-2.98507e-06 2.98059e-06 0)
(-2.5921e-06 2.55525e-06 0)
(-2.25211e-06 2.18582e-06 0)
(-1.95877e-06 1.86472e-06 0)
(-1.70656e-06 1.58524e-06 0)
(-1.49068e-06 1.34146e-06 0)
(-1.30697e-06 1.12817e-06 0)
(-1.15186e-06 9.40727e-07 0)
(-1.0223e-06 7.74996e-07 0)
(-9.15728e-07 6.27275e-07 0)
(-8.30015e-07 4.94219e-07 0)
(-7.63439e-07 3.72779e-07 0)
(-7.14655e-07 2.60136e-07 0)
(-6.82674e-07 1.53652e-07 0)
(-6.66841e-07 5.08148e-08 0)
(-0.0223723 0.0413544 0)
(-0.0210967 0.0384716 0)
(-0.0198706 0.0357549 0)
(-0.018694 0.0331976 0)
(-0.0175667 0.0307931 0)
(-0.0164884 0.028535 0)
(-0.0154586 0.0264167 0)
(-0.0144766 0.024432 0)
(-0.0135419 0.0225743 0)
(-0.0126531 0.0208377 0)
(-0.0118092 0.0192159 0)
(-0.0110095 0.0177032 0)
(-0.0102526 0.0162938 0)
(-0.00953714 0.014982 0)
(-0.00886169 0.0137624 0)
(-0.00822494 0.0126299 0)
(-0.00762557 0.0115794 0)
(-0.00706218 0.0106059 0)
(-0.00653331 0.00970492 0)
(-0.00603749 0.00887185 0)
(-0.00557326 0.00810243 0)
(-0.00513913 0.00739258 0)
(-0.00473369 0.0067384 0)
(-0.00435552 0.00613616 0)
(-0.00400323 0.00558236 0)
(-0.00367547 0.00507363 0)
(-0.00337092 0.00460681 0)
(-0.0030883 0.00417892 0)
(-0.00282635 0.00378712 0)
(-0.00258386 0.00342875 0)
(-0.00235966 0.00310131 0)
(-0.00215263 0.00280244 0)
(-0.00196168 0.00252995 0)
(-0.00178579 0.00228177 0)
(-0.00162395 0.00205597 0)
(-0.00147523 0.00185074 0)
(-0.00133872 0.00166441 0)
(-0.00121357 0.00149542 0)
(-0.00109898 0.00134231 0)
(-0.000994167 0.00120373 0)
(-0.000898418 0.00107843 0)
(-0.000811051 0.000965268 0)
(-0.000731424 0.000863163 0)
(-0.000658936 0.000771132 0)
(-0.000593023 0.000688268 0)
(-0.000533156 0.000613732 0)
(-0.000478845 0.000546757 0)
(-0.000429629 0.000486637 0)
(-0.00038508 0.000432724 0)
(-0.000344802 0.000384428 0)
(-0.000308427 0.000341207 0)
(-0.000275612 0.000302565 0)
(-0.000246042 0.000268053 0)
(-0.000219426 0.000237261 0)
(-0.000195495 0.000209813 0)
(-0.000174001 0.000185372 0)
(-0.000154719 0.00016363 0)
(-0.000137438 0.000144307 0)
(-0.000121968 0.000127151 0)
(-0.000108134 0.000111934 0)
(-9.57762e-05 9.84495e-05 0)
(-8.47489e-05 8.65126e-05 0)
(-7.49192e-05 7.59554e-05 0)
(-6.61663e-05 6.66274e-05 0)
(-5.83803e-05 5.83934e-05 0)
(-5.14618e-05 5.1132e-05 0)
(-4.53205e-05 4.47343e-05 0)
(-3.98746e-05 3.9103e-05 0)
(-3.50505e-05 3.41507e-05 0)
(-3.07814e-05 2.97998e-05 0)
(-2.70075e-05 2.59807e-05 0)
(-2.36746e-05 2.26314e-05 0)
(-2.07343e-05 1.96969e-05 0)
(-1.81429e-05 1.71281e-05 0)
(-1.58613e-05 1.48814e-05 0)
(-1.38546e-05 1.29181e-05 0)
(-1.20914e-05 1.12041e-05 0)
(-1.05439e-05 9.70879e-06 0)
(-9.18701e-06 8.40547e-06 0)
(-7.9986e-06 7.27034e-06 0)
(-6.95891e-06 6.28245e-06 0)
(-6.05038e-06 5.42329e-06 0)
(-5.25747e-06 4.67654e-06 0)
(-4.56637e-06 4.02783e-06 0)
(-3.96491e-06 3.46451e-06 0)
(-3.44234e-06 2.97545e-06 0)
(-2.98917e-06 2.55083e-06 0)
(-2.5971e-06 2.18205e-06 0)
(-2.25882e-06 1.8615e-06 0)
(-1.96798e-06 1.5825e-06 0)
(-1.71903e-06 1.33915e-06 0)
(-1.50718e-06 1.12623e-06 0)
(-1.32831e-06 9.39106e-07 0)
(-1.1789e-06 7.7366e-07 0)
(-1.056e-06 6.26194e-07 0)
(-9.57161e-07 4.93368e-07 0)
(-8.80387e-07 3.72136e-07 0)
(-8.24131e-07 2.59688e-07 0)
(-7.87251e-07 1.53388e-07 0)
(-7.68993e-07 5.07273e-08 0)
(-0.0253385 0.0412724 0)
(-0.0238939 0.0383954 0)
(-0.0225052 0.035684 0)
(-0.0211726 0.0331318 0)
(-0.0198958 0.0307321 0)
(-0.0186746 0.0284784 0)
(-0.0175082 0.0263644 0)
(-0.0163961 0.0243835 0)
(-0.0153374 0.0225296 0)
(-0.0143307 0.0207964 0)
(-0.013375 0.0191779 0)
(-0.0124692 0.0176681 0)
(-0.011612 0.0162615 0)
(-0.0108016 0.0149523 0)
(-0.0100366 0.0137352 0)
(-0.00931546 0.0126049 0)
(-0.00863663 0.0115564 0)
(-0.00799854 0.0105849 0)
(-0.00739955 0.00968568 0)
(-0.00683799 0.00885426 0)
(-0.0063122 0.00808637 0)
(-0.00582052 0.00737793 0)
(-0.00536132 0.00672504 0)
(-0.004933 0.006124 0)
(-0.004534 0.00557129 0)
(-0.00416279 0.00506357 0)
(-0.00381786 0.00459768 0)
(-0.00349776 0.00417063 0)
(-0.00320108 0.00377961 0)
(-0.00292644 0.00342195 0)
(-0.00267252 0.00309516 0)
(-0.00243804 0.00279689 0)
(-0.00222178 0.00252494 0)
(-0.00202256 0.00227725 0)
(-0.00183927 0.00205189 0)
(-0.00167083 0.00184707 0)
(-0.00151622 0.00166111 0)
(-0.00137448 0.00149245 0)
(-0.00124469 0.00133964 0)
(-0.00112598 0.00120134 0)
(-0.00101754 0.0010763 0)
(-0.000918586 0.000963354 0)
(-0.000828402 0.000861452 0)
(-0.000746302 0.000769604 0)
(-0.00067165 0.000686903 0)
(-0.000603846 0.000612515 0)
(-0.000542333 0.000545673 0)
(-0.000486592 0.000485672 0)
(-0.000436137 0.000431867 0)
(-0.000390519 0.000383666 0)
(-0.00034932 0.00034053 0)
(-0.000312154 0.000301966 0)
(-0.000278664 0.000267522 0)
(-0.000248519 0.00023679 0)
(-0.000221415 0.000209397 0)
(-0.000197072 0.000185005 0)
(-0.000175232 0.000163305 0)
(-0.00015566 0.000144021 0)
(-0.000138139 0.000126899 0)
(-0.000122471 0.000111712 0)
(-0.000108475 9.82545e-05 0)
(-9.59855e-05 8.63412e-05 0)
(-8.48525e-05 7.58049e-05 0)
(-7.49391e-05 6.64954e-05 0)
(-6.61209e-05 5.82778e-05 0)
(-5.8285e-05 5.10307e-05 0)
(-5.13294e-05 4.46458e-05 0)
(-4.51615e-05 3.90255e-05 0)
(-3.96977e-05 3.40831e-05 0)
(-3.48627e-05 2.97408e-05 0)
(-3.05884e-05 2.59292e-05 0)
(-2.68136e-05 2.25866e-05 0)
(-2.34834e-05 1.96579e-05 0)
(-2.05484e-05 1.70942e-05 0)
(-1.79643e-05 1.48519e-05 0)
(-1.56915e-05 1.28926e-05 0)
(-1.36946e-05 1.11819e-05 0)
(-1.19419e-05 9.68958e-06 0)
(-1.04051e-05 8.38884e-06 0)
(-9.05912e-06 7.25597e-06 0)
(-7.88158e-06 6.27003e-06 0)
(-6.8526e-06 5.41257e-06 0)
(-5.95455e-06 4.66729e-06 0)
(-5.17182e-06 4.01987e-06 0)
(-4.49062e-06 3.45767e-06 0)
(-3.89875e-06 2.96957e-06 0)
(-3.3855e-06 2.5458e-06 0)
(-2.94144e-06 2.17774e-06 0)
(-2.55832e-06 1.85782e-06 0)
(-2.22891e-06 1.57938e-06 0)
(-1.94695e-06 1.33651e-06 0)
(-1.70701e-06 1.124e-06 0)
(-1.50443e-06 9.37253e-07 0)
(-1.33521e-06 7.72134e-07 0)
(-1.19602e-06 6.24959e-07 0)
(-1.08407e-06 4.92395e-07 0)
(-9.97119e-07 3.71403e-07 0)
(-9.33404e-07 2.59176e-07 0)
(-8.91634e-07 1.53085e-07 0)
(-8.70956e-07 5.06273e-08 0)
(-0.0282986 0.0411803 0)
(-0.0266852 0.0383096 0)
(-0.0251343 0.0356043 0)
(-0.0236459 0.0330578 0)
(-0.02222 0.0306634 0)
(-0.0208561 0.0284148 0)
(-0.0195535 0.0263055 0)
(-0.0183114 0.0243291 0)
(-0.0171291 0.0224793 0)
(-0.0160048 0.0207499 0)
(-0.0149374 0.019135 0)
(-0.0139259 0.0176287 0)
(-0.0129685 0.0162252 0)
(-0.0120635 0.0149189 0)
(-0.0112091 0.0137045 0)
(-0.0104037 0.0125767 0)
(-0.00964555 0.0115306 0)
(-0.00893292 0.0105613 0)
(-0.00826396 0.00966405 0)
(-0.0076368 0.00883448 0)
(-0.00704959 0.00806831 0)
(-0.00650046 0.00736145 0)
(-0.00598762 0.00671002 0)
(-0.00550927 0.00611032 0)
(-0.00506366 0.00555885 0)
(-0.00464908 0.00505226 0)
(-0.00426386 0.00458741 0)
(-0.00390637 0.00416132 0)
(-0.00357503 0.00377117 0)
(-0.0032683 0.00341431 0)
(-0.00298472 0.00308825 0)
(-0.00272285 0.00279064 0)
(-0.00248132 0.0025193 0)
(-0.00225883 0.00227216 0)
(-0.00205413 0.00204731 0)
(-0.00186601 0.00184295 0)
(-0.00169334 0.0016574 0)
(-0.00153504 0.00148912 0)
(-0.00139009 0.00133665 0)
(-0.00125752 0.00119866 0)
(-0.0011364 0.00107389 0)
(-0.00102589 0.000961203 0)
(-0.000925175 0.000859529 0)
(-0.000833485 0.000767886 0)
(-0.000750111 0.00068537 0)
(-0.000674387 0.000611148 0)
(-0.000605688 0.000544455 0)
(-0.000543435 0.000484588 0)
(-0.000487086 0.000430903 0)
(-0.000436139 0.00038281 0)
(-0.000390127 0.00033977 0)
(-0.00034862 0.000301292 0)
(-0.000311217 0.000266925 0)
(-0.000277551 0.000236262 0)
(-0.00024728 0.00020893 0)
(-0.000220094 0.000184592 0)
(-0.000195703 0.000162941 0)
(-0.000173845 0.000143699 0)
(-0.000154277 0.000126615 0)
(-0.000136778 0.000111463 0)
(-0.000121147 9.80352e-05 0)
(-0.000107198 8.61485e-05 0)
(-9.47649e-05 7.56358e-05 0)
(-8.36934e-05 6.63471e-05 0)
(-7.3845e-05 5.81477e-05 0)
(-6.50939e-05 5.09169e-05 0)
(-5.73257e-05 4.45462e-05 0)
(-5.04373e-05 3.89385e-05 0)
(-4.43352e-05 3.40071e-05 0)
(-3.89353e-05 2.96745e-05 0)
(-3.41617e-05 2.58714e-05 0)
(-2.99459e-05 2.25363e-05 0)
(-2.62267e-05 1.96141e-05 0)
(-2.29489e-05 1.70561e-05 0)
(-2.00629e-05 1.48188e-05 0)
(-1.75246e-05 1.28638e-05 0)
(-1.52944e-05 1.1157e-05 0)
(-1.33369e-05 9.66799e-06 0)
(-1.16206e-05 8.37015e-06 0)
(-1.01174e-05 7.2398e-06 0)
(-8.80231e-06 6.25606e-06 0)
(-7.65312e-06 5.40051e-06 0)
(-6.65016e-06 4.6569e-06 0)
(-5.776e-06 4.01092e-06 0)
(-5.01521e-06 3.44997e-06 0)
(-4.35421e-06 2.96296e-06 0)
(-3.781e-06 2.54013e-06 0)
(-3.28507e-06 2.17289e-06 0)
(-2.85718e-06 1.85369e-06 0)
(-2.4893e-06 1.57586e-06 0)
(-2.1744e-06 1.33353e-06 0)
(-1.90643e-06 1.1215e-06 0)
(-1.68018e-06 9.35168e-07 0)
(-1.49119e-06 7.70417e-07 0)
(-1.33574e-06 6.23569e-07 0)
(-1.21072e-06 4.913e-07 0)
(-1.11361e-06 3.70577e-07 0)
(-1.04245e-06 2.586e-07 0)
(-9.95799e-07 1.52745e-07 0)
(-9.72705e-07 5.05148e-08 0)
(-0.0312516 0.0410779 0)
(-0.0294698 0.0382144 0)
(-0.0277571 0.0355159 0)
(-0.0261135 0.0329756 0)
(-0.0245387 0.0305872 0)
(-0.0230325 0.0283442 0)
(-0.021594 0.0262401 0)
(-0.0202223 0.0242686 0)
(-0.0189165 0.0224234 0)
(-0.0176749 0.0206984 0)
(-0.0164962 0.0190875 0)
(-0.0153791 0.0175849 0)
(-0.0143218 0.0161849 0)
(-0.0133223 0.0148818 0)
(-0.0123788 0.0136704 0)
(-0.0114893 0.0125455 0)
(-0.0106521 0.011502 0)
(-0.00986511 0.010535 0)
(-0.00912634 0.00964003 0)
(-0.00843373 0.00881253 0)
(-0.00778523 0.00804826 0)
(-0.00717881 0.00734316 0)
(-0.00661244 0.00669334 0)
(-0.00608417 0.00609514 0)
(-0.00559206 0.00554503 0)
(-0.00513422 0.00503971 0)
(-0.0047088 0.00457601 0)
(-0.00431401 0.00415098 0)
(-0.00394809 0.0037618 0)
(-0.00360936 0.00340582 0)
(-0.00329618 0.00308057 0)
(-0.00300698 0.00278371 0)
(-0.00274026 0.00251304 0)
(-0.00249455 0.00226652 0)
(-0.00226848 0.00204222 0)
(-0.00206073 0.00183837 0)
(-0.00187005 0.00165329 0)
(-0.00169523 0.00148542 0)
(-0.00153515 0.00133333 0)
(-0.00138874 0.00119568 0)
(-0.00125499 0.00107122 0)
(-0.00113295 0.000958815 0)
(-0.00102172 0.000857393 0)
(-0.000920461 0.000765978 0)
(-0.000828387 0.000683667 0)
(-0.000744761 0.00060963 0)
(-0.000668894 0.000543102 0)
(-0.000600144 0.000483384 0)
(-0.000537915 0.000429832 0)