/*--------------------------------*- C++ -*----------------------------------*\
| =========                 |                                                 |
| \\      /  F ield         | OpenFOAM: The Open Source CFD Toolbox           |
|  \\    /   O peration     | Version:  2406                                  |
|   \\  /    A nd           | Website:  www.openfoam.com                      |
|    \\/     M anipulation  |                                                 |
\*---------------------------------------------------------------------------*/
FoamFile
{
    version     2.0;
    format      ascii;
    arch        "LSB;label=32;scalar=64";
    class       volScalarField;
    location    "35";
    object      gradTx;
}
// * * * * * * * * * * * * * * * * * * * * * * * * * * * * * * * * * * * * * //

dimensions      [0 -1 0 1 0 0 0];

internalField   nonuniform List<scalar> 
20000
(
-6.8003
-6.41255
-6.03985
-5.68219
-5.33968
-5.01199
-4.69857
-4.40016
-4.1164
-3.84616
-3.58945
-3.34632
-3.11635
-2.89896
-2.69367
-2.5001
-2.31787
-2.1466
-1.98584
-1.83514
-1.69404
-1.56209
-1.43886
-1.32391
-1.21683
-1.1172
-1.02463
-0.938721
-0.859097
-0.785389
-0.717242
-0.654313
-0.596274
-0.542808
-0.493617
-0.448411
-0.406918
-0.368878
-0.334045
-0.302187
-0.273083
-0.246527
-0.222324
-0.20029
-0.180255
-0.162058
-0.14555
-0.13059
-0.117049
-0.104806
-0.0937493
-0.0837749
-0.0747869
-0.0666966
-0.0594226
-0.0528895
-0.0470283
-0.0417756
-0.0370734
-0.0328684
-0.0291121
-0.0257602
-0.0227724
-0.0201119
-0.0177453
-0.0156423
-0.0137756
-0.0121203
-0.0106539
-0.0093563
-0.00820917
-0.00719612
-0.00630237
-0.00551469
-0.00482119
-0.00421123
-0.0036753
-0.0032049
-0.00279247
-0.00243124
-0.00211522
-0.00183906
-0.00159805
-0.00138798
-0.00120517
-0.00104632
-0.000908581
-0.000789406
-0.000686585
-0.000598181
-0.00052251
-0.000458116
-0.000403747
-0.000358334
-0.000320978
-0.000290934
-0.000267598
-0.000250497
-0.000239286
-0.000233734
-20.3992
-19.2359
-18.118
-17.0454
-16.0174
-15.0344
-14.095
-13.1997
-12.3479
-11.5373
-10.7675
-10.0383
-9.34834
-8.69613
-8.08029
-7.49964
-6.95304
-6.43927
-5.95704
-5.50497
-5.0817
-4.68588
-4.31621
-3.97139
-3.65017
-3.35132
-3.07363
-2.81593
-2.57708
-2.35597
-2.15155
-1.96278
-1.78867
-1.62829
-1.48073
-1.34512
-1.22065
-1.10654
-1.00205
-0.906486
-0.819183
-0.739521
-0.666916
-0.600821
-0.540721
-0.486135
-0.436613
-0.391737
-0.351118
-0.314392
-0.281225
-0.251304
-0.224342
-0.200073
-0.178253
-0.158655
-0.141073
-0.125317
-0.111211
-0.0985971
-0.0873292
-0.0772744
-0.0683116
-0.0603307
-0.0532314
-0.0469231
-0.0413234
-0.0363578
-0.0319591
-0.0280666
-0.0246255
-0.0215866
-0.0189056
-0.0165427
-0.0144624
-0.0126326
-0.011025
-0.00961393
-0.00837673
-0.00729313
-0.00634514
-0.00551674
-0.00479376
-0.00416361
-0.0036152
-0.00313872
-0.00272552
-0.00236803
-0.00205959
-0.0017944
-0.0015674
-0.00137424
-0.00121114
-0.00107492
-0.000962857
-0.000872732
-0.000802728
-0.000751432
-0.000717801
-0.000701149
-33.9934
-32.055
-30.1917
-28.4041
-26.6911
-25.053
-23.4882
-21.9961
-20.5761
-19.2254
-17.943
-16.7279
-15.5781
-14.4911
-13.4648
-12.4973
-11.5865
-10.7304
-9.92679
-9.17346
-8.46811
-7.80852
-7.1925
-6.61789
-6.08262
-5.58461
-5.12187
-4.69244
-4.29442
-3.92598
-3.58533
-3.27076
-2.98063
-2.71337
-2.46747
-2.2415
-2.03409
-1.84393
-1.66981
-1.51056
-1.36508
-1.23233
-1.11134
-1.0012
-0.901053
-0.810091
-0.727569
-0.652788
-0.5851
-0.523901
-0.468631
-0.418771
-0.373842
-0.333401
-0.29704
-0.264382
-0.235083
-0.208827
-0.185321
-0.164301
-0.145525
-0.128769
-0.113834
-0.100535
-0.0887045
-0.0781923
-0.068861
-0.0605864
-0.0532565
-0.04677
-0.0410358
-0.0359717
-0.0315041
-0.0275667
-0.0241
-0.021051
-0.018372
-0.0160206
-0.0139589
-0.0121532
-0.0105735
-0.00919306
-0.00798828
-0.00693822
-0.00602435
-0.00523034
-0.00454179
-0.00394607
-0.00343208
-0.00299017
-0.00261191
-0.00229002
-0.00201824
-0.00179123
-0.0016045
-0.00145431
-0.00133766
-0.00125218
-0.00119614
-0.0011684
-47.5789
-44.8662
-42.2581
-39.7559
-37.3584
-35.0656
-32.8754
-30.787
-28.7993
-26.9089
-25.1141
-23.4134
-21.804
-20.2825
-18.8461
-17.4918
-16.2171
-15.0188
-13.8941
-12.8397
-11.8524
-10.9292
-10.067
-9.26276
-8.51356
-7.81652
-7.16885
-6.5678
-6.01071
-5.49501
-5.01822
-4.57793
-4.17186
-3.79778
-3.45361
-3.13733
-2.84702
-2.58087
-2.33716
-2.11427
-1.91064
-1.72484
-1.5555
-1.40134
-1.26116
-1.13385
-1.01834
-0.913678
-0.818938
-0.733281
-0.655922
-0.586135
-0.52325
-0.466646
-0.415753
-0.370044
-0.329036
-0.292285
-0.259386
-0.229965
-0.203684
-0.180233
-0.159328
-0.140714
-0.124156
-0.109442
-0.0963816
-0.0848001
-0.0745407
-0.0654618
-0.0574359
-0.050348
-0.0440949
-0.0385838
-0.0337317
-0.0294641
-0.0257144
-0.0224233
-0.0195377
-0.0170103
-0.0147992
-0.0128671
-0.0111808
-0.00971112
-0.00843202
-0.00732067
-0.00635694
-0.00552313
-0.00480374
-0.00418521
-0.00365578
-0.00320524
-0.00282484
-0.00250711
-0.00224575
-0.00203554
-0.00187227
-0.00175263
-0.00167419
-0.00163536
-61.1524
-57.6659
-54.3142
-51.098
-48.0166
-45.0694
-42.2544
-39.5703
-37.0154
-34.5857
-32.2791
-30.0932
-28.0245
-26.0689
-24.2226
-22.482
-20.8436
-19.3036
-17.858
-16.5028
-15.2339
-14.0473
-12.939
-11.9053
-10.9424
-10.0465
-9.21405
-8.44153
-7.72551
-7.06269
-6.44987
-5.88398
-5.36205
-4.88126
-4.4389
-4.03238
-3.65925
-3.31717
-3.00394
-2.71745
-2.45573
-2.21692
-1.99927
-1.80113
-1.62096
-1.45732
-1.30887
-1.17434
-1.05257
-0.942479
-0.84305
-0.753354
-0.672528
-0.599776
-0.534363
-0.475614
-0.422907
-0.375671
-0.333386
-0.295572
-0.261794
-0.231652
-0.204783
-0.180858
-0.159576
-0.140665
-0.123878
-0.108993
-0.0958065
-0.0841376
-0.0738219
-0.0647119
-0.0566748
-0.0495915
-0.0433551
-0.0378699
-0.0330505
-0.0288205
-0.0251116
-0.0218632
-0.0190214
-0.016538
-0.0143707
-0.0124816
-0.0108376
-0.00940921
-0.00817053
-0.00709884
-0.00617421
-0.00537922
-0.00469875
-0.00411968
-0.00363075
-0.00322237
-0.00288645
-0.00261627
-0.00240642
-0.00225264
-0.00215183
-0.00210192
-74.7108
-70.4513
-66.3567
-62.4274
-58.6628
-55.0622
-51.623
-48.3438
-45.2223
-42.254
-39.4361
-36.7655
-34.238
-31.8488
-29.5931
-27.4667
-25.4651
-23.5836
-21.8175
-20.1618
-18.6115
-17.1618
-15.8079
-14.545
-13.3685
-12.274
-11.257
-10.3132
-9.4384
-8.62862
-7.87993
-7.18857
-6.55092
-5.96353
-5.42308
-4.92643
-4.47057
-4.05265
-3.66997
-3.31996
-3.00021
-2.70845
-2.44255
-2.20048
-1.98036
-1.78044
-1.59907
-1.43472
-1.28595
-1.15145
-1.02997
-0.920388
-0.821641
-0.732758
-0.652842
-0.581067
-0.516673
-0.458965
-0.407304
-0.361107
-0.319839
-0.283013
-0.250188
-0.220958
-0.194957
-0.171853
-0.151345
-0.133159
-0.117049
-0.102793
-0.0901897
-0.0790598
-0.0692407
-0.0605869
-0.0529678
-0.0462665
-0.0403785
-0.0352106
-0.0306794
-0.0267108
-0.0232388
-0.0202048
-0.0175569
-0.0152491
-0.0132405
-0.0114954
-0.00998211
-0.00867281
-0.00754316
-0.00657191
-0.00574056
-0.0050331
-0.00443577
-0.00393684
-0.00352644
-0.00319636
-0.00293998
-0.00275211
-0.00262895
-0.00256798
-88.251
-83.2195
-78.3829
-73.7414
-69.2945
-65.0413
-60.9789
-57.1054
-53.4182
-49.912
-46.5834
-43.4288
-40.4431
-37.6208
-34.9564
-32.4446
-30.0803
-27.8578
-25.7716
-23.8158
-21.9846
-20.2721
-18.6728
-17.181
-15.7914
-14.4985
-13.2971
-12.1823
-11.149
-10.1924
-9.30805
-8.49139
-7.73817
-7.04433
-6.40594
-5.81928
-5.2808
-4.78713
-4.33509
-3.92165
-3.54395
-3.19932
-2.88522
-2.59928
-2.33927
-2.10312
-1.88888
-1.69474
-1.51901
-1.36013
-1.21664
-1.08719
-0.970551
-0.86556
-0.77116
-0.686376
-0.610312
-0.542146
-0.481122
-0.426552
-0.377805
-0.334305
-0.295531
-0.261003
-0.23029
-0.202999
-0.178774
-0.157292
-0.138262
-0.121422
-0.106535
-0.0933883
-0.0817896
-0.0715674
-0.0625674
-0.0546516
-0.0476966
-0.041592
-0.0362396
-0.0315517
-0.0274505
-0.0238667
-0.0207389
-0.0180127
-0.0156402
-0.0135788
-0.0117912
-0.0102446
-0.00891026
-0.00776299
-0.00678096
-0.00594528
-0.0052397
-0.00465035
-0.00416556
-0.00377566
-0.00347281
-0.0032509
-0.00310542
-0.0030334
-101.769
-95.9672
-90.3897
-85.0372
-79.9092
-75.0044
-70.3197
-65.8529
-61.6008
-57.5576
-53.7191
-50.0813
-46.6382
-43.3836
-40.311
-37.4145
-34.688
-32.1252
-29.7194
-27.464
-25.3522
-23.3774
-21.5331
-19.8128
-18.2103
-16.7194
-15.334
-14.0484
-12.8568
-11.7537
-10.7339
-9.79211
-8.92352
-8.12339
-7.38721
-6.71068
-6.08972
-5.52043
-4.99915
-4.52237
-4.08682
-3.6894
-3.32718
-2.99744
-2.6976
-2.42528
-2.17822
-1.95434
-1.75169
-1.56847
-1.403
-1.25373
-1.11922
-0.998148
-0.889287
-0.791517
-0.703801
-0.625192
-0.554821
-0.491892
-0.435677
-0.385515
-0.3408
-0.300984
-0.265567
-0.234095
-0.206159
-0.181386
-0.159441
-0.140022
-0.122855
-0.107694
-0.0943183
-0.0825302
-0.0721516
-0.0630233
-0.0550028
-0.0479632
-0.0417909
-0.0363849
-0.0316554
-0.0275226
-0.0239157
-0.020772
-0.018036
-0.0156589
-0.0135975
-0.011814
-0.0102752
-0.00895215
-0.0078197
-0.00685601
-0.00604234
-0.00536271
-0.00480366
-0.00435404
-0.0040048
-0.0037489
-0.00358113
-0.00349808
-115.263
-108.691
-102.374
-96.3121
-90.5041
-84.949
-79.6432
-74.5842
-69.7683
-65.1889
-60.8416
-56.7214
-52.8218
-49.1356
-45.6557
-42.3752
-39.2872
-36.3846
-33.6599
-31.1054
-28.7136
-26.477
-24.3881
-22.4398
-20.6247
-18.9361
-17.3671
-15.911
-14.5614
-13.3121
-12.157
-11.0904
-10.1067
-9.20044
-8.36665
-7.60043
-6.89714
-6.25237
-5.66197
-5.12198
-4.62868
-4.17856
-3.76832
-3.39486
-3.05527
-2.74684
-2.46702
-2.21346
-1.98395
-1.77643
-1.58902
-1.41996
-1.26762
-1.13049
-1.0072
-0.896462
-0.797116
-0.708085
-0.628383
-0.55711
-0.493443
-0.436629
-0.385986
-0.340891
-0.300778
-0.265133
-0.233493
-0.205436
-0.180581
-0.158587
-0.139144
-0.121973
-0.106824
-0.0934728
-0.0817181
-0.0713794
-0.0622956
-0.0543225
-0.0473318
-0.0412091
-0.0358526
-0.0311718
-0.0270867
-0.0235261
-0.0204274
-0.0177351
-0.0154003
-0.0133804
-0.0116376
-0.0101391
-0.00885651
-0.00776505
-0.00684349
-0.00607375
-0.00544058
-0.00493134
-0.0045358
-0.00424597
-0.00405596
-0.0039619
-128.728
-121.388
-114.333
-107.563
-101.077
-94.8726
-88.9471
-83.297
-77.9185
-72.8042
-67.9491
-63.3476
-58.9924
-54.8756
-50.9891
-47.3254
-43.8767
-40.635
-37.592
-34.7391
-32.0679
-29.57
-27.2371
-25.0611
-23.0341
-21.1482
-19.3959
-17.7697
-16.2625
-14.8672
-13.5772
-12.386
-11.2873
-10.2752
-9.34404
-8.4883
-7.70285
-6.98277
-6.32339
-5.72032
-5.1694
-4.6667
-4.20853
-3.79144
-3.41219
-3.06772
-2.75522
-2.47203
-2.21571
-1.98395
-1.77465
-1.58584
-1.4157
-1.26255
-1.12486
-1.00119
-0.890235
-0.790803
-0.701791
-0.622191
-0.551086
-0.487636
-0.431077
-0.380714
-0.335914
-0.296106
-0.260769
-0.229434
-0.201677
-0.177113
-0.155398
-0.136221
-0.119303
-0.104392
-0.0912644
-0.079718
-0.0695729
-0.0606685
-0.0528612
-0.0460232
-0.0400409
-0.0348133
-0.030251
-0.0262745
-0.0228137
-0.0198069
-0.0171994
-0.0149435
-0.0129971
-0.0113236
-0.00989114
-0.00867218
-0.00764297
-0.00678331
-0.00607617
-0.00550744
-0.00506569
-0.004742
-0.0045298
-0.00442475
-142.161
-134.056
-126.264
-118.788
-111.624
-104.773
-98.229
-91.9893
-86.0495
-80.4016
-75.0398
-69.9581
-65.1484
-60.6019
-56.3099
-52.264
-48.4554
-44.8755
-41.5149
-38.3643
-35.4143
-32.6557
-30.0794
-27.6763
-25.4378
-23.3551
-21.4199
-19.624
-17.9595
-16.4186
-14.994
-13.6785
-12.4652
-11.3475
-10.3191
-9.37408
-8.50667
-7.71144
-6.98326
-6.31726
-5.70884
-5.15368
-4.64771
-4.18709
-3.76826
-3.38785
-3.04274
-2.73
-2.44692
-2.19099
-1.95984
-1.75133
-1.56343
-1.3943
-1.24224
-1.10566
-0.983133
-0.873326
-0.775025
-0.687119
-0.608594
-0.538522
-0.476061
-0.420442
-0.370968
-0.327006
-0.287981
-0.253377
-0.222722
-0.195596
-0.171615
-0.150437
-0.131753
-0.115286
-0.100788
-0.0880368
-0.0768332
-0.0669995
-0.0583774
-0.0508259
-0.0442193
-0.0384463
-0.0334078
-0.0290163
-0.0251945
-0.0218738
-0.0189943
-0.0165029
-0.0143534
-0.0125053
-0.0109233
-0.00957717
-0.00844056
-0.00749119
-0.00671026
-0.00608218
-0.00559434
-0.00523687
-0.00500252
-0.00488651
-155.559
-146.69
-138.164
-129.983
-122.144
-114.647
-107.487
-100.659
-94.1593
-87.9791
-82.112
-76.5513
-71.2884
-66.3134
-61.6169
-57.1896
-53.0222
-49.1048
-45.4275
-41.98
-38.752
-35.7334
-32.9142
-30.2847
-27.8352
-25.5562
-23.4386
-21.4735
-19.6521
-17.966
-16.4072
-14.9676
-13.64
-12.4169
-11.2916
-10.2575
-9.30838
-8.43821
-7.6414
-6.91263
-6.24688
-5.63939
-5.08573
-4.58171
-4.1234
-3.70714
-3.3295
-2.98729
-2.67754
-2.39748
-2.14455
-1.91638
-1.71078
-1.52571
-1.35931
-1.20987
-1.07579
-0.955633
-0.848068
-0.751877
-0.665951
-0.589276
-0.520928
-0.460067
-0.40593
-0.357825
-0.315123
-0.277256
-0.243713
-0.21403
-0.187789
-0.164615
-0.14417
-0.126151
-0.110287
-0.096334
-0.0840744
-0.073314
-0.0638793
-0.0556161
-0.0483869
-0.0420697
-0.0365564
-0.0317511
-0.027569
-0.0239354
-0.0207844
-0.0180583
-0.0157062
-0.0136839
-0.0119529
-0.0104798
-0.00923608
-0.00819723
-0.0073427
-0.00665543
-0.00612161
-0.00573045
-0.00547401
-0.00534707
-168.918
-159.288
-150.03
-141.146
-132.634
-124.493
-116.718
-109.304
-102.246
-95.5348
-89.1639
-83.1257
-77.4107
-72.0085
-66.9086
-62.1012
-57.5758
-53.322
-49.3289
-45.5853
-42.0801
-38.8022
-35.741
-32.8856
-30.2257
-27.751
-25.4516
-23.3177
-21.3399
-19.509
-17.8162
-16.2531
-14.8114
-13.4833
-12.2614
-11.1385
-10.1078
-9.1629
-8.29766
-7.5063
-6.78337
-6.12372
-5.5225
-4.97519
-4.47752
-4.02551
-3.61544
-3.24384
-2.90749
-2.60338
-2.32873
-2.08096
-1.8577
-1.65674
-1.47605
-1.31377
-1.16818
-1.0377
-0.920901
-0.81645
-0.723145
-0.639884
-0.565667
-0.499579
-0.440793
-0.388555
-0.342186
-0.301068
-0.264644
-0.232411
-0.203917
-0.178752
-0.156552
-0.136986
-0.119759
-0.104607
-0.091295
-0.0796104
-0.0693655
-0.0603926
-0.0525425
-0.0456828
-0.039696
-0.034478
-0.0299367
-0.0259911
-0.0225695
-0.0196092
-0.0170551
-0.0148591
-0.0129794
-0.0113799
-0.0100293
-0.00890126
-0.00797334
-0.00722704
-0.00664737
-0.00622262
-0.00594416
-0.00580632
-182.236
-171.846
-161.859
-152.274
-143.092
-134.309
-125.92
-117.922
-110.307
-103.067
-96.1938
-89.6795
-83.514
-77.6858
-72.1839
-66.9974
-62.1153
-57.5261
-53.2181
-49.1794
-45.3978
-41.8615
-38.5589
-35.4784
-32.6088
-29.939
-27.4582
-25.1561
-23.0223
-21.0471
-19.2209
-17.5345
-15.9791
-14.5464
-13.2281
-12.0167
-10.9047
-9.88532
-8.95186
-8.09812
-7.31819
-6.60652
-5.95791
-5.36745
-4.83054
-4.3429
-3.90049
-3.4996
-3.13672
-2.80863
-2.51233
-2.24503
-2.00417
-1.78736
-1.59243
-1.41735
-1.26028
-1.11952
-0.993508
-0.880821
-0.780159
-0.690335
-0.610265
-0.538967
-0.475546
-0.41919
-0.369165
-0.324805
-0.285509
-0.250735
-0.219994
-0.192846
-0.168895
-0.147786
-0.129201
-0.112855
-0.0984931
-0.0858872
-0.0748346
-0.0651542
-0.0566852
-0.0492847
-0.0428258
-0.0371964
-0.0322971
-0.0280403
-0.024349
-0.0211553
-0.0183998
-0.0160307
-0.0140028
-0.0122771
-0.0108201
-0.00960309
-0.00860201
-0.00779687
-0.0071715
-0.00671326
-0.00641285
-0.00626413
-195.509
-184.363
-173.648
-163.365
-153.514
-144.091
-135.091
-126.51
-118.341
-110.574
-103.2
-96.2113
-89.5966
-83.3439
-77.4413
-71.8771
-66.6394
-61.716
-57.0943
-52.7613
-48.7043
-44.9104
-41.3673
-38.0624
-34.9838
-32.1195
-29.4581
-26.9883
-24.6992
-22.5801
-20.6208
-18.8116
-17.143
-15.6058
-14.1916
-12.8919
-11.699
-10.6053
-9.60386
-8.68793
-7.8512
-7.0877
-6.39185
-5.75838
-5.18237
-4.65921
-4.18458
-3.75449
-3.36518
-3.0132
-2.69531
-2.40855
-2.15014
-1.91754
-1.70841
-1.52059
-1.35208
-1.20106
-1.06587
-0.944975
-0.836982
-0.740615
-0.654714
-0.578223
-0.510182
-0.449722
-0.396053
-0.348462
-0.306304
-0.268997
-0.236017
-0.206892
-0.181196
-0.15855
-0.138612
-0.121075
-0.105667
-0.0921429
-0.0802852
-0.0698997
-0.0608139
-0.0528743
-0.0459451
-0.0399056
-0.0346495
-0.0300827
-0.0261225
-0.0226962
-0.01974
-0.0171983
-0.0150227
-0.0131714
-0.0116082
-0.0103026
-0.00922857
-0.00836478
-0.00769386
-0.00720225
-0.00687996
-0.00672041
-208.734
-196.833
-185.394
-174.416
-163.898
-153.838
-144.229
-135.068
-126.346
-118.053
-110.181
-102.719
-95.6571
-88.9815
-82.6796
-76.7391
-71.1471
-65.8907
-60.9563
-56.3302
-51.9988
-47.9483
-44.1655
-40.637
-37.3502
-34.2922
-31.4508
-28.8139
-26.3699
-24.1074
-22.0157
-20.0841
-18.3026
-16.6615
-15.1515
-13.7639
-12.4903
-11.3227
-10.2535
-9.27561
-8.38227
-7.56713
-6.82421
-6.1479
-5.53292
-4.97437
-4.46764
-4.00845
-3.59281
-3.21702
-2.87763
-2.57147
-2.29558
-2.04725
-1.82397
-1.62344
-1.44353
-1.2823
-1.13797
-1.0089
-0.893598
-0.790712
-0.699001
-0.617335
-0.544693
-0.480143
-0.422843
-0.372033
-0.327024
-0.287193
-0.251982
-0.220886
-0.193453
-0.169275
-0.147988
-0.129265
-0.112815
-0.0983758
-0.085716
-0.074628
-0.0649276
-0.056451
-0.049053
-0.042605
-0.0369933
-0.0321176
-0.0278896
-0.0242314
-0.0210753
-0.0183617
-0.016039
-0.0140624
-0.0123935
-0.0109995
-0.00985285
-0.00893064
-0.00821433
-0.00768946
-0.00734537
-0.00717504
-221.907
-209.256
-197.094
-185.423
-174.241
-163.546
-153.332
-143.592
-134.32
-125.504
-117.134
-109.202
-101.694
-94.5971
-87.8976
-81.5821
-75.6372
-70.0491
-64.8033
-59.8853
-55.2804
-50.9743
-46.9527
-43.2017
-39.7073
-36.4564
-33.4356
-30.6323
-28.0341
-25.6289
-23.4051
-21.3516
-19.4576
-17.713
-16.1077
-14.6326
-13.2786
-12.0373
-10.9006
-9.86099
-8.91128
-8.0447
-7.25489
-6.53589
-5.88211
-5.2883
-4.74959
-4.26142
-3.81956
-3.42005
-3.05924
-2.73375
-2.44046
-2.17646
-1.93909
-1.7259
-1.53464
-1.36323
-1.20979
-1.07257
-0.949993
-0.840615
-0.743115
-0.656296
-0.579069
-0.510445
-0.449529
-0.395513
-0.347663
-0.305318
-0.267885
-0.234827
-0.205662
-0.179958
-0.157327
-0.137423
-0.119934
-0.104584
-0.0911257
-0.079338
-0.0690253
-0.0600137
-0.0521488
-0.0452939
-0.0393281
-0.0341447
-0.0296497
-0.0257608
-0.0224054
-0.0195206
-0.0170512
-0.0149499
-0.0131757
-0.0116937
-0.0104747
-0.0094943
-0.00873278
-0.00817479
-0.00780898
-0.0076279
-235.026
-221.626
-208.746
-196.385
-184.542
-173.215
-162.396
-152.081
-142.26
-132.923
-124.059
-115.658
-107.706
-100.189
-93.0938
-86.405
-80.1087
-74.1902
-68.6343
-63.4255
-58.5484
-53.9878
-49.7284
-45.7556
-42.0547
-38.6115
-35.4122
-32.4432
-29.6914
-27.144
-24.7887
-22.6138
-20.6079
-18.7601
-17.06
-15.4976
-14.0636
-12.7489
-11.545
-10.4439
-9.43809
-8.52028
-7.68378
-6.92227
-6.22984
-5.60093
-5.03038
-4.51335
-4.04536
-3.62223
-3.24009
-2.89537
-2.58473
-2.30512
-2.05372
-1.82793
-1.62536
-1.44382
-1.2813
-1.13598
-1.00615
-0.89031
-0.787046
-0.695095
-0.613302
-0.540621
-0.476105
-0.418894
-0.368216
-0.323368
-0.283722
-0.248709
-0.21782
-0.190597
-0.166628
-0.145547
-0.127025
-0.110767
-0.0965129
-0.0840283
-0.073106
-0.0635617
-0.0552318
-0.0479716
-0.0416531
-0.0361633
-0.0314026
-0.0272837
-0.02373
-0.0206746
-0.0180593
-0.0158337
-0.0139546
-0.0123851
-0.011094
-0.0100556
-0.00924908
-0.0086581
-0.00827067
-0.00807888
-248.086
-233.942
-220.346
-207.298
-194.797
-182.84
-171.421
-160.532
-150.166
-140.31
-130.953
-122.085
-113.691
-105.757
-98.2671
-91.2066
-84.5604
-78.313
-72.4483
-66.9501
-61.802
-56.9879
-52.4919
-48.2983
-44.3917
-40.7572
-37.3801
-34.2461
-31.3413
-28.6524
-26.1662
-23.8705
-21.7531
-19.8026
-18.008
-16.3588
-14.8451
-13.4573
-12.1866
-11.0243
-9.96257
-8.99375
-8.11077
-7.30695
-6.57603
-5.91218
-5.30992
-4.76416
-4.27016
-3.82352
-3.42015
-3.05626
-2.72836
-2.43322
-2.16785
-1.92951
-1.71568
-1.52405
-1.35251
-1.1991
-1.06207
-0.939785
-0.830783
-0.733722
-0.647383
-0.570664
-0.502562
-0.442173
-0.388678
-0.341338
-0.299489
-0.26253
-0.229925
-0.201189
-0.175888
-0.153636
-0.134084
-0.116923
-0.101876
-0.0886979
-0.0771687
-0.067094
-0.0583012
-0.0506375
-0.0439679
-0.038173
-0.0331478
-0.0288
-0.0250488
-0.0218236
-0.0190629
-0.0167137
-0.0147301
-0.0130734
-0.0117105
-0.0106145
-0.0097631
-0.00913928
-0.00873032
-0.00852787
-261.086
-246.2
-231.891
-218.16
-205.004
-192.421
-180.403
-168.943
-158.034
-147.662
-137.815
-128.482
-119.648
-111.298
-103.416
-95.9856
-88.9912
-82.4165
-76.2445
-70.4582
-65.0403
-59.974
-55.2424
-50.829
-46.7178
-42.8928
-39.3387
-36.0405
-32.9836
-30.1537
-27.5373
-25.1213
-22.8929
-20.8402
-18.9516
-17.216
-15.6229
-14.1625
-12.8251
-11.602
-10.4846
-9.46501
-8.53576
-7.68982
-6.92061
-6.22197
-5.58815
-5.01379
-4.49391
-4.02387
-3.59936
-3.21641
-2.87133
-2.56072
-2.28144
-2.03061
-1.80558
-1.60391
-1.42338
-1.26193
-1.11772
-0.989028
-0.874315
-0.772168
-0.681306
-0.600566
-0.528896
-0.465342
-0.409044
-0.359224
-0.315182
-0.276287
-0.241973
-0.211731
-0.185105
-0.161686
-0.14111
-0.12305
-0.107215
-0.0933457
-0.0812123
-0.0706097
-0.0613562
-0.053291
-0.0462718
-0.0401733
-0.0348847
-0.0303091
-0.0263614
-0.0229672
-0.0200619
-0.0175895
-0.015502
-0.0137584
-0.0123242
-0.0111707
-0.0102747
-0.00961821
-0.00918782
-0.00897476
-274.021
-258.398
-243.38
-228.968
-215.161
-201.954
-189.341
-177.313
-165.864
-154.977
-144.642
-134.847
-125.576
-116.813
-108.54
-100.741
-93.4001
-86.4996
-80.0219
-73.9489
-68.2626
-62.9453
-57.9792
-53.3472
-49.0323
-45.0178
-41.2877
-37.8261
-34.6176
-31.6476
-28.9016
-26.3658
-24.0271
-21.8727
-19.8905
-18.0689
-16.3969
-14.8641
-13.4605
-12.1768
-11.004
-9.93393
-8.95865
-8.07079
-7.26347
-6.53022
-5.865
-5.26219
-4.71655
-4.22322
-3.77768
-3.37576
-3.01358
-2.68758
-2.39447
-2.13121
-1.89503
-1.68338
-1.4939
-1.32445
-1.17309
-1.03803
-0.917631
-0.810423
-0.71506
-0.63032
-0.555099
-0.488397
-0.42931
-0.377021
-0.330797
-0.289975
-0.253961
-0.222221
-0.194275
-0.169697
-0.148101
-0.129146
-0.112526
-0.0979704
-0.0852359
-0.074108
-0.0643961
-0.0559313
-0.0485644
-0.0421636
-0.0366131
-0.0318108
-0.0276675
-0.0241051
-0.0210558
-0.018461
-0.0162701
-0.0144401
-0.0129348
-0.0117242
-0.0107838
-0.0100948
-0.00964305
-0.00941944
-286.888
-270.531
-254.808
-239.72
-225.264
-211.437
-198.231
-185.64
-173.652
-162.255
-151.435
-141.179
-131.473
-122.298
-113.636
-105.472
-97.786
-90.5614
-83.7795
-77.4213
-71.4681
-65.901
-60.7018
-55.8522
-51.3347
-47.1317
-43.2264
-39.6023
-36.2432
-33.1337
-30.2587
-27.6039
-25.1554
-22.8998
-20.8245
-18.9174
-17.1669
-15.5621
-14.0926
-12.7486
-11.5207
-10.4004
-9.37932
-8.44978
-7.60455
-6.83686
-6.1404
-5.50929
-4.93803
-4.42153
-3.95507
-3.53427
-3.15509
-2.81378
-2.50691
-2.23129
-1.98402
-1.76242
-1.56405
-1.38665
-1.22818
-1.08677
-0.960721
-0.848479
-0.748637
-0.659919
-0.581166
-0.511331
-0.449469
-0.394725
-0.346331
-0.303592
-0.265887
-0.232656
-0.203398
-0.177665
-0.155055
-0.13521
-0.117811
-0.102571
-0.0892385
-0.0775881
-0.0674201
-0.0585578
-0.0508449
-0.0441436
-0.0383324
-0.0333046
-0.0289667
-0.0252371
-0.0220446
-0.0193279
-0.0170342
-0.0151182
-0.0135423
-0.0122747
-0.0112902
-0.0105688
-0.0100959
-0.0098618
-299.684
-282.598
-266.174
-250.413
-235.312
-220.868
-207.073
-193.92
-181.398
-169.492
-158.189
-147.477
-137.337
-127.753
-118.705
-110.176
-102.148
-94.6009
-87.5165
-80.8747
-74.6559
-68.8405
-63.4093
-58.3435
-53.6244
-49.234
-45.1545
-41.3687
-37.8598
-34.6116
-31.6084
-28.8352
-26.2774
-23.9212
-21.7534
-19.7612
-17.9326
-16.2562
-14.7212
-13.3172
-12.0346
-10.8643
-9.79768
-8.82668
-7.94374
-7.14182
-6.41429
-5.75503
-5.15829
-4.61875
-4.13149
-3.69192
-3.29582
-2.93929
-2.61873
-2.33082
-2.07252
-1.84103
-1.63381
-1.4485
-1.28296
-1.13525
-1.00357
-0.886326
-0.78203
-0.689354
-0.607089
-0.534139
-0.469518
-0.412332
-0.361779
-0.317134
-0.277747
-0.243033
-0.212471
-0.18559
-0.161972
-0.141242
-0.123066
-0.107146
-0.0932191
-0.081049
-0.0704274
-0.0611698
-0.0531129
-0.0461127
-0.0400423
-0.0347903
-0.0302589
-0.0263628
-0.023028
-0.0201901
-0.017794
-0.0157926
-0.0141464
-0.0128223
-0.0117939
-0.0110403
-0.0105463
-0.0103017
-312.407
-294.596
-277.474
-261.043
-245.302
-230.245
-215.864
-202.152
-189.099
-176.687
-164.905
-153.737
-143.168
-133.176
-123.744
-114.853
-106.484
-98.617
-91.2318
-84.3081
-77.8252
-71.763
-66.1012
-60.8203
-55.901
-51.3242
-47.0715
-43.1249
-39.4671
-36.0809
-32.9503
-30.0593
-27.393
-24.9368
-22.6769
-20.6001
-18.6939
-16.9464
-15.3461
-13.8826
-12.5455
-11.3255
-10.2136
-9.2014
-8.28098
-7.44501
-6.6866
-5.99935
-5.37727
-4.81483
-4.30688
-3.84865
-3.43574
-3.06407
-2.7299
-2.42977
-2.1605
-1.91919
-1.70317
-1.50999
-1.33743
-1.18344
-1.04618
-0.923953
-0.81523
-0.71862
-0.632862
-0.556815
-0.489451
-0.429837
-0.377138
-0.330597
-0.289538
-0.253351
-0.221491
-0.193469
-0.168848
-0.147238
-0.12829
-0.111695
-0.0971767
-0.0844899
-0.0734174
-0.0637668
-0.0553679
-0.0480705
-0.0417424
-0.0362673
-0.0315435
-0.0274821
-0.0240057
-0.0210473
-0.0185495
-0.0164632
-0.014747
-0.0133667
-0.0122946
-0.0115091
-0.0109941
-0.0107391
-325.052
-306.52
-288.705
-271.61
-255.231
-239.565
-224.602
-210.335
-196.753
-183.839
-171.58
-159.96
-148.963
-138.567
-128.753
-119.502
-110.794
-102.609
-94.9247
-87.7207
-80.9754
-74.6678
-68.7769
-63.2822
-58.1637
-53.4016
-48.9768
-44.8705
-41.0646
-37.5414
-34.284
-31.276
-28.5018
-25.9461
-23.5948
-21.4339
-19.4506
-17.6323
-15.9673
-14.4445
-13.0533
-11.784
-10.627
-9.57385
-8.61617
-7.74636
-6.95726
-6.24218
-5.59493
-5.00973
-4.48121
-4.00444
-3.57481
-3.1881
-2.8404
-2.52812
-2.24796
-1.99688
-1.77211
-1.57111
-1.39156
-1.23135
-1.08853
-0.961353
-0.848229
-0.747708
-0.658479
-0.579354
-0.509263
-0.447236
-0.392404
-0.343979
-0.301258
-0.263607
-0.230457
-0.201301
-0.175683
-0.153198
-0.133483
-0.116217
-0.10111
-0.08791
-0.0763893
-0.066348
-0.0576091
-0.0500164
-0.0434321
-0.0377354
-0.0328204
-0.0285946
-0.0249774
-0.0218993
-0.0193004
-0.0171296
-0.015344
-0.0139078
-0.0127923
-0.011975
-0.0114391
-0.0111739
-337.618
-318.369
-299.866
-282.109
-265.097
-248.825
-233.284
-218.466
-204.359
-190.946
-178.212
-166.144
-154.721
-143.923
-133.73
-124.122
-115.077
-106.575
-98.5941
-91.1116
-84.1056
-77.5541
-71.4355
-65.7284
-60.4121
-55.4659
-50.8701
-46.605
-42.652
-38.9926
-35.6093
-32.485
-29.6035
-26.9491
-24.5069
-22.2625
-20.2025
-18.3139
-16.5845
-15.0029
-13.5579
-12.2395
-11.0378
-9.94393
-8.94924
-8.04581
-7.2262
-6.48348
-5.81121
-5.20338
-4.65444
-4.15923
-3.713
-3.31134
-2.9502
-2.62585
-2.33485
-2.07407
-1.84061
-1.63185
-1.44536
-1.27894
-1.13061
-0.998516
-0.881019
-0.776612
-0.683933
-0.60175
-0.528949
-0.464525
-0.407573
-0.357277
-0.312904
-0.273797
-0.239366
-0.209082
-0.182474
-0.15912
-0.138644
-0.120709
-0.105019
-0.0913084
-0.0793424
-0.0689129
-0.0598362
-0.0519499
-0.0451111
-0.0391942
-0.0340892
-0.0297
-0.025943
-0.0227459
-0.0200465
-0.0177918
-0.0159372
-0.0144455
-0.0132869
-0.0124379
-0.0118814
-0.0116059
-350.1
-330.139
-310.952
-292.539
-274.898
-258.024
-241.909
-226.543
-211.914
-198.005
-184.801
-172.286
-160.441
-149.244
-138.675
-128.711
-119.332
-110.515
-102.239
-94.4801
-87.215
-80.4213
-74.0765
-68.1585
-62.6455
-57.5165
-52.7508
-48.3281
-44.2289
-40.4342
-36.9258
-33.686
-30.698
-27.9454
-25.4129
-23.0856
-20.9494
-18.991
-17.1977
-15.5575
-14.0592
-12.692
-11.4459
-10.3116
-9.2801
-8.34327
-7.49336
-6.72318
-6.02605
-5.39576
-4.82652
-4.31301
-3.85027
-3.43376
-3.05927
-2.72293
-2.42117
-2.15075
-1.90866
-1.69218
-1.49879
-1.32623
-1.17241
-1.03543
-0.913591
-0.805325
-0.709219
-0.623998
-0.548505
-0.481699
-0.422641
-0.370486
-0.324472
-0.28392
-0.248216
-0.216813
-0.189221
-0.165003
-0.143769
-0.125172
-0.108902
-0.0946843
-0.0822759
-0.0714608
-0.0620485
-0.0538706
-0.046779
-0.0406434
-0.0353496
-0.0307981
-0.0269023
-0.023587
-0.0207877
-0.0184497
-0.0165264
-0.0149796
-0.0137782
-0.0128978
-0.0123207
-0.012035
-362.495
-341.828
-321.961
-302.896
-284.631
-267.16
-250.474
-234.564
-219.417
-205.016
-191.344
-178.386
-166.122
-154.528
-143.584
-133.268
-123.557
-114.428
-105.859
-97.8252
-90.303
-83.2687
-76.6993
-70.5717
-64.8635
-59.553
-54.6184
-50.0391
-45.7948
-41.8658
-38.2332
-34.8787
-31.7849
-28.9349
-26.3127
-23.9029
-21.6911
-19.6634
-17.8066
-16.1083
-14.557
-13.1414
-11.8512
-10.6767
-9.60867
-8.63867
-7.75867
-6.96122
-6.23941
-5.5868
-4.99741
-4.46571
-3.9866
-3.55534
-3.16759
-2.81933
-2.5069
-2.2269
-1.97624
-1.75209
-1.55186
-1.37319
-1.21392
-1.07209
-0.945938
-0.833838
-0.73433
-0.646091
-0.567926
-0.498755
-0.437606
-0.383603
-0.335961
-0.293972
-0.257004
-0.224489
-0.195921
-0.170846
-0.14886
-0.129604
-0.112758
-0.0980368
-0.0851891
-0.0739911
-0.0642455
-0.0557781
-0.0484354
-0.0420825
-0.0366013
-0.0318887
-0.0278548
-0.0244221
-0.0215238
-0.019103
-0.0171116
-0.0155101
-0.0142661
-0.0133545
-0.012757
-0.0124612
-374.801
-353.433
-332.892
-313.179
-294.294
-276.23
-258.977
-242.527
-226.866
-211.976
-197.84
-184.442
-171.761
-159.774
-148.459
-137.792
-127.751
-118.313
-109.453
-101.146
-93.3686
-86.0956
-79.3031
-72.9675
-67.0656
-61.5747
-56.4726
-51.7379
-47.3495
-43.2871
-39.5311
-36.0628
-32.8639
-29.9172
-27.2059
-24.7144
-22.4275
-20.3309
-18.4111
-16.6552
-15.0511
-13.5875
-12.2535
-11.0391
-9.93487
-8.93194
-8.02206
-7.19755
-6.45123
-5.77646
-5.16706
-4.61732
-4.12194
-3.67604
-3.27512
-2.91505
-2.592
-2.3025
-2.04333
-1.81157
-1.60454
-1.4198
-1.25513
-1.10849
-0.978052
-0.862146
-0.75926
-0.668026
-0.587206
-0.515687
-0.452462
-0.396626
-0.347367
-0.303953
-0.265729
-0.232111
-0.202572
-0.176646
-0.153914
-0.134004
-0.116586
-0.101365
-0.0880812
-0.0765031
-0.0664267
-0.0576718
-0.0500798
-0.0435112
-0.0378439
-0.0329713
-0.0288005
-0.0252513
-0.0222546
-0.0197515
-0.0176926
-0.0160367
-0.0147504
-0.013808
-0.0131901
-0.0128843
-387.015
-364.95
-343.739
-323.385
-303.884
-285.231
-267.417
-250.43
-234.259
-218.883
-204.287
-190.453
-177.358
-164.981
-153.297
-142.282
-131.914
-122.169
-113.02
-104.442
-96.4112
-88.9012
-81.8873
-75.3452
-69.251
-63.5812
-58.3129
-53.4239
-48.8924
-44.6977
-40.8193
-37.238
-33.9349
-30.8921
-28.0925
-25.5198
-23.1583
-20.9934
-19.011
-17.1979
-15.5416
-14.0303
-12.6528
-11.3988
-10.2586
-9.223
-8.28348
-7.43209
-6.66146
-5.9647
-5.33544
-4.76778
-4.25626
-3.79583
-3.38185
-3.01004
-2.67647
-2.37753
-2.10992
-1.87061
-1.65683
-1.46607
-1.29603
-1.14461
-1.00992
-0.890242
-0.784003
-0.689795
-0.606342
-0.532492
-0.467207
-0.409552
-0.358687
-0.313858
-0.274389
-0.239675
-0.209174
-0.182402
-0.15893
-0.138371
-0.120385
-0.104669
-0.0909517
-0.0789963
-0.0685915
-0.0595513
-0.0517118
-0.0449292
-0.0390773
-0.0340458
-0.0297391
-0.0260743
-0.0229799
-0.0203953
-0.0182692
-0.0165593
-0.0152312
-0.014258
-0.01362
-0.0133042
-399.133
-376.377
-354.503
-333.511
-313.399
-294.162
-275.79
-258.271
-241.594
-225.737
-210.684
-196.416
-182.912
-170.147
-158.097