/*--------------------------------*- C++ -*----------------------------------*\
| =========                 |                                                 |
| \\      /  F ield         | OpenFOAM: The Open Source CFD Toolbox           |
|  \\    /   O peration     | Version:  2406                                  |
|   \\  /    A nd           | Website:  www.openfoam.com                      |
|    \\/     M anipulation  |                                                 |
\*---------------------------------------------------------------------------*/
FoamFile
{
    version     2.0;
    format      ascii;
    arch        "LSB;label=32;scalar=64";
    class       volScalarField;
    location    "75";
    object      gradTx;
}
// * * * * * * * * * * * * * * * * * * * * * * * * * * * * * * * * * * * * * //

dimensions      [0 -1 0 1 0 0 0];

internalField   nonuniform List<scalar> 
20000
(
-5.5486
-5.53229
-5.50336
-5.46301
-5.41194
-5.35138
-5.28307
-5.20638
-5.12208
-5.03236
-4.9376
-4.83778
-4.73355
-4.62583
-4.51535
-4.40261
-4.28798
-4.17184
-4.05461
-3.93671
-3.81854
-3.70046
-3.58279
-3.46581
-3.34977
-3.2349
-3.1214
-3.00947
-2.89927
-2.79095
-2.68466
-2.58049
-2.47857
-2.37898
-2.28178
-2.18705
-2.09482
-2.00515
-1.91805
-1.83354
-1.75163
-1.67233
-1.59562
-1.52149
-1.44993
-1.3809
-1.31438
-1.25033
-1.18871
-1.12948
-1.0726
-1.01801
-0.965665
-0.915514
-0.867501
-0.82157
-0.777664
-0.735726
-0.695697
-0.65752
-0.621135
-0.586485
-0.553511
-0.522156
-0.492364
-0.464078
-0.437242
-0.411803
-0.387709
-0.364906
-0.343344
-0.322974
-0.303749
-0.285622
-0.268548
-0.252485
-0.237389
-0.223222
-0.209945
-0.197521
-0.185916
-0.175095
-0.165027
-0.155683
-0.147034
-0.139053
-0.131715
-0.124998
-0.11888
-0.113341
-0.108363
-0.103929
-0.100025
-0.0966379
-0.0937557
-0.0913689
-0.0894692
-0.0880501
-0.0871068
-0.0866358
-16.6444
-16.5956
-16.5088
-16.3873
-16.2349
-16.0534
-15.8472
-15.6172
-15.3654
-15.0963
-14.8115
-14.5119
-14.1993
-13.8764
-13.5451
-13.2068
-12.8629
-12.5145
-12.1628
-11.8091
-11.4547
-11.1005
-10.7475
-10.3966
-10.0485
-9.7039
-9.36344
-9.02767
-8.69709
-8.37217
-8.0533
-7.74085
-7.43511
-7.13634
-6.84478
-6.5606
-6.28395
-6.01495
-5.75367
-5.50016
-5.25446
-5.01657
-4.78646
-4.5641
-4.34942
-4.14235
-3.9428
-3.75067
-3.56583
-3.38816
-3.21752
-3.05377
-2.89676
-2.74632
-2.60229
-2.46451
-2.3328
-2.207
-2.08692
-1.9724
-1.86325
-1.75931
-1.6604
-1.56634
-1.47697
-1.39212
-1.31162
-1.23531
-1.16303
-1.09463
-1.02995
-0.968844
-0.911173
-0.856796
-0.805579
-0.757392
-0.712109
-0.669611
-0.629783
-0.592515
-0.557701
-0.525241
-0.495041
-0.467011
-0.441065
-0.417124
-0.395114
-0.374964
-0.356611
-0.339995
-0.325062
-0.311762
-0.300051
-0.28989
-0.281244
-0.274084
-0.268386
-0.264129
-0.261299
-0.259886
-27.7357
-27.6543
-27.5103
-27.3079
-27.0539
-26.7517
-26.4073
-26.0241
-25.6052
-25.1567
-24.6817
-24.1822
-23.6615
-23.1236
-22.5715
-22.0079
-21.4347
-20.854
-20.2679
-19.6786
-19.0879
-18.4977
-17.9095
-17.3248
-16.7447
-16.1705
-15.6032
-15.0436
-14.4928
-13.9513
-13.42
-12.8993
-12.3898
-11.8919
-11.4061
-10.9325
-10.4715
-10.0233
-9.58787
-9.16543
-8.756
-8.35957
-7.97612
-7.60558
-7.24784
-6.90278
-6.57026
-6.25008
-5.94207
-5.646
-5.36166
-5.08878
-4.82713
-4.57644
-4.33644
-4.10684
-3.88736
-3.67772
-3.47763
-3.28679
-3.10491
-2.9317
-2.76687
-2.61014
-2.46121
-2.31982
-2.18567
-2.05851
-1.93806
-1.82408
-1.7163
-1.61447
-1.51837
-1.42776
-1.34241
-1.26211
-1.18665
-1.11584
-1.04947
-0.987362
-0.929349
-0.875258
-0.824933
-0.778223
-0.734987
-0.695092
-0.658414
-0.624837
-0.594254
-0.566565
-0.54168
-0.519518
-0.500003
-0.48307
-0.468663
-0.456732
-0.447236
-0.440142
-0.435427
-0.433073
-38.8204
-38.7061
-38.5046
-38.2217
-37.866
-37.4432
-36.961
-36.4246
-35.8387
-35.2109
-34.5457
-33.8464
-33.1179
-32.3651
-31.5925
-30.8035
-30.0011
-29.1883
-28.368
-27.5432
-26.7165
-25.8904
-25.0672
-24.2487
-23.4369
-22.6331
-21.8391
-21.0559
-20.2849
-19.527
-18.7833
-18.0545
-17.3414
-16.6446
-15.9646
-15.3018
-14.6565
-14.0291
-13.4197
-12.8284
-12.2554
-11.7005
-11.1638
-10.6452
-10.1445
-9.66151
-9.19609
-8.74796
-8.31685
-7.90246
-7.50447
-7.12254
-6.75632
-6.40544
-6.06951
-5.74815
-5.44096
-5.14754
-4.86748
-4.60037
-4.3458
-4.10337
-3.87267
-3.65329
-3.44485
-3.24694
-3.05918
-2.8812
-2.71262
-2.55308
-2.40222
-2.25971
-2.1252
-1.99837
-1.87891
-1.76652
-1.6609
-1.56178
-1.46889
-1.38197
-1.30077
-1.22506
-1.15462
-1.08924
-1.02873
-0.972889
-0.921553
-0.874556
-0.83175
-0.792995
-0.758166
-0.727145
-0.699831
-0.676132
-0.655967
-0.639267
-0.625976
-0.616047
-0.609447
-0.606152
-49.8962
-49.7489
-49.4893
-49.126
-48.6688
-48.1255
-47.5057
-46.8162
-46.0633
-45.2563
-44.4011
-43.5024
-42.5661
-41.5987
-40.6057
-39.5915
-38.5602
-37.5154
-36.4611
-35.401
-34.3385
-33.2767
-32.2187
-31.1667
-30.1232
-29.0902
-28.0696
-27.063
-26.072
-25.0979
-24.142
-23.2054
-22.2888
-21.3932
-20.5191
-19.6672
-18.8379
-18.0315
-17.2482
-16.4883
-15.7517
-15.0386
-14.3488
-13.6822
-13.0386
-12.4179
-11.8197
-11.2437
-10.6896
-10.157
-9.64543
-9.15454
-8.68384
-8.23285
-7.80109
-7.38805
-6.99322
-6.61609
-6.25613
-5.91281
-5.58562
-5.27402
-4.9775
-4.69554
-4.42763
-4.17326
-3.93194
-3.70318
-3.48651
-3.28145
-3.08755
-2.90438
-2.7315
-2.56849
-2.41495
-2.27049
-2.13475
-2.00735
-1.88795
-1.77623
-1.67186
-1.57456
-1.48402
-1.4
-1.32222
-1.25045
-1.18446
-1.12406
-1.06904
-1.01923
-0.974464
-0.934594
-0.899487
-0.869026
-0.843108
-0.821644
-0.804561
-0.7918
-0.783317
-0.779082
-60.9595
-60.7795
-60.4619
-60.0181
-59.4596
-58.7959
-58.0386
-57.1963
-56.2765
-55.2906
-54.2456
-53.1476
-52.0038
-50.8221
-49.6089
-48.3698
-47.1097
-45.8333
-44.5452
-43.25
-41.9519
-40.6549
-39.3622
-38.077
-36.8021
-35.5401
-34.2931
-33.0634
-31.8527
-30.6626
-29.4948
-28.3504
-27.2307
-26.1365
-25.0686
-24.0279
-23.0146
-22.0294
-21.0725
-20.144
-19.2442
-18.3729
-17.5301
-16.7158
-15.9295
-15.1711
-14.4403
-13.7366
-13.0597
-12.409
-11.784
-11.1843
-10.6092
-10.0582
-9.53074
-9.02613
-8.54376
-8.08301
-7.64323
-7.2238
-6.82406
-6.44338
-6.08111
-5.73664
-5.40932
-5.09856
-4.80373
-4.52425
-4.25953
-4.00901
-3.77213
-3.54834
-3.33712
-3.13797
-2.95039
-2.77391
-2.60806
-2.45242
-2.30655
-2.17005
-2.04255
-1.92367
-1.81306
-1.7104
-1.61538
-1.52769
-1.44708
-1.37329
-1.30607
-1.24521
-1.19052
-1.14181
-1.09892
-1.06171
-1.03004
-1.00382
-0.982948
-0.967358
-0.956994
-0.951821
-72.0076
-71.795
-71.4198
-70.8955
-70.2357
-69.4518
-68.5573
-67.5622
-66.4758
-65.3111
-64.0767
-62.7797
-61.4288
-60.0329
-58.5998
-57.1361
-55.6476
-54.1398
-52.6183
-51.0884
-49.5551
-48.0229
-46.496
-44.9779
-43.472
-41.9812
-40.5083
-39.0556
-37.6255
-36.2198
-34.8403
-33.4885
-32.1658
-30.8733
-29.6119
-28.3825
-27.1857
-26.0219
-24.8916
-23.7949
-22.7319
-21.7027
-20.7072
-19.7452
-18.8165
-17.9207
-17.0574
-16.2262
-15.4265
-14.6579
-13.9197
-13.2113
-12.532
-11.8811
-11.258
-10.662
-10.0922
-9.54793
-9.02845
-8.533
-8.06082
-7.61114
-7.18322
-6.77631
-6.38968
-6.02259
-5.67433
-5.3442
-5.03151
-4.73558
-4.45577
-4.19142
-3.94192
-3.70668
-3.4851
-3.27663
-3.08073
-2.89688
-2.72457
-2.56334
-2.41273
-2.2723
-2.14165
-2.02039
-1.90814
-1.80457
-1.70934
-1.62217
-1.54277
-1.47089
-1.40629
-1.34875
-1.29808
-1.25412
-1.21672
-1.18575
-1.16109
-1.14268
-1.13043
-1.12432
-83.0379
-82.7927
-82.36
-81.7554
-80.9945
-80.0906
-79.059
-77.9114
-76.6587
-75.3156
-73.892
-72.3963
-70.8386
-69.2289
-67.5763
-65.8883
-64.1717
-62.4329
-60.6783
-58.9141
-57.146
-55.3792
-53.6183
-51.8677
-50.1311
-48.412
-46.7134
-45.0382
-43.389
-41.768
-40.1772
-38.6183
-37.093
-35.6025
-34.148
-32.7302
-31.35
-30.008
-28.7045
-27.4398
-26.214
-25.0272
-23.8792
-22.7698
-21.6988
-20.6658
-19.6703
-18.7117
-17.7896
-16.9032
-16.0519
-15.235
-14.4516
-13.7011
-12.9826
-12.2952
-11.6381
-11.0105
-10.4114
-9.8401
-9.29558
-8.77703
-8.28356
-7.81432
-7.36846
-6.94514
-6.54354
-6.16284
-5.80224
-5.46099
-5.13831
-4.83347
-4.54575
-4.27447
-4.01896
-3.77855
-3.55264
-3.34063
-3.14193
-2.956
-2.78232
-2.62038
-2.46971
-2.32987
-2.20043
-2.08099
-1.97118
-1.87066
-1.7791
-1.6962
-1.6217
-1.55535
-1.49693
-1.44623
-1.4031
-1.36738
-1.33895
-1.31771
-1.3036
-1.29655
-94.0476
-93.77
-93.2799
-92.5952
-91.7333
-90.7096
-89.5411
-88.2414
-86.8227
-85.3015
-83.6891
-81.9951
-80.2309
-78.4079
-76.5361
-74.6243
-72.68
-70.7106
-68.7234
-66.7253
-64.7228
-62.7217
-60.7275
-58.7447
-56.7779
-54.8308
-52.907
-51.0097
-49.1418
-47.3059
-45.5041
-43.7386
-42.0111
-40.323
-38.6755
-37.0698
-35.5067
-33.9867
-32.5103
-31.0779
-29.6896
-28.3455
-27.0453
-25.7888
-24.5758
-23.4058
-22.2783
-21.1926
-20.1482
-19.1443
-18.1802
-17.2549
-16.3677
-15.5177
-14.7039
-13.9254
-13.1812
-12.4703
-11.7919
-11.1448
-10.5281
-9.94075
-9.38185
-8.8504
-8.34542
-7.86598
-7.41113
-6.97995
-6.57155
-6.18504
-5.81958
-5.47432
-5.14846
-4.84121
-4.55182
-4.27954
-4.02368
-3.78355
-3.55851
-3.34793
-3.15122
-2.96781
-2.79717
-2.63878
-2.49218
-2.3569
-2.23254
-2.11869
-2.01498
-1.9211
-1.83672
-1.76157
-1.6954
-1.63799
-1.58913
-1.54868
-1.51648
-1.49243
-1.47644
-1.46846
-105.034
-104.724
-104.177
-103.412
-102.449
-101.306
-100.001
-98.5496
-96.9653
-95.2663
-93.4655
-91.5737
-89.6034
-87.5674
-85.4771
-83.3418
-81.1703
-78.9709
-76.7516
-74.5201
-72.2837
-70.0488
-67.8216
-65.6072
-63.4106
-61.2361
-59.0875
-56.9686
-54.8825
-52.8321
-50.8199
-48.8481
-46.9188
-45.0334
-43.1936
-41.4003
-39.6545
-37.957
-36.3082
-34.7084
-33.158
-31.6567
-30.2047
-28.8014
-27.4467
-26.14
-24.8808
-23.6683
-22.5019
-21.3808
-20.304
-19.2706
-18.2798
-17.3305
-16.4216
-15.5521
-14.721
-13.9271
-13.1694
-12.4467
-11.7579
-11.102
-10.4778
-9.88429
-9.32033
-8.78487
-8.27688
-7.79534
-7.33923
-6.90757
-6.49942
-6.11383
-5.7499
-5.40676
-5.08356
-4.77947
-4.49372
-4.22554
-3.97421
-3.73903
-3.51934
-3.3145
-3.12393
-2.94704
-2.78331
-2.63224
-2.49334
-2.36619
-2.25037
-2.14552
-2.05128
-1.96736
-1.89346
-1.82933
-1.77478
-1.72959
-1.69363
-1.66677
-1.64891
-1.64
-115.995
-115.652
-115.048
-114.203
-113.14
-111.878
-110.437
-108.834
-107.084
-105.208
-103.219
-101.13
-98.9538
-96.7054
-94.3969
-92.0388
-89.6407
-87.2117
-84.7608
-82.2965
-79.8267
-77.3587
-74.899
-72.4536
-70.0277
-67.6262
-65.2535
-62.9135
-60.6097
-58.3453
-56.1231
-53.9456
-51.8149
-49.7328
-47.7009
-45.7205
-43.7926
-41.9179
-40.097
-38.3304
-36.6181
-34.9602
-33.3566
-31.807
-30.3109
-28.8678
-27.4772
-26.1382
-24.8501
-23.6119
-22.4228
-21.2816
-20.1873
-19.1389
-18.1352
-17.175
-16.2572
-15.3804
-14.5436
-13.7455
-12.9849
-12.2605
-11.5712
-10.9157
-10.2929
-9.7016
-9.1406
-8.6088
-8.1051
-7.6284
-7.17765
-6.75182
-6.34992
-5.97097
-5.61404
-5.27822
-4.96265
-4.66649
-4.38893
-4.12921
-3.88659
-3.66038
-3.44992
-3.25458
-3.07376
-2.90692
-2.75353
-2.61311
-2.48521
-2.36941
-2.26534
-2.17266
-2.09104
-2.02023
-1.95998
-1.91008
-1.87037
-1.8407
-1.82098
-1.81114
-126.927
-126.552
-125.891
-124.967
-123.803
-122.422
-120.845
-119.091
-117.176
-115.123
-112.947
-110.661
-108.28
-105.82
-103.293
-100.713
-98.0889
-95.431
-92.7491
-90.0525
-87.35
-84.6494
-81.9579
-79.282
-76.6276
-73.9997
-71.4034
-68.8428
-66.3219
-63.8441
-61.4124
-59.0297
-56.6982
-54.4199
-52.1965
-50.0295
-47.9198
-45.8684
-43.876
-41.9428
-40.0692
-38.2551
-36.5003
-34.8046
-33.1675
-31.5885
-30.0668
-28.6016
-27.1921
-25.8372
-24.536
-23.2873
-22.0899
-20.9427
-19.8444
-18.7937
-17.7893
-16.83
-15.9143
-15.041
-14.2087
-13.416
-12.6618
-11.9445
-11.263
-10.6159
-10.0021
-9.42015
-8.86897
-8.34734
-7.85411
-7.38815
-6.94837
-6.53371
-6.14314
-5.77567
-5.43036
-5.10629
-4.80257
-4.51837
-4.25289
-4.00536
-3.77506
-3.56131
-3.36345
-3.18088
-3.01304
-2.85938
-2.71943
-2.59272
-2.47884
-2.37742
-2.28812
-2.21063
-2.1447
-2.0901
-2.04664
-2.01418
-1.9926
-1.98183
-137.827
-137.421
-136.702
-135.699
-134.436
-132.936
-131.223
-129.318
-127.24
-125.01
-122.647
-120.164
-117.579
-114.908
-112.164
-109.362
-106.513
-103.627
-100.715
-97.7864
-94.8518
-91.9193
-88.9967
-86.091
-83.2085
-80.355
-77.5357
-74.7552
-72.0177
-69.3271
-66.6867
-64.0993
-61.5675
-59.0936
-56.6793
-54.3261
-52.0353
-49.8077
-47.6441
-45.5449
-43.5104
-41.5405
-39.635
-37.7937
-36.016
-34.3014
-32.649
-31.058
-29.5274
-28.0562
-26.6432
-25.2872
-23.987
-22.7413
-21.5487
-20.4077
-19.3171
-18.2754
-17.2811
-16.3327
-15.4289
-14.5682
-13.7492
-12.9703
-12.2303
-11.5276
-10.8611
-10.2292
-9.63065
-9.06423
-8.52864
-8.02266
-7.54511
-7.09483
-6.67072
-6.2717
-5.89673
-5.54482
-5.21502
-4.90641
-4.61813
-4.34935
-4.09927
-3.86716
-3.65231
-3.45406
-3.2718
-3.10495
-2.95298
-2.81538
-2.69173
-2.5816
-2.48462
-2.40048
-2.32889
-2.2696
-2.22241
-2.18717
-2.16373
-2.15204
-148.694
-148.255
-147.48
-146.398
-145.035
-143.417
-141.569
-139.514
-137.271
-134.866
-132.317
-129.638
-126.849
-123.967
-121.008
-117.985
-114.911
-111.797
-108.655
-105.496
-102.33
-99.1664
-96.0134
-92.8786
-89.7689
-86.6904
-83.6488
-80.6491
-77.6958
-74.793
-71.9444
-69.153
-66.4217
-63.7527
-61.148
-58.6093
-56.1378
-53.7347
-51.4005
-49.1358
-46.9409
-44.8156
-42.7599
-40.7735
-38.8556
-37.0058
-35.2231
-33.5067
-31.8554
-30.2682
-28.7438
-27.2809
-25.8782
-24.5343
-23.2476
-22.0167
-20.8401
-19.7163
-18.6435
-17.6205
-16.6454
-15.7168
-14.8332
-13.9929
-13.1945
-12.4365
-11.7174
-11.0357
-10.39
-9.77887
-9.20106
-8.65519
-8.13999
-7.65421
-7.19666
-6.76618
-6.36164
-5.98199
-5.62619
-5.29325
-4.98224
-4.69226
-4.42247
-4.17206
-3.94027
-3.72639
-3.52976
-3.34975
-3.1858
-3.03736
-2.90395
-2.78514
-2.68052
-2.58974
-2.51251
-2.44854
-2.39764
-2.35961
-2.33433
-2.32171
-159.524
-159.053
-158.222
-157.061
-155.599
-153.862
-151.88
-149.675
-147.27
-144.689
-141.954
-139.08
-136.088
-132.996
-129.821
-126.578
-123.28
-119.939
-116.569
-113.18
-109.783
-106.389
-103.006
-99.6434
-96.3071
-93.0044
-89.7413
-86.5231
-83.3547
-80.2405
-77.1844
-74.1897
-71.2594
-68.396
-65.6017
-62.878
-60.2266
-57.6484
-55.1442
-52.7146
-50.3597
-48.0797
-45.8743
-43.7431
-41.6856
-39.7011
-37.7885
-35.9471
-34.1756
-32.4728
-30.8373
-29.2679
-27.7631
-26.3212
-24.9408
-23.6203
-22.358
-21.1523
-20.0014
-18.9038
-17.8578
-16.8616
-15.9136
-15.0121
-14.1556
-13.3423
-12.5708
-11.8394
-11.1467
-10.4911
-9.87121
-9.28558
-8.73285
-8.2117
-7.72082
-7.25899
-6.82499
-6.41768
-6.03597
-5.67878
-5.34511
-5.03402
-4.74457
-4.47592
-4.22725
-3.9978
-3.78685
-3.59373
-3.41783
-3.25858
-3.11546
-2.98799
-2.87575
-2.77837
-2.6955
-2.62688
-2.57227
-2.53147
-2.50435
-2.49081
-170.315
-169.812
-168.924
-167.685
-166.124
-164.27
-162.154
-159.8
-157.231
-154.476
-151.556
-148.488
-145.294
-141.992
-138.603
-135.14
-131.619
-128.052
-124.454
-120.836
-117.209
-113.586
-109.974
-106.384
-102.822
-99.2955
-95.8116
-92.3757
-88.993
-85.6682
-82.4054
-79.2081
-76.0796
-73.0225
-70.0391
-67.1313
-64.3005
-61.5479
-58.8743
-56.2803
-53.7662
-51.332
-48.9774
-46.702
-44.5054
-42.3865
-40.3447
-38.3786
-36.4873
-34.6693
-32.9233
-31.2477
-29.641
-28.1016
-26.6279
-25.218
-23.8703
-22.5831
-21.3544
-20.1825
-19.0657
-18.0021
-16.99
-16.0276
-15.1131
-14.2448
-13.4211
-12.6403
-11.9007
-11.2008
-10.5389
-9.91368
-9.32357
-8.76716
-8.24308
-7.75
-7.28665
-6.85179
-6.44425
-6.06291
-5.70667
-5.37453
-5.06551
-4.77869
-4.5132
-4.26822
-4.043
-3.83682
-3.64902
-3.479
-3.3262
-3.19011
-3.07028
-2.9663
-2.87784
-2.80457
-2.74626
-2.7027
-2.67375
-2.6593
-181.063
-180.529
-179.585
-178.267
-176.608
-174.637
-172.387
-169.885
-167.154
-164.225
-161.121
-157.859
-154.463
-150.954
-147.35
-143.669
-139.925
-136.134
-132.308
-128.462
-124.606
-120.754
-116.915
-113.097
-109.311
-105.562
-101.858
-98.2056
-94.6094
-91.0748
-87.606
-84.207
-80.881
-77.631
-74.4593
-71.368
-68.3585
-65.4322
-62.5899
-59.8322
-57.1594
-54.5715
-52.0683
-49.6494
-47.3141
-45.0616
-42.8908
-40.8007
-38.79
-36.8573
-35.001
-33.2197
-31.5117
-29.8751
-28.3084
-26.8096
-25.3768
-24.0083
-22.7021
-21.4562
-20.2689
-19.1382
-18.0622
-17.0391
-16.0669
-15.1438
-14.2681
-13.438
-12.6517
-11.9076
-11.204
-10.5393
-9.91198
-9.32046
-8.7633
-8.23911
-7.74651
-7.28421
-6.85095
-6.44554
-6.06682
-5.71372
-5.3852
-5.08027
-4.79803
-4.53759
-4.29816
-4.07896
-3.87932
-3.69856
-3.53612
-3.39144
-3.26404
-3.15351
-3.05946
-2.98157
-2.91958
-2.87327
-2.84249
-2.82713
-191.767
-191.201
-190.202
-188.806
-187.048
-184.961
-182.578
-179.928
-177.036
-173.934
-170.645
-167.191
-163.595
-159.878
-156.061
-152.162
-148.197
-144.182
-140.13
-136.056
-131.973
-127.893
-123.826
-119.783
-115.773
-111.803
-107.88
-104.011
-100.202
-96.4588
-92.785
-89.185
-85.6625
-82.2203
-78.8611
-75.587
-72.3996
-69.3003
-66.29
-63.3693
-60.5385
-57.7976
-55.1465
-52.5845
-50.1112
-47.7255
-45.4264
-43.2127
-41.0832
-39.0362
-37.0702
-35.1836
-33.3745
-31.6413
-29.9819
-28.3945
-26.877
-25.4276
-24.0441
-22.7247
-21.4672
-20.2696
-19.13
-18.0464
-17.0167
-16.0391
-15.1116
-14.2324
-13.3997
-12.6116
-11.8664
-11.1624
-10.4979
-9.87145
-9.28136
-8.72618
-8.20446
-7.71483
-7.25596
-6.82658
-6.42548
-6.0515
-5.70355
-5.3806
-5.08167
-4.80584
-4.55225
-4.3201
-4.10865
-3.91721
-3.74516
-3.59193
-3.45701
-3.33994
-3.24033
-3.15783
-3.09218
-3.04314
-3.01053
-2.99426
-202.424
-201.826
-200.772
-199.298
-197.443
-195.24
-192.724
-189.927
-186.874
-183.599
-180.128
-176.482
-172.686
-168.762
-164.733
-160.618
-156.433
-152.194
-147.917
-143.617
-139.307
-135
-130.707
-126.44
-122.206
-118.016
-113.875
-109.791
-105.771
-101.819
-97.9411
-94.1411
-90.4228
-86.7893
-83.2435
-79.7874
-76.4229
-73.1514
-69.9738
-66.8908
-63.9027
-61.0095
-58.211
-55.5067
-52.8959
-50.3776
-47.9508
-45.6141
-43.3662
-41.2054
-39.1302
-37.1387
-35.2292
-33.3996
-31.648
-29.9723
-28.3706
-26.8406
-25.3803
-23.9875
-22.6601
-21.396
-20.1931
-19.0492
-17.9623
-16.9304
-15.9514
-15.0233
-14.1443
-13.3124
-12.5258
-11.7827
-11.0813
-10.42
-9.79713
-9.2111
-8.66039
-8.14355
-7.65918
-7.20594
-6.78254
-6.38779
-6.0205
-5.67961
-5.36406
-5.07291
-4.80522
-4.56017
-4.33697
-4.13489
-3.95328
-3.79154
-3.64911
-3.52554
-3.42039
-3.33332
-3.26401
-3.21225
-3.17783
-3.16065
-213.031
-212.402
-211.292
-209.741
-207.788
-205.47
-202.823
-199.878
-196.666
-193.22
-189.567
-185.73
-181.734
-177.605
-173.365
-169.034
-164.63
-160.169
-155.667
-151.142
-146.606
-142.074
-137.556
-133.065
-128.61
-124.199
-119.842
-115.544
-111.313
-107.154
-103.073
-99.0739
-95.1608
-91.337
-87.6053
-83.9681
-80.4274
-76.9844
-73.6403
-70.3957
-67.251
-64.2063
-61.2611
-58.4152
-55.6675
-53.0173
-50.4633
-48.0042
-45.6385
-43.3645
-41.1806
-39.0848
-37.0751
-35.1497
-33.3063
-31.5428
-29.8572
-28.247
-26.7102
-25.2444
-23.8475
-22.5171
-21.2512
-20.0473
-18.9035
-17.8175
-16.7872
-15.8105
-14.8854
-14.01
-13.1821
-12.4001
-11.662
-10.966
-10.3105
-9.69375
-9.11418
-8.57026
-8.06051
-7.58352
-7.13794
-6.7225
-6.33597
-5.97721
-5.64513
-5.33872
-5.05701
-4.79912
-4.56422
-4.35156
-4.16043
-3.99021
-3.84032
-3.71027
-3.59962
-3.50798
-3.43504
-3.38056
-3.34435
-3.32627
-223.585
-222.925
-221.76
-220.132
-218.083
-215.649
-212.871
-209.781
-206.409
-202.792
-198.958
-194.931
-190.738
-186.404
-181.954
-177.408
-172.786
-168.104
-163.38
-158.63
-153.869
-149.112
-144.371
-139.658
-134.982
-130.353
-125.779
-121.268
-116.828
-112.463
-108.18
-103.982
-99.8753
-95.862
-91.9455
-88.1282
-84.4119
-80.7984
-77.2886
-73.8833
-70.5828
-67.3872
-64.2962
-61.3092
-58.4254
-55.6439
-52.9634
-50.3825
-47.8995
-45.5129
-43.2208
-41.0211
-38.9119
-36.8911
-34.9564
-33.1056
-31.3364
-29.6464
-28.0335
-26.4951
-25.0289
-23.6327
-22.304
-21.0405
-19.84
-18.7002
-17.6189
-16.5938
-15.6229
-14.7041
-13.8352
-13.0144
-12.2397
-11.5093
-10.8213
-10.174
-9.56572
-8.99486
-8.45985
-7.95923
-7.49157
-7.05555
-6.64987
-6.27334
-5.92481
-5.60321
-5.30755
-5.03688
-4.79035
-4.56715
-4.36655
-4.1879
-4.03058
-3.89409
-3.77795
-3.68178
-3.60523
-3.54805
-3.51004
-3.49106
-234.084
-233.393
-232.173
-230.469
-228.323
-225.776
-222.867
-219.632
-216.102
-212.315
-208.301
-204.085
-199.694
-195.157
-190.498
-185.739
-180.899
-175.997
-171.051
-166.079
-161.095
-156.114
-151.151
-146.216
-141.32
-136.474
-131.685
-126.963
-122.314
-117.744
-113.259
-108.865
-104.565
-100.363
-96.263
-92.2664
-88.3757
-84.5925
-80.9179
-77.3527
-73.8972
-70.5515
-67.3154
-64.1881
-61.1689
-58.2568
-55.4504
-52.7483
-50.1488
-47.6501
-45.2503
-42.9474
-40.7391
-38.6234
-36.5978
-34.6601
-32.8078
-31.0386
-29.3498
-27.7392
-26.2042
-24.7424
-23.3513
-22.0286
-20.7717
-19.5783
-18.4462
-17.373
-16.3565
-15.3945
-14.4849
-13.6255
-12.8145
-12.0497
-11.3294
-10.6517
-10.0149
-9.41723
-8.8571
-8.33297
-7.84336
-7.38686
-6.96213
-6.56792
-6.20302
-5.86633
-5.55678
-5.2734
-5.01529
-4.78161
-4.57159
-4.38455
-4.21985
-4.07695
-3.95536
-3.85466
-3.77452
-3.71466
-3.67486
-3.65499
-244.525
-243.803
-242.529
-240.749
-238.508
-235.846
-232.808
-229.428
-225.741
-221.785
-217.592
-213.188
-208.602
-203.862
-198.995
-194.024
-188.968
-183.848
-178.681
-173.486
-168.28
-163.078
-157.893
-152.737
-147.624
-142.561
-137.559
-132.626
-127.769
-122.996
-118.311
-113.721
-109.229
-104.84
-100.557
-96.3819
-92.3177
-88.3657
-84.5272
-80.803
-77.1934
-73.6985
-70.3179
-67.0512
-63.8974
-60.8553
-57.9237
-55.1011
-52.3856
-49.7755
-47.2687
-44.863
-42.5563
-40.3462
-38.2303
-36.2061
-34.2712
-32.423
-30.659
-28.9765
-27.3731
-25.846
-24.3929
-23.0111
-21.6982
-20.4516
-19.269
-18.1479
-17.0861
-16.0812
-15.131
-14.2333
-13.3861
-12.5872
-11.8348
-11.1269
-10.4616
-9.83728
-9.25217
-8.70466
-8.19321
-7.71635
-7.27268
-6.86088
-6.47971
-6.12799
-5.80464
-5.50862
-5.239
-4.99489
-4.77551
-4.58012
-4.40808
-4.2588
-4.13179
-4.0266
-3.94288
-3.88035
-3.83878
-3.81803
-254.906
-254.153
-252.825
-250.969
-248.633
-245.859
-242.691
-239.168
-235.324
-231.201
-226.83
-222.238
-217.457
-212.517
-207.443
-202.261
-196.99
-191.653
-186.267
-180.851
-175.424
-170.001
-164.596
-159.222
-153.891
-148.613
-143.399
-138.256
-133.194
-128.217
-123.334
-118.549
-113.866
-109.291
-104.826
-100.474
-96.2368
-92.1171
-88.1156
-84.2333
-80.4705
-76.8272
-73.3031
-69.8977
-66.61
-63.4388
-60.3828
-57.4403
-54.6096
-51.8886
-49.2754
-46.7676
-44.3629
-42.059
-39.8533
-37.7432
-35.7261
-33.7995
-31.9605
-30.2067
-28.5351
-26.9433
-25.4285
-23.988
-22.6193
-21.3199
-20.087
-18.9184
-17.8115
-16.7639
-15.7733
-14.8376
-13.9543
-13.1216
-12.3372
-11.5992
-10.9057
-10.2549
-9.64496
-9.0742
-8.54104
-8.04393
-7.58143
-7.15215
-6.75479
-6.38815
-6.05106
-5.74248
-5.46141
-5.20694
-4.97825
-4.77456
-4.59522
-4.4396
-4.3072
-4.19754
-4.11027
-4.04508
-4.00175
-3.98011
-265.224
-264.441
-263.059
-261.128
-258.697
-255.81
-252.515
-248.849
-244.85
-240.559
-236.011
-231.234
-226.26
-221.119
-215.84
-210.448
-204.964
-199.41
-193.806
-188.172
-182.525
-176.882
-171.258
-165.667
-160.12
-154.629
-149.203
-143.853
-138.585
-133.407
-128.326
-123.347
-118.475
-113.715
-109.069
-104.541
-100.132
-95.8458
-91.6823
-87.6428
-83.7277
-79.937
-76.2703
-72.727
-69.3062
-66.0067
-62.8269
-59.7653
-56.82
-53.9889
-51.2699
-48.6606
-46.1586
-43.7614
-41.4664
-39.2709
-37.1722
-35.1676
-33.2542
-31.4293
-29.6902
-28.0339
-26.4577
-24.959
-23.5349
-22.1828
-20.9001
-19.6842
-18.5324
-17.4424
-16.4118
-15.4381
-14.5192
-13.6527
-12.8366
-12.0687
-11.3472
-10.67
-10.0354
-9.44151
-8.88676
-8.36953
-7.88831
-7.44165
-7.02821
-6.64673
-6.296
-5.97492
-5.68248
-5.41771
-5.17975
-4.96783
-4.78122
-4.61931
-4.48154
-4.36745
-4.27665
-4.20882
-4.16373
-4.14122
-275.476
-274.663
-273.227
-271.222
-268.697
-265.699
-262.276
-258.469
-254.314
-249.858
-245.134
-240.173
-235.006
-229.666
-224.184
-218.583
-212.887
-207.119
-201.298
-195.446
-189.581
-183.72
-177.878
-172.071
-166.309
-160.606
-154.971
-149.413
-143.942
-138.564
-133.287
-128.115
-123.055
-118.111
-113.285
-108.582
-104.003
-99.5508
-95.2264
-91.0308
-86.9643
-83.027
-79.2186
-75.5383
-71.9853
-68.5582
-65.2556
-62.0756
-59.0165
-56.0759
-53.2518
-50.5416
-47.9429
-45.4531
-43.0693
-40.789
-38.6092
-36.527
-34.5397
-32.6443
-30.8379
-29.1176
-27.4805
-25.9238
-24.4447
-23.0403
-21.708
-20.4451
-19.2488
-18.1167
-17.0462
-16.0349
-15.0804
-14.1805
-13.3328
-12.5353
-11.7858
-11.0825
-10.4233
-9.80648
-9.23029
-8.69307
-8.19324
-7.72932
-7.2999
-6.90366
-6.53938
-6.20589
-5.90214
-5.62714
-5.37999
-5.15987
-4.96605
-4.79787
-4.65478
-4.53628
-4.44197
-4.37152
-4.32468
-4.30131
-285.661
-284.818
-283.329
-281.249
-278.631
-275.522
-271.973
-268.024
-263.717
-259.096
-254.197
-249.052
-243.694
-238.157
-232.472
-226.664
-220.758
-214.776
-208.74
-202.672
-196.59
-190.512
-184.455
-178.432
-172.458
-166.544
-160.7
-154.937
-149.264
-143.687
-138.215
-132.852
-127.605
-122.477
-117.473
-112.596
-107.848
-103.231
-98.747
-94.3962
-90.1794
-86.0966
-82.1473
-78.331
-74.6466
-71.0929
-67.6681
-64.3706
-61.1983
-58.1491
-55.2206
-52.4102
-49.7154
-47.1335
-44.6616
-42.297
-40.0366
-37.8775
-35.8167
-33.8512
-31.978
-30.1941
-28.4965
-26.8822
-25.3484
-23.8922
-22.5106
-21.2009
-19.9605
-18.7865
-17.6764
-16.6277
-15.638
-14.7047
-13.8257
-12.9987
-12.2216
-11.4922
-10.8086
-10.169
-9.57154
-9.01446
-8.49615
-8.01508
-7.56978
-7.1589
-6.78115
-6.43533
-6.12035
-5.83518
-5.57889
-5.35063
-5.14965
-4.97526
-4.82688
-4.704
-4.60619
-4.53314
-4.48457
-4.46033
-295.775
-294.902
-293.36
-291.207
-288.496
-285.277
-281.602
-277.514
-273.054
-268.269
-263.197
-257.87
-252.322
-246.59
-240.703
-234.689
-228.574
-222.38
-216.131
-209.847
-203.55
-197.257
-190.985
-184.75
-178.564
-172.44
-166.39
-160.423
-154.549
-148.775
-143.108
-137.556
-132.123
-126.814
-121.632
-116.583
-111.666
-106.886
-102.243
-97.7384
-93.3723
-89.1449
-85.0558
-81.1044
-77.2896
-73.61
-70.064
-66.6497
-63.3651
-60.2079
-57.1757
-54.2658
-51.4756
-48.8023
-46.2429
-43.7945
-41.4541
-39.2185
-37.0848
-35.0497
-33.1102
-31.2631
-29.5054
-27.834
-26.2459
-24.7381
-23.3076
-21.9516
-20.6672
-19.4516
-18.3023
-17.2165
-16.1917
-15.2254
-14.3152
-13.4589
-12.6543
-11.8991
-11.1913
-10.5291
-9.91043
-9.33362
-8.79697
-8.29886
-7.8378
-7.41237
-7.02124
-6.66318
-6.33705
-6.04178
-5.77642
-5.54008
-5.33198
-5.15141
-4.99778
-4.87055
-4.76928
-4.69364
-4.64336
-4.61826
-305.816
-304.913
-303.32
-301.093
-298.29
-294.962
-291.162
-286.935
-282.324
-277.377
-272.132
-266.624
-260.888
-254.961
-248.874
-242.657
-236.334
-229.93
-223.468
-216.971
-210.46
-203.954
-197.469
-191.022
-184.626
-178.294
-172.039
-165.869
-159.795
-153.825
-147.966
-142.225
-136.608
-131.119
-125.762
-120.54
-115.457
-110.515
-105.714
-101.056
-96.5421
-92.1712
-87.9433
-83.8578
-79.9134
-76.1089
-72.4425
-68.9124
-65.5163
-62.2519
-59.1167
-56.1081
-53.2232
-50.4591
-47.8128
-45.2813
-42.8614
-40.5499
-38.3437
-36.2396
-34.2342
-32.3244
-30.5071
-28.779
-27.1369
-25.5779
-24.0989
-22.6968
-21.3688
-20.112
-18.9236
-17.8009
-16.7413
-15.7423
-14.8012
-13.9159
-13.0839
-12.303
-11.5713
-10.8865
-10.2469
-9.65049
-9.09561
-8.58059
-8.10388
-7.66401
-7.2596
-6.88939
-6.55218
-6.24689
-5.97252
-5.72816
-5.51299
-5.3263
-5.16745
-5.0359
-4.93119
-4.85298
-4.80099
-4.77504
-315.782
-314.849
-313.204
-310.905
-308.011
-304.574
-300.65
-296.285
-291.524
-286.416
-281
-275.313
-269.39
-263.269
-256.984
-250.564
-244.035
-237.422
-230.75
-224.042
-217.319
-210.6
-203.904
-197.247
-190.642
-184.105
-177.645
-171.274
-165.003
-158.838
-152.788
-146.86
-141.06
-135.391
-129.86
-124.468
-119.22
-114.116
-109.159
-104.35
-99.6882
-95.1748
-90.8092
-86.5905
-82.5176
-78.5891
-74.8032
-71.158
-67.6512
-64.2805
-61.0431
-57.9365
-54.9575
-52.1034
-49.3709
-46.7569
-44.2581
-41.8713
-39.5933
-37.4205
-35.3498
-33.3778
-31.5012
-29.7168
-28.0212
-26.4114
-24.8842
-23.4364
-22.0651
-20.7674
-19.5403
-18.381
-17.2869
-16.2552
-15.2836
-14.3693
-13.5102
-12.704
-11.9483
-11.2413
-10.5808
-9.96497
-9.39201
-8.86021
-8.36797
-7.91376
-7.49617
-7.1139
-6.7657
-6.45046
-6.16715
-5.91482
-5.69264
-5.49987
-5.33584
-5.2
-5.09189
-5.01113
-4.95745
-4.93065
-325.669
-324.708
-323.011
-320.64
-317.655
-314.111
-310.064
-305.563
-300.652
-295.384
-289.799
-283.933
-277.825
-271.513
-265.031
-258.41
-251.676
-244.857
-237.976
-231.057
-224.123
-217.194
-210.289
-203.423
-196.612
-189.869
-183.207
-176.637
-170.169
-163.811
-157.572
-151.459
-145.476
-139.631
-133.926
-128.366
-122.953
-117.689
-112.577
-107.617
-102.81
-98.1549
-93.6526
-89.3018
-85.1013
-81.0498
-77.1454
-73.3861
-69.7695
-66.2932
-62.9545
-59.7506
-56.6784
-53.7348
-50.9168
-48.2209
-45.6439
-43.1824
-40.833
-38.5922
-36.4567
-34.4229
-32.4876
-30.6473
-28.8986
-27.2384
-25.6633
-24.1703
-22.756
-21.4177
-20.1521
-18.9566
-17.8282
-16.7642
-15.7621
-14.8193
-13.9333
-13.1018
-12.3225
-11.5933
-10.9121
-10.277
-9.68609
-9.13764
-8.62998
-8.16155
-7.7309
-7.33665
-6.97755
-6.65244
-6.36026
-6.10003
-5.87089
-5.67208
-5.50292
-5.36283
-5.25133
-5.16804
-5.11267
-5.08504
-335.477
-334.486
-332.738
-330.296
-327.221
-323.57
-319.401
-314.765
-309.706
-304.279
-298.526
-292.484
-286.192
-279.689
-273.012
-266.192
-259.255
-252.23
-245.142
-238.015
-230.873
-223.735
-216.621
-209.549
-202.533
-195.587
-188.725
-181.957
-175.294
-168.745
-162.318
-156.02
-149.857
-143.836
-137.959
-132.231
-126.655
-121.234
-115.967
-110.858
-105.906
-101.111
-96.4729
-91.991
-87.6641
-83.4906
-79.4686
-75.5961
-71.8706
-68.2896
-64.8504
-61.5499
-58.3852
-55.353
-52.4501
-49.6731
-47.0185
-44.4828
-42.0627
-39.7544
-37.5545
-35.4596
-33.4659
-31.5702
-29.7689
-28.0587
-26.4362
-24.8981
-23.4413
-22.0626
-20.759
-19.5274
-18.3651
-17.2691
-16.2368
-15.2655
-14.3529
-13.4963
-12.6936
-11.9424
-11.2407
-10.5865
-9.97779
-9.41282
-8.88987
-8.40734
-7.96371
-7.55759
-7.18768
-6.85278
-6.55179
-6.28373
-6.0477
-5.8429
-5.66864
-5.52433
-5.40947
-5.32368
-5.26664
-5.23817
-345.201
-344.182
-342.383
-339.87
-336.706
-332.95
-328.66
-323.889
-318.683
-313.099
-307.179
-300.962
-294.488
-287.797
-280.926
-273.908
-266.77
-259.542
-252.248
-244.915
-237.565
-230.221
-222.901
-215.623
-208.404
-201.257
-194.195
-187.231
-180.375
-173.636
-167.023
-160.542
-154.201
-148.005
-141.958
-136.064
-130.327
-124.748
-119.329
-114.071
-108.976
-104.042
-99.2693
-94.6576
-90.2053
-85.9108
-81.7722
-77.7874
-73.9539
-70.2691
-66.7302
-63.3341
-60.0776
-56.9576
-53.9705
-51.113
-48.3814
-45.7723
-43.2819
-40.9068
-38.6432