/*--------------------------------*- C++ -*----------------------------------*\
| =========                 |                                                 |
| \\      /  F ield         | OpenFOAM: The Open Source CFD Toolbox           |
|  \\    /   O peration     | Version:  2406                                  |
|   \\  /    A nd           | Website:  www.openfoam.com                      |
|    \\/     M anipulation  |                                                 |
\*---------------------------------------------------------------------------*/
FoamFile
{
    version     2.0;
    format      ascii;
    arch        "LSB;label=32;scalar=64";
    class       volScalarField;
    location    "120";
    object      gradTx;
}
// * * * * * * * * * * * * * * * * * * * * * * * * * * * * * * * * * * * * * //

dimensions      [0 -1 0 1 0 0 0];

internalField   nonuniform List<scalar> 
20000
(
4.43045
4.06665
3.71823
3.38509
3.06745
2.76456
2.47552
2.20015
1.93931
1.69167
1.45603
1.23311
1.02284
0.824263
0.636722
0.460024
0.294036
0.138427
-0.00727116
-0.143526
-0.270727
-0.389203
-0.49926
-0.601214
-0.695396
-0.78215
-0.861815
-0.934722
-1.00119
-1.06153
-1.11603
-1.16499
-1.20867
-1.24735
-1.28131
-1.31078
-1.33602
-1.35728
-1.37479
-1.38877
-1.39944
-1.40702
-1.4117
-1.41369
-1.41317
-1.41031
-1.4053
-1.39831
-1.38948
-1.37898
-1.36695
-1.35353
-1.33885
-1.32305
-1.30624
-1.28854
-1.27006
-1.25091
-1.23118
-1.21097
-1.19038
-1.16948
-1.14835
-1.12708
-1.10573
-1.08437
-1.06307
-1.04189
-1.02088
-1.0001
-0.979593
-0.959413
-0.939601
-0.9202
-0.901248
-0.88278
-0.86483
-0.84743
-0.830608
-0.814393
-0.798808
-0.783877
-0.769621
-0.75606
-0.743212
-0.731094
-0.719721
-0.709107
-0.699264
-0.690204
-0.681936
-0.674471
-0.667815
-0.661977
-0.656961
-0.652774
-0.649419
-0.6469
-0.64522
-0.644379
13.2901
12.1988
11.1541
10.1549
9.20139
8.29207
7.42588
6.60084
5.8174
5.07386
4.36772
3.69949
3.06843
2.4724
1.9098
1.37993
0.882129
0.415344
-0.0217806
-0.430568
-0.81216
-1.16755
-1.49767
-1.80348
-2.086
-2.34624
-2.58522
-2.80393
-3.00333
-3.18433
-3.34782
-3.49467
-3.62571
-3.74176
-3.8436
-3.93201
-4.00774
-4.07152
-4.12403
-4.16597
-4.19799
-4.22072
-4.23477
-4.24072
-4.23915
-4.23059
-4.21556
-4.19457
-4.1681
-4.13659
-4.1005
-4.06025
-4.01622
-3.96882
-3.91839
-3.8653
-3.80987
-3.75242
-3.69324
-3.63262
-3.57084
-3.50814
-3.44477
-3.38095
-3.31691
-3.25285
-3.18895
-3.12541
-3.06239
-3.00005
-2.93854
-2.878
-2.81857
-2.76037
-2.70352
-2.64812
-2.59428
-2.54208
-2.49162
-2.44298
-2.39623
-2.35144
-2.30867
-2.26799
-2.22945
-2.1931
-2.15899
-2.12715
-2.09762
-2.07044
-2.04564
-2.02325
-2.00328
-1.98577
-1.97072
-1.95816
-1.9481
-1.94054
-1.9355
-1.93298
22.1461
20.3276
18.5874
16.9226
15.3334
13.8177
12.3743
11
9.69397
8.45454
7.27842
6.16523
5.11333
4.11976
3.18225
2.29948
1.4701
0.692256
-0.0362526
-0.717534
-1.35344
-1.94564
-2.49572
-3.0053
-3.47608
-3.90974
-4.30798
-4.67244
-5.00472
-5.30634
-5.57879
-5.8235
-6.04186
-6.23524
-6.40495
-6.55228
-6.67848
-6.78474
-6.87226
-6.94214
-6.9955
-7.03337
-7.05678
-7.06671
-7.06408
-7.04982
-7.02478
-6.9898
-6.94568
-6.89319
-6.83305
-6.76596
-6.6926
-6.61361
-6.52958
-6.44111
-6.34874
-6.253
-6.15439
-6.05338
-5.95042
-5.84594
-5.74034
-5.634
-5.52728
-5.42052
-5.31405
-5.20816
-5.10314
-4.99925
-4.89676
-4.79588
-4.69685
-4.59987
-4.50513
-4.41281
-4.32308
-4.2361
-4.15202
-4.07096
-3.99305
-3.91842
-3.84715
-3.77937
-3.71514
-3.65457
-3.59772
-3.54466
-3.49546
-3.45017
-3.40884
-3.37152
-3.33825
-3.30907
-3.284
-3.26307
-3.2463
-3.2337
-3.2253
-3.2211
30.9968
28.4509
26.0153
23.6857
21.4617
19.3403
17.3196
15.3961
13.5681
11.8333
10.1874
8.62942
7.15686
5.76602
4.45391
3.21852
2.05778
0.969031
-0.0507269
-1.00436
-1.89443
-2.72328
-3.49316
-4.20637
-4.86528
-5.47225
-6.02966
-6.5398
-7.00488
-7.42705
-7.80839
-8.15089
-8.45653
-8.72718
-8.96472
-9.17093
-9.34756
-9.4963
-9.61879
-9.7166
-9.79128
-9.84429
-9.87706
-9.89095
-9.88728
-9.86731
-9.83227
-9.78331
-9.72156
-9.64808
-9.56391
-9.47001
-9.36733
-9.25677
-9.13916
-9.01533
-8.88604
-8.75204
-8.61402
-8.47264
-8.32853
-8.18229
-8.03449
-7.88565
-7.73628
-7.58686
-7.43783
-7.28962
-7.14263
-6.99723
-6.85377
-6.71258
-6.57396
-6.43822
-6.30562
-6.17641
-6.05082
-5.92908
-5.81139
-5.69794
-5.58889
-5.48443
-5.38469
-5.28981
-5.19992
-5.11513
-5.03556
-4.9613
-4.89243
-4.82904
-4.7712
-4.71897
-4.6724
-4.63155
-4.59646
-4.56716
-4.54369
-4.52607
-4.51431
-4.50843
39.8406
36.5677
33.4367
30.443
27.5846
24.858
22.2606
19.7884
17.439
15.2092
13.094
11.0914
9.19856
7.41083
5.7245
4.13682
2.64499
1.24557
-0.0652109
-1.29097
-2.43498
-3.50025
-4.48973
-5.40639
-6.25326
-7.03341
-7.74985
-8.40553
-9.00331
-9.54593
-10.0361
-10.4763
-10.8691
-11.217
-11.5223
-11.7873
-12.0143
-12.2055
-12.3629
-12.4887
-12.5846
-12.6528
-12.6949
-12.7127
-12.708
-12.6824
-12.6373
-12.5744
-12.495
-12.4006
-12.2924
-12.1717
-12.0398
-11.8976
-11.7465
-11.5873
-11.4212
-11.2489
-11.0715
-10.8898
-10.7046
-10.5166
-10.3267
-10.1354
-9.94337
-9.75132
-9.55978
-9.36929
-9.18036
-8.99347
-8.80908
-8.62761
-8.44946
-8.27499
-8.10456
-7.93848
-7.77707
-7.6206
-7.46933
-7.32351
-7.18336
-7.04909
-6.92089
-6.79894
-6.68341
-6.57444
-6.47216
-6.37671
-6.2882
-6.20673
-6.13238
-6.06525
-6.0054
-5.95289
-5.90779
-5.87014
-5.83997
-5.81732
-5.8022
-5.79464
48.6747
44.6761
40.8502
37.1928
33.7005
30.3694
27.1962
24.176
21.3057
18.5814
15.9972
13.5506
11.238
9.05384
6.99371
5.05413
3.23155
1.52179
-0.0797005
-1.57728
-2.97493
-4.27637
-5.48519
-6.60506
-7.63969
-8.59282
-9.46812
-10.2692
-10.9995
-11.6625
-12.2613
-12.7991
-13.279
-13.704
-14.077
-14.4008
-14.6782
-14.9117
-15.104
-15.2576
-15.3749
-15.4581
-15.5096
-15.5314
-15.5256
-15.4943
-15.4393
-15.3624
-15.2654
-15.1501
-15.0179
-14.8704
-14.7092
-14.5356
-14.3509
-14.1565
-13.9534
-13.743
-13.5263
-13.3043
-13.078
-12.8484
-12.6163
-12.3826
-12.148
-11.9134
-11.6794
-11.4466
-11.2158
-10.9875
-10.7622
-10.5405
-10.3229
-10.1097
-9.9015
-9.6986
-9.5014
-9.31023
-9.12542
-8.94727
-8.77605
-8.61201
-8.45539
-8.3064
-8.16525
-8.03212
-7.90717
-7.79056
-7.68242
-7.58288
-7.49205
-7.41003
-7.33691
-7.27276
-7.21766
-7.17166
-7.1348
-7.10713
-7.08866
-7.07943
57.4966
52.7734
48.2537
43.9334
39.8082
35.8734
32.1251
28.5575
25.1671
21.9489
18.8964
16.0065
13.2746
10.6946
8.26122
5.9702
3.81732
1.79762
-0.0941878
-1.86321
-3.51416
-5.05142
-6.47929
-7.80209
-9.02423
-10.1501
-11.1841
-12.1303
-12.993
-13.7761
-14.4834
-15.1187
-15.6856
-16.1877
-16.6282
-17.0107
-17.3383
-17.6142
-17.8414
-18.0229
-18.1614
-18.2597
-18.3205
-18.3462
-18.3394
-18.3024
-18.2374
-18.1466
-18.0321
-17.8958
-17.7396
-17.5655
-17.375
-17.1699
-16.9518
-16.7221
-16.4823
-16.2337
-15.9777
-15.7155
-15.4482
-15.1769
-14.9028
-14.6267
-14.3497
-14.0725
-13.7961
-13.5212
-13.2485
-12.9788
-12.7127
-12.4508
-12.1937
-11.942
-11.696
-11.4563
-11.2234
-10.9976
-10.7793
-10.5688
-10.3666
-10.1728
-9.9878
-9.81181
-9.64508
-9.48782
-9.34022
-9.20248
-9.07474
-8.95716
-8.84987
-8.75298
-8.66661
-8.59084
-8.52576
-8.47142
-8.42788
-8.39519
-8.37338
-8.36247
66.3041
60.8573
55.6453
50.6632
45.906
41.3686
37.0461
32.9321
29.0222
25.311
21.791
18.4584
15.308
12.3328
9.52671
6.8848
4.40213
2.07299
-0.108665
-2.1487
-4.05252
-5.82523
-7.47178
-8.99719
-10.4065
-11.7049
-12.8972
-13.9885
-14.9833
-15.8864
-16.702
-17.4347
-18.0884
-18.6673
-19.1754
-19.6165
-19.9943
-20.3124
-20.5744
-20.7836
-20.9434
-21.0568
-21.1268
-21.1565
-21.1487
-21.106
-21.031
-20.9263
-20.7942
-20.6371
-20.457
-20.2562
-20.0366
-19.8
-19.5485
-19.2836
-19.0071
-18.7204
-18.4252
-18.1228
-17.8146
-17.5018
-17.1856
-16.8673
-16.5478
-16.2281
-15.9094
-15.5924
-15.2779
-14.9669
-14.6601
-14.3581
-14.0616
-13.7712
-13.4876
-13.2112
-12.9426
-12.6822
-12.4305
-12.1878
-11.9545
-11.7311
-11.5177
-11.3148
-11.1225
-10.9412
-10.771
-10.6121
-10.4648
-10.3292
-10.2055
-10.0938
-9.99418
-9.9068
-9.83174
-9.76908
-9.71887
-9.68118
-9.65602
-9.64344
75.0952
68.9262
63.0231
57.3805
51.9926
46.8535
41.9579
37.2985
32.8702
28.6669
24.6802
20.9058
17.3377
13.968
10.7898
7.7977
4.98584
2.34784
-0.123124
-2.43365
-4.58988
-6.59759
-8.46242
-10.1901
-11.7863
-13.2568
-14.6072
-15.8431
-16.9699
-17.9927
-18.9165
-19.7463
-20.4867
-21.1424
-21.7178
-22.2174
-22.6452
-23.0056
-23.3023
-23.5393
-23.7202
-23.8486
-23.928
-23.9616
-23.9527
-23.9044
-23.8195
-23.7009
-23.5513
-23.3733
-23.1694
-22.9419
-22.6931
-22.4253
-22.1404
-21.8404
-21.5272
-21.2025
-20.8682
-20.5257
-20.1766
-19.8223
-19.4642
-19.1036
-18.7418
-18.3798
-18.0188
-17.6597
-17.3036
-16.9514
-16.6038
-16.2618
-15.926
-15.5971
-15.2759
-14.9629
-14.6586
-14.3637
-14.0786
-13.8037
-13.5396
-13.2865
-13.0448
-12.815
-12.5972
-12.3918
-12.1991
-12.0192
-11.8523
-11.6988
-11.5586
-11.4321
-11.3193
-11.2203
-11.1353
-11.0643
-11.0075
-10.9648
-10.9363
-10.922
83.8677
76.9781
70.3854
64.0836
58.0663
52.3269
46.8594
41.6556
36.71
32.0157
27.5634
23.348
19.363
15.5997
12.0503
8.70867
5.56832
2.6221
-0.137557
-2.71801
-5.12611
-7.36832
-9.45097
-11.3804
-13.1631
-14.8054
-16.3136
-17.6939
-18.9523
-20.0946
-21.1263
-22.053
-22.8799
-23.6122
-24.2549
-24.8128
-25.2906
-25.6931
-26.0245
-26.2891
-26.4912
-26.6346
-26.7232
-26.7608
-26.7509
-26.6969
-26.602
-26.4696
-26.3025
-26.1037
-25.876
-25.6219
-25.3441
-25.045
-24.7268
-24.3917
-24.042
-23.6794
-23.306
-22.9234
-22.5336
-22.1379
-21.738
-21.3353
-20.9312
-20.5269
-20.1237
-19.7227
-19.325
-18.9316
-18.5435
-18.1614
-17.7864
-17.4192
-17.0604
-16.7108
-16.371
-16.0416
-15.7232
-15.4163
-15.1212
-14.8386
-14.5687
-14.312
-14.0688
-13.8394
-13.6241
-13.4232
-13.2369
-13.0654
-12.9089
-12.7676
-12.6416
-12.5311
-12.4361
-12.3569
-12.2934
-12.2457
-12.2139
-12.1979
92.6195
85.011
77.7304
70.7709
64.1257
57.7874
51.7492
46.0025
40.5408
35.3566
30.4397
25.7845
21.3836
17.2275
13.3078
9.61748
6.14941
2.89571
-0.151958
-3.0017
-5.66107
-8.13723
-10.4372
-12.568
-14.5367
-16.3503
-18.0159
-19.5403
-20.9301
-22.1915
-23.331
-24.3543
-25.2675
-26.0762
-26.7859
-27.4021
-27.9298
-28.3742
-28.7402
-29.0325
-29.2556
-29.414
-29.5119
-29.5534
-29.5424
-29.4828
-29.378
-29.2318
-29.0473
-28.8277
-28.5762
-28.2957
-27.9889
-27.6585
-27.3071
-26.9371
-26.5508
-26.1504
-25.738
-25.3156
-24.885
-24.4481
-24.0064
-23.5617
-23.1154
-22.6689
-22.2237
-21.7808
-21.3416
-20.9072
-20.4785
-20.0566
-19.6425
-19.2369
-18.8407
-18.4546
-18.0794
-17.7156
-17.364
-17.025
-16.6992
-16.387
-16.089
-15.8055
-15.5369
-15.2836
-15.0459
-14.824
-14.6182
-14.4288
-14.256
-14.0999
-13.9608
-13.8387
-13.7339
-13.6463
-13.5762
-13.5235
-13.4884
-13.4708
101.349
93.0229
85.0561
77.4408
70.1693
63.2336
56.6264
50.3381
44.3616
38.6887
33.3085
28.2146
23.3989
18.8511
14.562
10.5239
6.72899
3.16861
-0.166321
-3.28464
-6.19462
-8.90412
-11.4208
-13.7524
-15.9066
-17.8912
-19.7139
-21.3819
-22.9026
-24.283
-25.5298
-26.6496
-27.6489
-28.5338
-29.3104
-29.9846
-30.5621
-31.0484
-31.4488
-31.7686
-32.0128
-32.1861
-32.2932
-32.3387
-32.3267
-32.2614
-32.1468
-31.9867
-31.7848
-31.5446
-31.2694
-30.9624
-30.6267
-30.2652
-29.8807
-29.4758
-29.0531
-28.615
-28.1637
-27.7015
-27.2303
-26.7522
-26.2689
-25.7823
-25.2939
-24.8054
-24.3181
-23.8336
-23.353
-22.8776
-22.4085
-21.9469
-21.4937
-21.0499
-20.6164
-20.1939
-19.7833
-19.3853
-19.0005
-18.6295
-18.273
-17.9315
-17.6053
-17.2951
-17.0012
-16.724
-16.4639
-16.2211
-15.9959
-15.7887
-15.5995
-15.4288
-15.2765
-15.143
-15.0282
-14.9324
-14.8557
-14.7981
-14.7596
-14.7404
110.053
101.012
92.3609
84.0915
76.1955
68.6643
61.4895
54.6612
48.1715
42.0114
36.1691
30.6378
25.4085
20.4701
15.8126
11.4277
7.3069
3.44072
-0.180642
-3.56677
-6.72665
-9.66882
-12.4016
-14.9334
-17.2727
-19.4277
-21.4069
-23.2182
-24.8695
-26.3685
-27.7224
-28.9384
-30.0234
-30.9843
-31.8276
-32.5597
-33.1868
-33.7148
-34.1497
-34.497
-34.7621
-34.9503
-35.0666
-35.116
-35.1029
-35.032
-34.9076
-34.7338
-34.5146
-34.2537
-33.9549
-33.6215
-33.257
-32.8644
-32.4469
-32.0072
-31.5482
-31.0725
-30.5825
-30.0805
-29.5689
-29.0497
-28.5249
-27.9965
-27.4662
-26.9357
-26.4066
-25.8804
-25.3586
-24.8423
-24.333
-23.8317
-23.3396
-22.8577
-22.3869
-21.9282
-21.4823
-21.0501
-20.6323
-20.2295
-19.8423
-19.4714
-19.1173
-18.7805
-18.4613
-18.1603
-17.8778
-17.6142
-17.3697
-17.1446
-16.9392
-16.7538
-16.5885
-16.4435
-16.3189
-16.2149
-16.1315
-16.069
-16.0272
-16.0063
118.729
108.976
99.6429
90.7215
82.203
74.0779
66.3375
58.9708
51.9695
45.3236
39.0208
33.0534
27.4117
22.0839
17.0593
12.3287
7.883
3.71198
-0.194916
-3.84801
-7.25701
-10.4311
-13.3794
-16.1108
-18.6345
-20.9595
-23.0947
-25.0488
-26.8303
-28.4474
-29.9081
-31.2199
-32.3906
-33.4272
-34.337
-35.1268
-35.8033
-36.373
-36.8422
-37.2168
-37.5029
-37.7059
-37.8314
-37.8846
-37.8705
-37.7941
-37.6598
-37.4723
-37.2358
-36.9544
-36.632
-36.2723
-35.879
-35.4555
-35.0051
-34.5308
-34.0356
-33.5223
-32.9937
-32.4521
-31.9002
-31.3401
-30.7739
-30.2038
-29.6317
-29.0594
-28.4886
-27.9209
-27.3579
-26.801
-26.2515
-25.7107
-25.1798
-24.6599
-24.152
-23.6571
-23.176
-22.7097
-22.259
-21.8244
-21.4067
-21.0066
-20.6246
-20.2612
-19.9169
-19.5921
-19.2874
-19.0029
-18.7391
-18.4963
-18.2748
-18.0747
-17.8964
-17.7399
-17.6055
-17.4933
-17.4034
-17.3359
-17.2908
-17.2683
127.377
116.913
106.9
97.3291
88.1902
79.4733
71.1691
63.2659
55.7546
48.6247
41.8629
35.4608
29.4082
23.6924
18.3018
13.2267
8.45716
3.98233
-0.209139
-4.1283
-7.78558
-11.1908
-14.3538
-17.2842
-19.9917
-22.486
-24.7767
-26.8732
-28.7845
-30.5194
-32.0864
-33.4938
-34.7497
-35.8619
-36.8379
-37.6852
-38.411
-39.0222
-39.5255
-39.9275
-40.2343
-40.4522
-40.5868
-40.6439
-40.6288
-40.5468
-40.4028
-40.2016
-39.9478
-39.6459
-39.3
-38.9142
-38.4922
-38.0379
-37.5546
-37.0458
-36.5145
-35.9639
-35.3967
-34.8158
-34.2236
-33.6227
-33.0153
-32.4037
-31.7899
-31.1759
-30.5635
-29.9545
-29.3505
-28.753
-28.1635
-27.5833
-27.0137
-26.4559
-25.911
-25.3801
-24.864
-24.3638
-23.8802
-23.414
-22.9659
-22.5366
-22.1268
-21.7369
-21.3675
-21.0191
-20.6921
-20.387
-20.104
-19.8435
-19.6058
-19.3912
-19.1998
-19.032
-18.8878
-18.7674
-18.6709
-18.5985
-18.5502
-18.526
135.993
124.821
114.131
103.913
94.1556
84.8491
75.9832
67.5454
59.526
51.9138
44.6946
37.8595
31.3974
25.295
19.5398
14.1214
9.02924
4.2517
-0.223308
-4.40758
-8.31222
-11.9478
-15.3247
-18.4533
-21.3439
-24.007
-26.4527
-28.691
-30.7316
-32.5838
-34.2568
-35.7595
-37.1003
-38.2877
-39.3297
-40.2344
-41.0093
-41.6618
-42.1991
-42.6283
-42.9559
-43.1885
-43.3322
-43.3931
-43.377
-43.2894
-43.1357
-42.9209
-42.65
-42.3277
-41.9584
-41.5464
-41.096
-40.6109
-40.0949
-39.5517
-38.9845
-38.3966
-37.791
-37.1708
-36.5386
-35.897
-35.2486
-34.5956
-33.9403
-33.2847
-32.6309
-31.9807
-31.3358
-30.6979
-30.0685
-29.4491
-28.841
-28.2455
-27.6637
-27.0969
-26.5459
-26.0118
-25.4955
-24.9977
-24.5194
-24.061
-23.6235
-23.2072
-22.8129
-22.4409
-22.0918
-21.766
-21.4639
-21.1858
-20.932
-20.7028
-20.4986
-20.3193
-20.1654
-20.0369
-19.9339
-19.8566
-19.805
-19.7792
144.576
132.699
121.334
110.471
100.098
90.204
80.7785
71.8082
63.2827
55.1901
47.5153
40.2488
33.3789
26.8913
20.7729
15.0126
9.59909
4.52002
-0.237419
-4.68576
-8.83681
-12.7018
-16.2918
-19.6178
-22.6909
-25.5221
-28.1221
-30.5017
-32.6711
-34.6402
-36.4188
-38.0163
-39.4417
-40.704
-41.8119
-42.7736
-43.5974
-44.2911
-44.8623
-45.3186
-45.6669
-45.9141
-46.0669
-46.1317
-46.1146
-46.0215
-45.858
-45.6297
-45.3417
-44.999
-44.6064
-44.1684
-43.6895
-43.1738
-42.6253
-42.0478
-41.4448
-40.8198
-40.176
-39.5166
-38.8445
-38.1625
-37.4731
-36.7789
-36.0822
-35.3853
-34.6903
-33.999
-33.3134
-32.6353
-31.9662
-31.3077
-30.6612
-30.0281
-29.4096
-28.807
-28.2212
-27.6534
-27.1045
-26.5753
-26.0668
-25.5795
-25.1143
-24.6718
-24.2526
-23.8571
-23.486
-23.1397
-22.8185
-22.5228
-22.253
-22.0094
-21.7922
-21.6017
-21.438
-21.3014
-21.1919
-21.1097
-21.0549
-21.0274
153.122
140.544
128.507
117.001
106.015
95.5366
85.5539
76.0533
67.0238
58.4527
50.3243
42.6282
35.3522
28.481
22.001
15.9001
10.1666
4.78723
-0.25147
-4.96278
-9.35922
-13.4527
-17.2549
-20.7776
-24.0323
-27.0308
-29.7846
-32.3049
-34.6025
-36.688
-38.5718
-40.2637
-41.7734
-43.1103
-44.2837
-45.3022
-46.1747
-46.9094
-47.5145
-47.9977
-48.3665
-48.6284
-48.7903
-48.8589
-48.8407
-48.7421
-48.569
-48.3272
-48.0221
-47.6592
-47.2434
-46.7795
-46.2723
-45.7262
-45.1452
-44.5335
-43.8949
-43.2329
-42.5511
-41.8528
-41.1409
-40.4185
-39.6884
-38.9532
-38.2153
-37.4772
-36.7411
-36.0089
-35.2828
-34.5646
-33.8559
-33.1585
-32.4738
-31.8032
-31.1482
-30.5099
-29.8896
-29.2882
-28.7068
-28.1464
-27.6078
-27.0917
-26.599
-26.1304
-25.6863
-25.2675
-24.8744
-24.5076
-24.1674
-23.8543
-23.5686
-23.3105
-23.0805
-22.8787
-22.7054
-22.5607
-22.4447
-22.3577
-22.2996
-22.2705
161.632
148.354
135.648
123.503
111.907
100.846
90.3082
80.2797
70.7484
61.701
53.1208
44.9971
37.3167
30.0637
23.2236
16.7837
10.7315
5.05326
-0.265456
-5.23858
-9.87932
-14.2003
-18.2138
-21.9322
-25.3678
-28.5329
-31.4398
-34.1001
-36.5254
-38.7268
-40.7153
-42.5012
-44.0948
-45.506
-46.7445
-47.8197
-48.7407
-49.5162
-50.1549
-50.6649
-51.0543
-51.3307
-51.5016
-51.574
-51.5548
-51.4507
-51.268
-51.0127
-50.6907
-50.3076
-49.8687
-49.3791
-48.8437
-48.2672
-47.654
-47.0083
-46.3341
-45.6354
-44.9157
-44.1785
-43.4271
-42.6646
-41.8939
-41.1178
-40.339
-39.5598
-38.7828
-38.01
-37.2435
-36.4854
-35.7373
-35.0011
-34.2784
-33.5706
-32.8791
-32.2054
-31.5506
-30.9158
-30.3021
-29.7105
-29.1419
-28.5972
-28.0772
-27.5824
-27.1137
-26.6716
-26.2567
-25.8695
-25.5104
-25.1799
-24.8783
-24.6059
-24.3631
-24.1501
-23.9671
-23.8144
-23.692
-23.6001
-23.5388
-23.5081
170.101
156.127
142.756
129.975
117.77
106.13
95.0402
84.4862
74.4555
64.934
55.9043
47.3549
39.272
31.639
24.4404
17.6632
11.2939
5.31804
-0.279376
-5.51308
-10.397
-14.9443
-19.1681
-23.0813
-26.697
-30.028
-33.0871
-35.8869
-38.4393
-40.7561
-42.8487
-44.7282
-46.4053
-47.8905
-49.1939
-50.3254
-51.2946
-52.1108
-52.7829
-53.3197
-53.7295
-54.0204
-54.2002
-54.2764
-54.2562
-54.1467
-53.9544
-53.6857
-53.3469
-52.9437
-52.4817
-51.9665
-51.403
-50.7963
-50.1509
-49.4714
-48.762
-48.0266
-47.2692
-46.4934
-45.7026
-44.9002
-44.0891
-43.2723
-42.4527
-41.6327
-40.8149
-40.0016
-39.195
-38.3971
-37.6099
-36.8351
-36.0745
-35.3296
-34.6019
-33.8929
-33.2038
-32.5357
-31.8899
-31.2673
-30.6689
-30.0957
-29.5484
-29.0277
-28.5344
-28.0692
-27.6325
-27.225
-26.8471
-26.4993
-26.1818
-25.8952
-25.6397
-25.4155
-25.223
-25.0622
-24.9334
-24.8367
-24.7722
-24.7399
178.528
163.862
149.829
136.414
123.605
111.388
99.7487
88.6719
78.1442
68.151
58.6739
49.701
41.2177
33.2064
25.6513
18.5383
11.8534
5.58152
-0.293225
-5.78622
-10.9121
-15.6847
-20.1177
-24.2248
-28.0196
-31.5157
-34.7264
-37.6648
-40.3436
-42.7752
-44.9715
-46.9441
-48.7043
-50.2631
-51.6311
-52.8187
-53.8359
-54.6925
-55.3979
-55.9613
-56.3914
-56.6967
-56.8854
-56.9654
-56.9442
-56.8292
-56.6274
-56.3455
-55.9898
-55.5666
-55.0818
-54.5411
-53.9497
-53.3129
-52.6356
-51.9224
-51.1778
-50.406
-49.6111
-48.7968
-47.9669
-47.1246
-46.2734
-45.4162
-44.5559
-43.6953
-42.837
-41.9834
-41.1368
-40.2994
-39.4732
-38.66
-37.8617
-37.0799
-36.3162
-35.572
-34.8488
-34.1476
-33.4698
-32.8164
-32.1884
-31.5867
-31.0123
-30.4658
-29.9481
-29.4598
-29.0015
-28.5738
-28.1772
-27.8121
-27.479
-27.1781
-26.91
-26.6747
-26.4726
-26.3039
-26.1687
-26.0672
-25.9995
-25.9656
186.911
171.557
156.864
142.82
129.409
116.618
104.433
92.8357
81.8137
71.3511
61.4291
52.0349
43.1531
34.7657
26.8558
19.4088
12.41
5.84361
-0.307002
-6.05794
-11.4245
-16.4212
-21.0624
-25.3623
-29.3353
-32.9955
-36.357
-39.4334
-42.2381
-44.7839
-47.0833
-49.1485
-50.9914
-52.6233
-54.0555
-55.2989
-56.3639
-57.2607
-57.9993
-58.5891
-59.0394
-59.359
-59.5566
-59.6403
-59.6182
-59.4978
-59.2865
-58.9913
-58.6189
-58.1759
-57.6683
-57.1022
-56.483
-55.8163
-55.1072
-54.3605
-53.5809
-52.7729
-51.9407
-51.0882
-50.2193
-49.3375
-48.4462
-47.5488
-46.6481
-45.7471
-44.8485
-43.9549
-43.0685
-42.1918
-41.3267
-40.4754
-39.6396
-38.8211
-38.0215
-37.2424
-36.4852
-35.7511
-35.0414
-34.3573
-33.6998
-33.0699
-32.4685
-31.8964
-31.3544
-30.8432
-30.3634
-29.9156
-29.5003
-29.1181
-28.7693
-28.4544
-28.1736
-27.9273
-27.7157
-27.539
-27.3975
-27.2912
-27.2203
-27.1849
195.248
179.209
163.861
149.19
135.181
121.82
109.091
96.9766
85.4629
74.5337
64.1691
54.3559
45.0779
36.3164
28.0537
20.2745
12.9636
6.10427
-0.320703
-6.32816
-11.9341
-17.1536
-22.0019
-26.4936
-30.6438
-34.4673
-37.9787
-41.1923
-44.1221
-46.7814
-49.1834
-51.3408
-53.2658
-54.9706
-56.4667
-57.7655
-58.878
-59.8148
-60.5863
-61.2024
-61.6728
-62.0067
-62.2131
-62.3005
-62.2774
-62.1517
-61.9309
-61.6226
-61.2336
-60.7708
-60.2406
-59.6492
-59.0024
-58.306
-57.5652
-56.7852
-55.9709
-55.1268
-54.2575
-53.367
-52.4593
-51.5382
-50.6072
-49.6697
-48.7288
-47.7877
-46.849
-45.9154
-44.9896
-44.0737
-43.1701
-42.2808
-41.4077
-40.5527
-39.7175
-38.9036
-38.1126
-37.3458
-36.6044
-35.8898
-35.203
-34.545
-33.9168
-33.3191
-32.7529
-32.2189
-31.7177
-31.2499
-30.8162
-30.4169
-30.0525
-29.7236
-29.4302
-29.1729
-28.9519
-28.7674
-28.6196
-28.5085
-28.4345
-28.3974
203.537
186.817
170.817
155.523
140.92
126.992
113.722
101.094
89.0911
77.6979
66.8933
56.6635
46.9916
37.8581
29.2446
21.1353
13.514
6.36342
-0.334324
-6.59682
-12.4407
-17.8819
-22.9359
-27.6183
-31.9447
-35.9305
-39.591
-42.9411
-45.9952
-48.7675
-51.2714
-53.5204
-55.5271
-57.3042
-58.8639
-60.2178
-61.3775
-62.3542
-63.1584
-63.8007
-64.291
-64.6391
-64.8542
-64.9454
-64.9213
-64.7902
-64.5601
-64.2386
-63.8332
-63.3507
-62.798
-62.1815
-61.5073
-60.7813
-60.009
-59.1959
-58.347
-57.4671
-56.5609
-55.6326
-54.6863
-53.7261
-52.7556
-51.7783
-50.7975
-49.8164
-48.8379
-47.8647
-46.8995
-45.9448
-45.0028
-44.0757
-43.1656
-42.2743
-41.4036
-40.5552
-39.7306
-38.9312
-38.1584
-37.4135
-36.6975
-36.0115
-35.3566
-34.7336
-34.1434
-33.5867
-33.0642
-32.5766
-32.1244
-31.7082
-31.3284
-30.9854
-30.6797
-30.4114
-30.181
-29.9887
-29.8345
-29.7188
-29.6416
-29.603
211.776
194.379
177.732
161.819
146.624
132.132
118.325
105.186
92.6973
80.8429
69.601
58.9571
48.8937
39.3905
30.4284
21.9908
14.061
6.621
-0.347863
-6.86385
-12.9443
-18.6057
-23.8643
-28.7362
-33.2377
-37.3849
-41.1936
-44.6793
-47.857
-50.7415
-53.3468
-55.6868
-57.7747
-59.6238
-61.2465
-62.6553
-63.862
-64.8781
-65.7149
-66.3832
-66.8933
-67.2555
-67.4793
-67.5742
-67.5492
-67.4128
-67.1733
-66.8389
-66.417
-65.915
-65.3399
-64.6984
-63.9969
-63.2415
-62.4381
-61.592
-60.7088
-59.7933
-58.8503
-57.8844
-56.8999
-55.9008
-54.891
-53.8742
-52.8537
-51.8328
-50.8147
-49.8021
-48.7979
-47.8045
-46.8244
-45.8598
-44.9128
-43.9854
-43.0795
-42.1968
-41.3388
-40.507
-39.703
-38.9279
-38.1829
-37.4692
-36.7878
-36.1396
-35.5255
-34.9462
-34.4026
-33.8952
-33.4247
-32.9917
-32.5965
-32.2396
-31.9215
-31.6424
-31.4027
-31.2025
-31.0422
-30.9218
-30.8414
-30.8012
219.962
201.893
184.602
168.074
152.292
137.24
122.899
109.252
96.2806
83.9679
72.2915
61.2361
50.7838
40.9132
31.6046
22.8409
14.6046
6.87695
-0.361316
-7.12919
-13.4446
-19.3249
-24.7867
-29.847
-34.5225
-38.83
-42.7859
-46.4064
-49.707
-52.703
-55.409
-57.8394
-60.0081
-61.9286
-63.6141
-65.0773
-66.3306
-67.386
-68.2552
-68.9493
-69.4792
-69.8553
-70.0878
-70.1864
-70.1603
-70.0187
-69.77
-69.4226
-68.9844
-68.463
-67.8657
-67.1994
-66.4708
-65.6862
-64.8517
-63.973
-63.0555
-62.1047
-61.1252
-60.122
-59.0994
-58.0617
-57.0129
-55.9567
-54.8968
-53.8365
-52.779
-51.7273
-50.6842
-49.6525
-48.6345
-47.6326
-46.649
-45.6858
-44.7448
-43.8279
-42.9368
-42.0729
-41.2377
-40.4327
-39.6589
-38.9176
-38.2098
-37.5366
-36.8987
-36.2971
-35.7325
-35.2055
-34.7168
-34.267
-33.8565
-33.4859
-33.1555
-32.8656
-32.6166
-32.4087
-32.2421
-32.1171
-32.0336
-31.9919
228.095
209.357
191.427
174.288
157.923
142.313
127.443
113.291
99.8402
87.0723
74.9642
63.5001
52.6613
42.4258
32.7731
23.6854
15.1445
7.1312
-0.37468
-7.39276
-13.9417
-20.0393
-25.7031
-30.9505
-35.7989
-40.2656
-44.3678
-48.1221
-51.5447
-54.6514
-57.4575
-59.9778
-62.2267
-64.2182
-65.966
-67.4833
-68.7829
-69.8774
-70.7786
-71.4984
-72.0479
-72.4379
-72.679
-72.7812
-72.7542
-72.6073
-72.3494
-71.9892
-71.5348
-70.9941
-70.3747
-69.6838
-68.9283
-68.1147
-67.2493
-66.3381
-65.3868
-64.4007
-63.3851
-62.3448
-61.2844
-60.2083
-59.1207
-58.0255
-56.9264
-55.8269
-54.7303
-53.6397
-52.5581
-51.4881
-50.4325
-49.3936
-48.3736
-47.3748
-46.399
-45.4483
-44.5242
-43.6283
-42.7623
-41.9275
-41.1251
-40.3564
-39.6225
-38.9243
-38.2629
-37.639
-37.0535
-36.5071
-36.0003
-35.5339
-35.1082
-34.7239
-34.3812
-34.0806
-33.8224
-33.6069
-33.4342
-33.3045
-33.2179
-33.1747
236.17
216.769
198.205
180.459
163.514
147.352
131.955
117.302
103.375
90.1551
77.6184
65.7484
54.5258
43.9279
33.9335
24.524
15.6807
7.38369
-0.387953
-7.65452
-14.4353
-20.7488
-26.6131
-32.0463
-37.0663
-41.6912
-45.9387
-49.8259
-53.3697
-56.5864
-59.4919
-62.1014
-64.4299
-66.4919
-68.3016
-69.8726
-71.2182
-72.3514
-73.2846
-74.0299
-74.5988
-75.0027
-75.2523
-75.3581
-75.3302
-75.178
-74.911
-74.538
-74.0676
-73.5077
-72.8664
-72.151
-71.3687
-70.5263
-69.6303
-68.6868
-67.7018
-66.6809
-65.6293
-64.5521
-63.4542
-62.34
-61.2139
-60.0799
-58.9419
-57.8035
-56.668
-55.5389
-54.4189
-53.3111
-52.2181
-51.1424
-50.0863
-49.0521
-48.0418
-47.0574
-46.1006
-45.173
-44.2764
-43.412
-42.5812
-41.7853
-41.0254
-40.3025
-39.6176
-38.9717
-38.3654
-37.7996
-37.2749
-36.792
-36.3513
-35.9533
-35.5985
-35.2873
-35.02
-34.7968
-34.6179
-34.4836
-34.3941
-34.3492
244.188
224.128
204.933
186.585
169.065
152.354
136.435
121.284
106.885
93.2158
80.2534
67.9805
56.3769
45.4191
35.0854
25.3565
16.2131
7.63436
-0.40113
-7.91439
-14.9254
-21.4532
-27.5166
-33.1342
-38.3247
-43.1066
-47.4982
-51.5174
-55.1815
-58.5075
-61.5115
-64.2096
-66.6172
-68.7492
-70.6203
-72.2447
-73.636
-74.8077
-75.7725
-76.5431
-77.1313
-77.5489
-77.807
-77.9164
-77.8875
-77.7302
-77.4542
-77.0685
-76.582
-76.0032
-75.3401
-74.6005
-73.7916
-72.9206
-71.9941
-71.0186
-70.0002
-68.9446
-67.8573
-66.7436
-65.6084
-64.4564
-63.292
-62.1195
-60.9429
-59.7658
-58.5918
-57.4243
-56.2664
-55.121
-53.9908
-52.8786
-51.7867
-50.7174
-49.6728
-48.6549
-47.6656
-46.7066
-45.7795
-44.8857
-44.0268
-43.2038
-42.4181
-41.6707
-40.9626
-40.2947
-39.6679
-39.0829
-38.5404
-38.041
-37.5853
-37.1739
-36.807
-36.4853
-36.2088
-35.978
-35.7931
-35.6543
-35.5617
-35.5153
252.145
231.432
211.611
192.665
174.574
157.319
140.881
125.236
110.368
96.2534
82.8686
70.1957
58.214
46.8992
36.2288
26.1828
16.7414
7.88314
-0.414208
-8.1723
-15.4118
-22.1523
-28.4133
-34.2139
-39.5735
-44.5113
-49.046
-53.1962
-56.9798
-60.4141
-63.516
-66.302
-68.788
-70.9895
-72.9216
-74.5989
-76.0356
-77.2454
-78.2417
-79.0374
-79.6448
-80.076
-80.3425
-80.4555
-80.4256
-80.2632
-79.9782
-79.5799
-79.0776
-78.4799
-77.7952
-77.0315
-76.1962
-75.2969
-74.3402
-73.3329
-72.2813
-71.1913
-70.0686
-68.9186
-67.7464
-66.5568
-65.3545
-64.1438
-62.9288
-61.7134
-60.5012
-59.2956
-58.0999
-56.9172
-55.7502
-54.6018
-53.4743
-52.3701
-51.2915
-50.2404
-49.2189
-48.2286
-47.2713
-46.3484
-45.4615
-44.6117
-43.8004
-43.0286
-42.2974
-41.6078
-40.9605
-40.3564
-39.7963
-39.2806
-38.8101
-38.3853
-38.0065
-37.6742
-37.3888
-37.1505
-36.9595
-36.8162
-36.7205
-36.6727
260.041
238.679
218.237
198.698
180.041
162.245
145.292
129.158
113.823
99.2672
85.4634
72.3937
60.0368
48.3677
37.3632
27.0027
17.2656
8.12998
-0.427184
-8.4282
-15.8943
-22.8459
-29.3029
-35.2852
-40.8127
-45.905
-50.5818
-54.8619
-58.7639
-62.3057
-65.5048
-68.3781
-70.9419
-73.2124
-75.2049
-76.9347
-78.4164
-79.6641
-80.6916
-81.5122
-82.1386
-82.5833
-82.8582
-82.9747
-82.9439
-82.7764
-82.4824
-82.0717
-81.5537
-80.9373
-80.2311
-79.4435
-78.5821
-77.6545
-76.6679
-75.6291
-74.5446
-73.4204
-72.2625
-71.0765
-69.8676
-68.6408
-67.4009
-66.1523
-64.8992
-63.6458
-62.3956
-61.1523
-59.9191
-58.6994
-57.4959
-56.3114
-55.1486
-54.0099
-52.8975
-51.8136
-50.76
-49.7388
-48.7514
-47.7997
-46.8849
-46.0086
-45.1719
-44.3759
-43.6218
-42.9106
-42.2431
-41.6201
-41.0424
-40.5106
-40.0253
-39.5872
-39.1965
-38.8539
-38.5595
-38.3137
-38.1168
-37.969
-37.8703
-37.821
267.872
245.866
224.81
204.682
185.462
167.131
149.667
133.047
117.251
102.257
88.0371
74.5738
61.8448
49.8243
38.4883
27.8159
17.7856
8.37481
-0.440055
-8.68202
-16.373
-23.5339
-30.1854
-36.3478
-42.0417
-47.2874
-52.105
-56.514
-60.5336
-64.1821
-67.4775
-70.4373
-73.0783
-75.4171
-77.4697
-79.2516
-80.7779
-82.0632
-83.1216
-83.9669
-84.6122
-85.0703
-85.3534
-85.4734
-85.4417
-85.2692
-84.9663
-84.5433
-84.0096
-83.3747
-82.6473
-81.8359
-80.9486
-79.9931
-78.9768
-77.9067
-76.7894
-75.6314
-74.4387
-73.217
-71.9716
-70.7079
-69.4306
-68.1444
-66.8537
-65.5624
-64.2746
-62.9938
-61.7236
-60.4671
-59.2273
-58.0072
-56.8094
-55.6364
-54.4905
-53.3739
-52.2886
-51.2366
-50.2196
-49.2392
-48.2969
-47.3941
-46.5322
-45.7123
-44.9355
-44.2028
-43.5152
-42.8735
-42.2783
-41.7305
-41.2307
-40.7793
-40.3769
-40.0239
-39.7207
-39.4675
-39.2647
-39.1124
-39.0108
-38.9599
275.636
252.993
231.326
210.615
190.839
171.976
154.006
136.904
120.65
105.221
90.5891
76.7355
63.6375
51.2685
39.604
28.6222
18.3012
8.61758
-0.452818
-8.9337
-16.8476
-24.2161
-31.0604
-37.4014
-43.2604
-48.6582
-53.6154
-58.1522
-62.2883
-66.0425
-69.4335
-72.4791
-75.1967
-77.6033
-79.7154
-81.5489
-83.1194
-84.442
-85.5311
-86.4009
-87.0649
-87.5363
-87.8276
-87.9511
-87.9185
-87.7409
-87.4293
-86.994
-86.4449
-85.7915
-85.043
-84.2081
-83.295
-82.3119
-81.2661
-80.165
-79.0154
-77.8238
-76.5965
-75.3393
-74.0579
-72.7576
-71.4433
-70.1198
-68.7916
-67.4629
-66.1377
-64.8199
-63.5128
-62.2199
-60.9442
-59.6887
-58.4562
-57.2491
-56.07
-54.9211
-53.8044
-52.7218
-51.6753
-50.6665
-49.6969
-48.7679
-47.881
-47.0374
-46.2381
-45.4842
-44.7766
-44.1162
-43.5039
-42.9402
-42.4259
-41.9614
-41.5473
-41.1841
-40.8721
-40.6116
-40.4029
-40.2461
-40.1416
-40.0893
283.333
260.058
237.786
216.496
196.168
176.778
158.306
140.727
124.019
108.159
93.1187
78.8783
65.4145
52.7001
40.7099
29.4214
18.8122
8.85822
-0.465469
-9.18317
-17.3181
-24.8923
-31.9277
-38.4458
-44.4684
-50.0169
-55.1126
-59.7761
-64.0276
-67.8867