/*--------------------------------*- C++ -*----------------------------------*\
| =========                 |                                                 |
| \\      /  F ield         | OpenFOAM: The Open Source CFD Toolbox           |
|  \\    /   O peration     | Version:  2406                                  |
|   \\  /    A nd           | Website:  www.openfoam.com                      |
|    \\/     M anipulation  |                                                 |
\*---------------------------------------------------------------------------*/
FoamFile
{
    version     2.0;
    format      ascii;
    arch        "LSB;label=32;scalar=64";
    class       volScalarField;
    location    "145";
    object      gradTx;
}
// * * * * * * * * * * * * * * * * * * * * * * * * * * * * * * * * * * * * * //

dimensions      [0 -1 0 1 0 0 0];

internalField   nonuniform List<scalar> 
20000
(
7.55881
7.16568
6.78042
6.40368
6.03611
5.67797
5.32938
4.99148
4.66439
4.34765
4.0417
3.74699
3.46353
3.19118
2.92984
2.67951
2.44016
2.21171
1.99401
1.78688
1.59013
1.40353
1.22687
1.0599
0.902369
0.754029
0.614607
0.483829
0.361412
0.24707
0.140512
0.0414488
-0.0504132
-0.135365
-0.213698
-0.2857
-0.351655
-0.411846
-0.46655
-0.516039
-0.560579
-0.600433
-0.635856
-0.667096
-0.694394
-0.717987
-0.738102
-0.754959
-0.768772
-0.779747
-0.788081
-0.793966
-0.797586
-0.799115
-0.798723
-0.796571
-0.792814
-0.787598
-0.781064
-0.773345
-0.764569
-0.754855
-0.744319
-0.733068
-0.721204
-0.708825
-0.696022
-0.68288
-0.66948
-0.655898
-0.642206
-0.628471
-0.614754
-0.601113
-0.587605
-0.574278
-0.561182
-0.548358
-0.535848
-0.52369
-0.511917
-0.500563
-0.489657
-0.479226
-0.469294
-0.459885
-0.451018
-0.442714
-0.434987
-0.427855
-0.42133
-0.415425
-0.410151
-0.405516
-0.401528
-0.398195
-0.395522
-0.393514
-0.392173
-0.391502
22.6746
21.4952
20.3396
19.2096
18.1065
17.0322
15.9872
14.9735
13.9918
13.0417
12.1242
11.2402
10.3898
9.57271
8.78875
8.03785
7.31989
6.6346
5.98155
5.36022
4.77
4.21026
3.6803
3.17943
2.70688
2.2619
1.84367
1.45137
1.08415
0.741148
0.421502
0.124336
-0.151227
-0.406063
-0.641042
-0.857029
-1.05488
-1.23544
-1.39953
-1.54799
-1.6816
-1.80115
-1.90741
-2.00112
-2.08301
-2.15378
-2.21412
-2.26469
-2.30613
-2.33905
-2.36405
-2.3817
-2.39256
-2.39715
-2.39597
-2.38952
-2.37825
-2.3626
-2.343
-2.31985
-2.29352
-2.26438
-2.23277
-2.19902
-2.16343
-2.1263
-2.08789
-2.04847
-2.00827
-1.96753
-1.92646
-1.88526
-1.84411
-1.80319
-1.76267
-1.72269
-1.68341
-1.64494
-1.60741
-1.57094
-1.53563
-1.50157
-1.46885
-1.43756
-1.40777
-1.37954
-1.35294
-1.32803
-1.30486
-1.28346
-1.26389
-1.24617
-1.23035
-1.21645
-1.20449
-1.19449
-1.18647
-1.18044
-1.17642
-1.17441
37.7849
35.8197
33.8937
32.0107
30.1725
28.3822
26.6413
24.9518
23.3155
21.7324
20.2037
18.7307
17.3135
15.9518
14.6454
13.3942
12.1978
11.0559
9.96763
8.93225
7.94871
7.01595
6.13283
5.29817
4.51073
3.76921
3.07227
2.41855
1.80661
1.23504
0.702388
0.207193
-0.252004
-0.67666
-1.06823
-1.42815
-1.75784
-2.05872
-2.33217
-2.57956
-2.80221
-3.00143
-3.1785
-3.33466
-3.47111
-3.58905
-3.6896
-3.77386
-3.84291
-3.89777
-3.93943
-3.96885
-3.98694
-3.99459
-3.99263
-3.98187
-3.96309
-3.93702
-3.90436
-3.86577
-3.8219
-3.77334
-3.72068
-3.66443
-3.60513
-3.54325
-3.47925
-3.41356
-3.34657
-3.27868
-3.21024
-3.14158
-3.07301
-3.00483
-2.9373
-2.87068
-2.80522
-2.74111
-2.67858
-2.6178
-2.55896
-2.5022
-2.44768
-2.39554
-2.34589
-2.29886
-2.25454
-2.21302
-2.1744
-2.13875
-2.10613
-2.07661
-2.05025
-2.02708
-2.00715
-1.99048
-1.97712
-1.96708
-1.96038
-1.95703
52.8858
50.1354
47.4396
44.8038
42.2311
39.7253
37.2887
34.924
32.6335
30.4177
28.2783
26.2167
24.233
22.327
20.4985
18.7472
17.0727
15.4744
13.9513
12.5021
11.1255
9.8199
8.58384
7.4156
6.31345
5.27559
4.30012
3.38513
2.52863
1.72863
0.983101
0.289998
-0.352718
-0.94709
-1.49515
-1.99891
-2.46037
-2.8815
-3.26424
-3.61049
-3.92212
-4.20096
-4.4488
-4.66737
-4.85836
-5.02343
-5.16416
-5.28211
-5.37875
-5.45553
-5.51385
-5.55502
-5.58034
-5.59105
-5.5883
-5.57325
-5.54696
-5.51047
-5.46475
-5.41075
-5.34934
-5.28138
-5.20766
-5.12894
-5.04594
-4.95933
-4.86975
-4.7778
-4.68405
-4.58902
-4.49323
-4.39712
-4.30115
-4.20572
-4.1112
-4.01797
-3.92633
-3.83661
-3.74908
-3.66402
-3.58165
-3.50221
-3.42591
-3.35293
-3.28344
-3.21761
-3.15557
-3.09747
-3.04341
-2.99351
-2.94786
-2.90654
-2.86964
-2.83721
-2.80931
-2.78599
-2.76729
-2.75324
-2.74385
-2.73916
67.9733
64.4384
60.9739
57.586
54.2793
51.0586
47.9268
44.8874
41.9435
39.0956
36.346
33.6962
31.1465
28.6967
26.3464
24.0955
21.9434
19.8891
17.9315
16.0688
14.2995
12.6214
11.0327
9.5312
8.11462
6.78066
5.5269
4.35087
3.25003
2.22179
1.26357
0.372732
-0.453346
-1.21729
-1.9217
-2.56918
-3.1623
-3.70357
-4.1955
-4.64053
-5.04107
-5.39946
-5.718
-5.99892
-6.24441
-6.45657
-6.63745
-6.78904
-6.91326
-7.01195
-7.0869
-7.13982
-7.17237
-7.18612
-7.1826
-7.16325
-7.12946
-7.08255
-7.0238
-6.95438
-6.87546
-6.78811
-6.69336
-6.59218
-6.4855
-6.37418
-6.25904
-6.14086
-6.02036
-5.89823
-5.7751
-5.65158
-5.52823
-5.40557
-5.2841
-5.16426
-5.04648
-4.93116
-4.81867
-4.70933
-4.60347
-4.50137
-4.40329
-4.30949
-4.22017
-4.13556
-4.05583
-3.98115
-3.91167
-3.84753
-3.78886
-3.73575
-3.68832
-3.64664
-3.61078
-3.58081
-3.55677
-3.53871
-3.52665
-3.52062
83.0441
78.7255
74.4931
70.354
66.3142
62.3792
58.553
54.8399
51.2431
47.7639
44.4047
41.1673
38.0522
35.0592
32.1879
29.4379
26.8087
24.299
21.9073
19.6317
17.47
15.4199
13.4789
11.6444
9.91379
8.28406
6.75232
5.31554
3.97062
2.71441
1.54373
0.455373
-0.553862
-1.48718
-2.34778
-3.13882
-3.86344
-4.52472
-5.12572
-5.66943
-6.15877
-6.59662
-6.98579
-7.329
-7.62892
-7.88812
-8.10911
-8.29431
-8.44606
-8.56663
-8.6582
-8.72286
-8.76262
-8.77942
-8.77512
-8.75148
-8.7102
-8.6529
-8.58111
-8.49631
-8.39989
-8.29317
-8.17741
-8.0538
-7.92346
-7.78746
-7.6468
-7.50241
-7.3552
-7.20598
-7.05556
-6.90465
-6.75395
-6.60409
-6.45568
-6.30927
-6.16538
-6.0245
-5.88706
-5.75348
-5.62415
-5.49941
-5.37959
-5.26498
-5.15587
-5.05249
-4.95508
-4.86384
-4.77896
-4.7006
-4.62892
-4.56404
-4.50609
-4.45517
-4.41136
-4.37474
-4.34538
-4.32331
-4.30858
-4.30121
98.0946
92.9933
87.9938
83.1045
78.3326
73.6845
69.1649
64.7788
60.5301
56.4204
52.4524
48.6283
44.9486
41.4131
38.0214
34.7731
31.6674
28.7028
25.8777
23.1896
20.6361
18.2145
15.9217
13.7548
11.7105
9.78541
7.97607
6.2789
4.69023
3.20635
1.8235
0.537902
-0.654242
-1.75671
-2.77328
-3.70769
-4.56363
-5.34476
-6.05468
-6.69692
-7.27495
-7.79216
-8.25186
-8.65727
-9.01154
-9.31772
-9.57876
-9.79752
-9.97678
-10.1192
-10.2274
-10.3037
-10.3507
-10.3706
-10.3655
-10.3376
-10.2888
-10.2211
-10.1363
-10.0361
-9.92224
-9.79618
-9.65944
-9.51343
-9.35947
-9.19882
-9.03266
-8.86211
-8.68821
-8.51196
-8.33427
-8.15601
-7.978
-7.80098
-7.62568
-7.45273
-7.28277
-7.11634
-6.954
-6.79621
-6.64344
-6.49609
-6.35455
-6.21918
-6.09029
-5.96818
-5.85312
-5.74534
-5.64508
-5.55252
-5.46784
-5.39121
-5.32275
-5.2626
-5.21085
-5.1676
-5.13291
-5.10685
-5.08944
-5.08074
113.121
107.238
101.473
95.8346
90.3317
84.9716
79.7597
74.7017
69.8022
65.063
60.4872
56.0773
51.8338
47.7567
43.8455
40.0997
36.5182
33.0996
29.8417
26.7419
23.7972
21.0046
18.3607
15.8618
13.5043
11.2844
9.19786
7.24071
5.40868
3.6975
2.10283
0.620297
-0.754461
-2.02581
-3.1981
-4.27564
-5.26269
-6.16348
-6.98215
-7.72277
-8.38934
-8.98578
-9.51589
-9.98341
-10.3919
-10.745
-11.046
-11.2983
-11.505
-11.6693
-11.794
-11.8821
-11.9363
-11.9591
-11.9533
-11.9211
-11.8648
-11.7868
-11.689
-11.5735
-11.4421
-11.2968
-11.1391
-10.9707
-10.7932
-10.6079
-10.4163
-10.2196
-10.0191
-9.81583
-9.61093
-9.40536
-9.20008
-8.99595
-8.79379
-8.59435
-8.39835
-8.20644
-8.01922
-7.83726
-7.66109
-7.49117
-7.32796
-7.17185
-7.02321
-6.8824
-6.74971
-6.62542
-6.5098
-6.40306
-6.30541
-6.21704
-6.1381
-6.06873
-6.00906
-5.95918
-5.91918
-5.88912
-5.86905
-5.85901
128.119
121.456
114.927
108.541
102.308
96.2377
90.3348
84.6062
79.0571
73.6895
68.5071
63.5124
58.7063
54.0886
49.6588
45.4164
41.3601
37.4882
33.7983
30.2875
26.9524
23.7895
20.795
17.9649
15.2948
12.7805
10.4174
8.20073
6.1258
4.18774
2.38163
0.702538
-0.854495
-2.29441
-3.62213
-4.84253
-5.96046
-6.98068
-7.90789
-8.74671
-9.50166
-10.1772
-10.7776
-11.3071
-11.7698
-12.1697
-12.5106
-12.7963
-13.0305
-13.2165
-13.3577
-13.4575
-13.5188
-13.5448
-13.5381
-13.5017
-13.438
-13.3496
-13.2388
-13.108
-12.9592
-12.7946
-12.616
-12.4253
-12.2242
-12.0144
-11.7974
-11.5746
-11.3475
-11.1173
-10.8852
-10.6524
-10.4199
-10.1887
-9.95973
-9.73385
-9.51186
-9.2945
-9.08247
-8.87638
-8.67685
-8.4844
-8.29955
-8.12274
-7.9544
-7.79491
-7.64463
-7.50387
-7.37291
-7.25202
-7.14143
-7.04134
-6.95193
-6.87337
-6.80578
-6.74929
-6.70399
-6.66994
-6.64721
-6.63584
143.086
135.645
128.352
121.221
114.26
107.48
100.888
94.4898
88.2924
82.2978
76.51
70.9318
65.5643
60.4071
55.4599
50.7219
46.1918
41.8676
37.7467
33.8257
30.101
26.5686
23.2243
20.0635
17.0815
14.2735
11.6343
9.15872
6.84141
4.67695
2.65985
0.784606
-0.954318
-2.56244
-4.04526
-5.40823
-6.65676
-7.79616
-8.83168
-9.76849
-10.6116
-11.3661
-12.0366
-12.628
-13.1447
-13.5913
-13.9721
-14.2912
-14.5527
-14.7604
-14.9182
-15.0296
-15.0981
-15.1271
-15.1196
-15.0789
-15.0078
-14.909
-14.7854
-14.6392
-14.4731
-14.2892
-14.0898
-13.8768
-13.6522
-13.4179
-13.1755
-12.9267
-12.6731
-12.416
-12.1568
-11.8968
-11.6371
-11.3789
-11.1232
-10.871
-10.623
-10.3803
-10.1435
-9.91331
-9.69047
-9.47554
-9.26909
-9.07163
-8.88362
-8.70551
-8.53767
-8.38046
-8.23421
-8.09919
-7.97568
-7.8639
-7.76405
-7.67631
-7.60083
-7.53774
-7.48714
-7.44912
-7.42373
-7.41103
158.017
149.8
141.746
133.87
126.183
118.696
111.416
104.35
97.506
90.8859
84.4941
78.3338
72.4061
66.7107
61.2473
56.0148
51.012
46.2366
41.6857
37.3555
33.2421
29.3411
25.6478
22.1572
18.864
15.763
12.8484
10.1145
7.55533
5.165
2.93741
0.86648
-1.05391
-2.82984
-4.4674
-5.9726
-7.35141
-8.60971
-9.7533
-10.7879
-11.719
-12.5521
-13.2927
-13.9457
-14.5164
-15.0096
-15.4301
-15.7825
-16.0713
-16.3007
-16.4749
-16.598
-16.6736
-16.7056
-16.6974
-16.6524
-16.5739
-16.4648
-16.3282
-16.1669
-15.9834
-15.7803
-15.5601
-15.3249
-15.0769
-14.8181
-14.5504
-14.2757
-13.9956
-13.7116
-13.4254
-13.1383
-12.8515
-12.5664
-12.284
-12.0054
-11.7316
-11.4635
-11.202
-10.9478
-10.7017
-10.4643
-10.2363
-10.0183
-9.81066
-9.61395
-9.4286
-9.25499
-9.09347
-8.94437
-8.80797
-8.68452
-8.57425
-8.47736
-8.394
-8.32432
-8.26844
-8.22645
-8.19842
-8.1844
172.91
163.918
155.105
146.487
138.076
129.883
121.916
114.185
106.695
99.4514
92.4573
85.7164
79.23
72.9979
67.0195
61.294
55.8197
50.5943
45.6144
40.8761
36.3751
32.1064
28.065
24.2454
20.6419
17.2486
14.0593
11.0677
8.26738
5.65177
3.21425
0.948139
-1.15323
-3.09654
-4.88843
-6.53549
-8.04425
-9.42114
-10.6725
-11.8046
-12.8235
-13.7351
-14.5454
-15.2601
-15.8845
-16.4242
-16.8843
-17.27
-17.5859
-17.837
-18.0276
-18.1623
-18.2451
-18.28
-18.2711
-18.2219
-18.1359
-18.0166
-17.8671
-17.6905
-17.4898
-17.2676
-17.0266
-16.7692
-16.4978
-16.2146
-15.9217
-15.6211
-15.3146
-15.0039
-14.6907
-14.3765
-14.0627
-13.7507
-13.4417
-13.1368
-12.8372
-12.5439
-12.2577
-11.9796
-11.7103
-11.4506
-11.2011
-10.9625
-10.7353
-10.52
-10.3172
-10.1272
-9.95049
-9.78734
-9.63808
-9.503
-9.38234
-9.27631
-9.1851
-9.10885
-9.04771
-9.00176
-8.97109
-8.95574
187.76
177.995
168.426
159.068
149.934
141.037
132.386
123.991
115.859
107.992
100.398
93.0779
86.0344
79.2671
72.7753
66.5581
60.6137
54.9394
49.5319
44.3867
39.499
34.8638
30.4753
26.3276
22.4146
18.7299
15.2667
12.0182
8.97739
6.13715
3.49029
1.02956
-1.25228
-3.36248
-5.30826
-7.09678
-8.73511
-10.2302
-11.5891
-12.8184
-13.9248
-14.9147
-15.7946
-16.5706
-17.2487
-17.8347
-18.3344
-18.7531
-19.0962
-19.3688
-19.5759
-19.7221
-19.812
-19.85
-19.8402
-19.7868
-19.6934
-19.5639
-19.4016
-19.2098
-18.9918
-18.7505
-18.4888
-18.2093
-17.9147
-17.6072
-17.2891
-16.9627
-16.6298
-16.2925
-15.9524
-15.6112
-15.2704
-14.9316
-14.5961
-14.265
-13.9397
-13.6212
-13.3104
-13.0084
-12.716
-12.434
-12.163
-11.9039
-11.6572
-11.4235
-11.2033
-10.997
-10.8051
-10.6279
-10.4658
-10.3191
-10.1881
-10.073
-9.97393
-9.89114
-9.82474
-9.77485
-9.74154
-9.72488
202.563
192.029
181.705
171.609
161.755
152.157
142.824
133.767
124.993
116.507
108.313
100.416
92.8176
85.5167
78.5131
71.8057
65.3926
59.271
53.4371
47.8862
42.6133
37.6125
32.878
28.4033
24.1819
20.2066
16.4704
12.9657
9.68519
6.62102
3.76547
1.11073
-1.35101
-3.62759
-5.72678
-7.65631
-9.42381
-11.0368
-12.5028
-13.829
-15.0226
-16.0906
-17.0399
-17.8771
-18.6086
-19.2409
-19.7799
-20.2317
-20.6018
-20.8959
-21.1193
-21.277
-21.374
-21.415
-21.4045
-21.3468
-21.2461
-21.1063
-20.9312
-20.7244
-20.4892
-20.2289
-19.9465
-19.645
-19.3271
-18.9954
-18.6522
-18.3001
-17.941
-17.577
-17.2101
-16.842
-16.4744
-16.1089
-15.7469
-15.3897
-15.0387
-14.6951
-14.3598
-14.034
-13.7185
-13.4143
-13.122
-12.8425
-12.5763
-12.3242
-12.0866
-11.864
-11.657
-11.4658
-11.291
-11.1327
-10.9914
-10.8672
-10.7603
-10.671
-10.5993
-10.5455
-10.5096
-10.4916
217.317
206.015
194.94
184.108
173.536
163.239
153.227
143.51
134.097
124.993
116.202
107.73
99.5778
91.7452
84.2315
77.0356
70.1555
63.588
57.3292
51.374
45.717
40.352
35.2726
30.4721
25.9431
21.6783
17.67
13.9101
10.3906
7.10325
4.03972
1.19163
-1.44942
-3.89181
-6.14389
-8.21395
-10.1102
-11.8407
-13.4134
-14.8362
-16.1168
-17.2626
-18.281
-19.1791
-19.964
-20.6423
-21.2206
-21.7052
-22.1024
-22.4179
-22.6575
-22.8267
-22.9307
-22.9747
-22.9635
-22.9016
-22.7936
-22.6436
-22.4557
-22.2338
-21.9815
-21.7022
-21.3993
-21.0758
-20.7348
-20.3789
-20.0108
-19.6329
-19.2477
-18.8572
-18.4636
-18.0687
-17.6743
-17.2821
-16.8938
-16.5106
-16.1341
-15.7654
-15.4057
-15.0562
-14.7177
-14.3913
-14.0777
-13.7778
-13.4923
-13.2218
-12.9669
-12.7281
-12.506
-12.3009
-12.1133
-11.9436
-11.7919
-11.6587
-11.544
-11.4482
-11.3713
-11.3136
-11.275
-11.2558
232.016
219.951
208.126
196.562
185.275
174.281
163.591
153.217
143.168
133.447
124.062
115.017
106.314
97.9511
89.9291
82.2465
74.901
67.8893
61.2071
54.8491
48.8094
43.0815
37.6586
32.5333
27.698
23.1447
18.8652
14.851
11.0934
7.58373
4.31297
1.27223
-1.54746
-4.15506
-6.55948
-8.76956
-10.7941
-12.6416
-14.3207
-15.8398
-17.207
-18.4303
-19.5176
-20.4765
-21.3144
-22.0386
-22.656
-23.1734
-23.5974
-23.9343
-24.1901
-24.3708
-24.4818
-24.5288
-24.5168
-24.4507
-24.3354
-24.1753
-23.9747
-23.7378
-23.4684
-23.1702
-22.8468
-22.5015
-22.1373
-21.7573
-21.3643
-20.9609
-20.5496
-20.1328
-19.7125
-19.2909
-18.8698
-18.4511
-18.0365
-17.6274
-17.2254
-16.8318
-16.4478
-16.0746
-15.7133
-15.3648
-15.03
-14.7098
-14.405
-14.1161
-13.844
-13.5891
-13.3519
-13.133
-12.9327
-12.7515
-12.5895
-12.4473
-12.3249
-12.2226
-12.1405
-12.0789
-12.0377
-12.0171
246.659
233.832
221.261
208.967
196.968
185.28
173.915
162.887
152.203
141.869
131.892
122.276
113.023
104.133
95.6046
87.4371
79.628
72.1739
65.0699
58.3107
51.8898
45.8004
40.0352
34.5865
29.446
24.6054
20.0558
15.7882
11.7935
8.06233
4.58516
1.35252
-1.64513
-4.41729
-6.97346
-9.32302
-11.4753
-13.4394
-15.2245
-16.8394
-18.2929
-19.5934
-20.7493
-21.7687
-22.6596
-23.4294
-24.0858
-24.6359
-25.0867
-25.4448
-25.7168
-25.9088
-26.0269
-26.0768
-26.064
-25.9938
-25.8712
-25.701
-25.4878
-25.2359
-24.9495
-24.6325
-24.2887
-23.9215
-23.5344
-23.1305
-22.7127
-22.2838
-21.8465
-21.4033
-20.9565
-20.5083
-20.0607
-19.6156
-19.1748
-18.7399
-18.3125
-17.8941
-17.4858
-17.0891
-16.7049
-16.3344
-15.9785
-15.6381
-15.3141
-15.007
-14.7177
-14.4467
-14.1946
-13.9618
-13.7489
-13.5562
-13.3841
-13.2328
-13.1027
-12.9939
-12.9067
-12.8412
-12.7974
-12.7755
261.241
247.655
234.341
221.32
208.612
196.233
184.197
172.516
161.201
150.256
139.689
129.505
119.705
110.289
101.256
92.6061
84.3354
76.4406
68.9167
61.7578
54.9573
48.508
42.402
36.6311
31.1867
26.0599
21.2414
16.7216
12.4907
8.53895
4.85622
1.43247
-1.74239
-4.67843
-7.38571
-9.87417
-12.1537
-14.2339
-16.1246
-17.8349
-19.3743
-20.7517
-21.976
-23.0557
-23.9991
-24.8145
-25.5097
-26.0923
-26.5697
-26.949
-27.237
-27.4404
-27.5655
-27.6184
-27.6049
-27.5305
-27.4006
-27.2204
-26.9945
-26.7278
-26.4244
-26.0887
-25.7246
-25.3357
-24.9257
-24.4979
-24.0554
-23.6012
-23.138
-22.6686
-22.1954
-21.7207
-21.2466
-20.7752
-20.3083
-19.8478
-19.3951
-18.9519
-18.5196
-18.0993
-17.6925
-17.3001
-16.9232
-16.5626
-16.2194
-15.8942
-15.5877
-15.3007
-15.0337
-14.7872
-14.5617
-14.3576
-14.1753
-14.0151
-13.8773
-13.7621
-13.6697
-13.6003
-13.554
-13.5308
275.758
261.418
247.363
233.619
220.204
207.138
194.433
182.103
170.159
158.606
147.452
136.701
126.357
116.418
106.883
97.7523
89.022
80.6885
72.7464
65.1898
58.0114
51.2036
44.7583
38.6667
32.9198
27.5081
22.4218
17.6508
13.1848
9.01346
5.12608
1.51207
-1.83921
-4.93842
-7.79614
-10.4229
-12.8291
-15.0249
-17.0206
-18.8261
-20.451
-21.9049
-23.1972
-24.3369
-25.3328
-26.1935
-26.9273
-27.5423
-28.0462
-28.4466
-28.7506
-28.9653
-29.0974
-29.1532
-29.1389
-29.0604
-28.9233
-28.733
-28.4946
-28.213
-27.8929
-27.5385
-27.1541
-26.7436
-26.3108
-25.8592
-25.3921
-24.9127
-24.4238
-23.9284
-23.4288
-22.9277
-22.4273
-21.9297
-21.4369
-20.9507
-20.4729
-20.0051
-19.5487
-19.1051
-18.6757
-18.2615
-17.8636
-17.483
-17.1207
-16.7774
-16.454
-16.151
-15.8691
-15.6089
-15.3709
-15.1555
-14.963
-14.7939
-14.6485
-14.5269
-14.4294
-14.3561
-14.3072
-14.2827
290.207
275.115
260.325
245.86
231.743
217.991
204.621
191.645
179.075
166.917
155.178
143.864
132.978
122.518
112.484
102.874
93.6867
84.9164
76.5583
68.6056
61.0511
53.8866
47.1035
40.6928
34.6447
28.9495
23.5967
18.5757
13.8757
9.48574
5.39467
1.5913
-1.93559
-5.19719
-8.20465
-10.969
-13.5013
-15.8122
-17.9125
-19.8125
-21.5226
-23.0527
-24.4127
-25.6121
-26.6602
-27.566
-28.3382
-28.9854
-29.5158
-29.9371
-30.2571
-30.4831
-30.622
-30.6807
-30.6657
-30.5831
-30.4388
-30.2386
-29.9877
-29.6913
-29.3544
-28.9815
-28.5769
-28.145
-27.6895
-27.2142
-26.7226
-26.2181
-25.7036
-25.1822
-24.6565
-24.1291
-23.6025
-23.0788
-22.5601
-22.0485
-21.5457
-21.0533
-20.573
-20.1062
-19.6542
-19.2183
-18.7996
-18.3991
-18.0178
-17.6565
-17.3161
-16.9973
-16.7006
-16.4268
-16.1763
-15.9496
-15.7471
-15.5691
-15.416
-15.2881
-15.1854
-15.1083
-15.0568
-15.0311
304.585
288.745
273.222
258.041
243.224
228.791
214.758
201.139
187.947
175.186
162.866
150.992
139.566
128.588
118.057
107.971
98.3282
89.1234
80.3512
72.0045
64.0757
56.5563
49.4371
42.7088
36.3611
30.3837
24.7657
19.496
14.5631
9.95568
5.66193
1.67013
-2.03149
-5.45468
-8.61113
-11.5125
-14.1702
-16.5956
-18.7999
-20.7941
-22.5889
-24.1948
-25.6222
-26.881
-27.981
-28.9317
-29.7422
-30.4215
-30.9781
-31.4203
-31.7561
-31.9933
-32.1391
-32.2007
-32.185
-32.0982
-31.9468
-31.7367
-31.4734
-31.1623
-30.8087
-30.4173
-29.9927
-29.5393
-29.0613
-28.5625
-28.0465
-27.517
-26.977
-26.4298
-25.878
-25.3245
-24.7718
-24.2222
-23.6778
-23.1408
-22.6131
-22.0964
-21.5923
-21.1023
-20.628
-20.1705
-19.731
-19.3106
-18.9104
-18.5313
-18.174
-17.8394
-17.528
-17.2406
-16.9777
-16.7398
-16.5272
-16.3405
-16.1798
-16.0455
-15.9378
-15.8568
-15.8028
-15.7758
318.888
302.304
286.052
270.158
254.645
239.535
224.843
210.584
196.772
183.412
170.514
158.082
146.119
134.626
123.6
113.041
102.945
93.3085
84.1243
75.3857
67.0845
59.212
51.7586
44.7143
38.0685
31.8104
25.9286
20.4114
15.247
10.4232
5.92779
1.74855
-2.12689
-5.71082
-9.01549
-12.0531
-14.8356
-17.3749
-19.6827
-21.7705
-23.6496
-25.3309
-26.8253
-28.1432
-29.2949
-30.2902
-31.1388
-31.85
-32.4327
-32.8957
-33.2473
-33.4956
-33.6483
-33.7128
-33.6963
-33.6055
-33.447
-33.2269
-32.9513
-32.6256
-32.2554
-31.8456
-31.4011
-30.9264
-30.4259
-29.9037
-29.3635
-28.8091
-28.2438
-27.6708
-27.0932
-26.5137
-25.935
-25.3596
-24.7897
-24.2275
-23.6749
-23.1339
-22.6062
-22.0932
-21.5966
-21.1176
-20.6575
-20.2174
-19.7984
-19.4015
-19.0274
-18.6771
-18.3511
-18.0502
-17.775
-17.5258
-17.3033
-17.1078
-16.9395
-16.7989
-16.6862
-16.6014
-16.5449
-16.5166
333.111
315.788
298.811
282.208
266.003
250.219
234.872
219.977
205.549
191.593
178.119
165.133
152.637
140.631
129.113
118.083
107.537
97.4704
87.8766
78.7482
70.0768
61.8531
54.0672
46.7087
39.7666
33.2293
27.0851
21.3219
15.9271
10.8881
6.19219
1.82654
-2.22176
-5.96555
-9.41763
-12.5907
-15.4973
-18.1499
-20.5606
-22.7416
-24.7045
-26.4608
-28.0218
-29.3986
-30.6016
-31.6413
-32.5277
-33.2706
-33.8794
-34.363
-34.7303
-34.9897
-35.1492
-35.2166
-35.1993
-35.1045
-34.9389
-34.709
-34.421
-34.0809
-33.6941
-33.266
-32.8017
-32.3059
-31.7831
-31.2375
-30.6733
-30.0941
-29.5036
-28.9051
-28.3017
-27.6963
-27.0918
-26.4907
-25.8954
-25.3081
-24.7309
-24.1658
-23.6145
-23.0787
-22.5599
-22.0595
-21.5789
-21.1192
-20.6815
-20.2669
-19.8761
-19.5101
-19.1697
-18.8553
-18.5678
-18.3076
-18.0751
-17.8708
-17.6951
-17.5482
-17.4304
-17.3419
-17.2828
-17.2533
347.253
329.194
311.496
294.189
277.296
260.842
244.843
229.316
214.275
199.727
185.681
172.143
159.117
146.601
134.595
123.096
112.103
101.608
91.6073
82.0913
73.0518
64.479
56.3625
48.6916
41.4548
34.64
28.235
22.227
16.6032
11.3503
6.45507
1.90407
-2.31609
-6.21881
-9.81744
-13.1252
-16.1552
-18.9204
-21.4335
-23.707
-25.7532
-27.5841
-29.2115
-30.6466
-31.9007
-32.9846
-33.9087
-34.6831
-35.3176
-35.8218
-36.2047
-36.4751
-36.6413
-36.7116
-36.6936
-36.5947
-36.4221
-36.1825
-35.8823
-35.5277
-35.1245
-34.6783
-34.1942
-33.6774
-33.1323
-32.5636
-31.9755
-31.3717
-30.7561
-30.1322
-29.5032
-28.8721
-28.242
-27.6153
-26.9948
-26.3825
-25.7809
-25.1917
-24.617
-24.0585
-23.5176
-22.996
-22.495
-22.0158
-21.5595
-21.1273
-20.7199
-20.3384
-19.9835
-19.6558
-19.3561
-19.0848
-18.8425
-18.6295
-18.4463
-18.2932
-18.1704
-18.0781
-18.0165
-17.9857
361.309
342.519
324.105
306.097
288.52
271.4
254.753
238.598
222.948
207.812
193.197
179.111
165.557
152.535
140.043
128.079
116.64
105.721
95.3153
85.4142
76.0087
67.0889
58.644
50.6625
43.1327
36.0421
29.3779
23.1267
17.2753
11.8097
6.71635
1.98114
-2.40984
-6.47054
-10.2148
-13.6565
-16.8091
-19.6863
-22.3011
-24.6666
-26.7957
-28.7007
-30.3939
-31.8871
-33.192
-34.3197
-35.2812
-36.087
-36.7472
-37.2718
-37.6702
-37.9515
-38.1245
-38.1976
-38.1789
-38.076
-37.8964
-37.6471
-37.3348
-36.9658
-36.5463
-36.082
-35.5783
-35.0405
-34.4735
-33.8817
-33.2697
-32.6416
-32.001
-31.3519
-30.6974
-30.0408
-29.3851
-28.7331
-28.0874
-27.4504
-26.8244
-26.2114
-25.6135
-25.0323
-24.4696
-23.9269
-23.4056
-22.9069
-22.4322
-21.9824
-21.5586
-21.1617
-20.7923
-20.4514
-20.1395
-19.8573
-19.6051
-19.3836
-19.193
-19.0337
-18.9059
-18.8099
-18.7458
-18.7137
375.276
355.76
336.634
317.929
299.673
281.891
264.601
247.822
231.567
215.845
200.665
186.035
171.957
158.431
145.456
133.03
121.149
109.808
98.9998
88.716
78.9469
69.6823
60.9109
52.621
44.8001
37.4354
30.5135
24.0207
17.943
12.2663
6.97597
2.05772
-2.503
-6.72067
-10.6097
-14.1844
-17.4589
-20.4473
-23.1632
-25.6202
-27.8315
-29.8101
-31.5688
-33.1198
-34.4751
-35.6464
-36.645
-37.4819
-38.1677
-38.7126
-39.1264
-39.4186
-39.5982
-39.6742
-39.6547
-39.5479
-39.3613
-39.1024
-38.778
-38.3948
-37.959
-37.4768
-36.9537
-36.3951
-35.8061
-35.1915
-34.5558
-33.9033
-33.2381
-32.5638
-31.884
-31.2021
-30.521
-29.8439
-29.1732
-28.5116
-27.8613
-27.2247
-26.6036
-25.9999
-25.4155
-24.8518
-24.3103
-23.7924
-23.2993
-22.8322
-22.392
-21.9797
-21.5961
-21.242
-20.9181
-20.6249
-20.363
-20.1329
-19.9349
-19.7694
-19.6367
-19.537
-19.4704
-19.4371
389.15
368.913
349.079
329.683
310.752
292.313
274.384
256.984
240.128
223.825
208.084
192.913
178.315
164.289
150.834
137.948
125.628
113.868
102.66
91.9959
81.8657
72.2585
63.1628
54.5664
46.4564
38.8194
31.6416
24.9088
18.6064
12.7197
7.23387
2.13379
-2.59554
-6.96914
-11.0019
-14.7088
-18.1044
-21.2032
-24.0195
-26.5673
-28.8604
-30.9122
-32.7359
-34.3442
-35.7496
-36.9643
-37.9998
-38.8677
-39.5788
-40.1438
-40.5729
-40.8759
-41.0622
-41.141
-41.1208
-41.01
-40.8166
-40.548
-40.2116
-39.8142
-39.3624
-38.8623
-38.3199
-37.7406
-37.1298
-36.4925
-35.8334
-35.1568
-34.4669
-33.7677
-33.0628
-32.3556
-31.6494
-30.9472
-30.2517
-29.5657
-28.8914
-28.2312
-27.5871
-26.9612
-26.3551
-25.7706
-25.2091
-24.6721
-24.1607
-23.6763
-23.2198
-22.7923
-22.3945
-22.0273
-21.6914
-21.3874
-21.1158
-20.8772
-20.6719
-20.5003
-20.3627
-20.2593
-20.1903
-20.1557
402.928
381.974
361.439
341.356
321.755
302.662
284.098
266.082
248.63
231.75
215.452
199.743
184.628
170.105
156.174
142.832
130.076
117.899
106.295
95.2531
84.7642
74.8169
65.3991
56.4983
48.1012
40.1938
32.7619
25.7907
19.2652
13.1701
7.48999
2.20933
-2.68744
-7.21589
-11.3915
-15.2296
-18.7454
-21.9539
-24.87
-27.508
-29.8823
-32.0067
-33.8949
-35.5602
-37.0154
-38.273
-39.3452
-40.2438
-40.9801
-41.5651
-42.0094
-42.3231
-42.5161
-42.5976
-42.5767
-42.462
-42.2617
-41.9837
-41.6354
-41.2239
-40.7561
-40.2383
-39.6766
-39.0769
-38.4445
-37.7846
-37.1021
-36.4015
-35.6873
-34.9633
-34.2334
-33.5012
-32.77
-32.0429
-31.3228
-30.6125
-29.9143
-29.2307
-28.5639
-27.9158
-27.2882
-26.683
-26.1016
-25.5456
-25.0162
-24.5146
-24.042
-23.5993
-23.1874
-22.8072
-22.4594
-22.1446
-21.8635
-21.6164
-21.4038
-21.2262
-21.0837
-20.9766
-20.9051
-20.8694
416.607
394.942
373.709
352.944
332.678
312.937
293.743
275.115
257.07
239.617
222.766
206.524
190.896
175.88
161.476
147.681
134.492
121.902
109.903
98.4868
87.6418
77.3568
67.6193
58.4164
49.7341
41.5583
33.8741
26.6662
19.9192
13.6172
7.74426
2.28433
-2.77868
-7.46086
-11.7782
-15.7466
-19.3818
-22.6992
-25.7143
-28.4418
-30.8967
-33.0933
-35.0456
-36.7674
-38.272
-39.5723
-40.6809
-41.61
-42.3713
-42.9762
-43.4356
-43.7599
-43.9594
-44.0437
-44.0221
-43.9035
-43.6964
-43.4089
-43.0488
-42.6234
-42.1397
-41.6043
-41.0236
-40.4034
-39.7496
-39.0673
-38.3616
-37.6373
-36.8988
-36.1502
-35.3956
-34.6385
-33.8825
-33.1307
-32.3862
-31.6517
-30.9298
-30.2231
-29.5336
-28.8635
-28.2146
-27.5888
-26.9877
-26.4128
-25.8654
-25.3468
-24.8581
-24.4004
-23.9746
-23.5815
-23.2219
-22.8964
-22.6057
-22.3502
-22.1305
-21.9468
-21.7994
-21.6887
-21.6148
-21.5779
430.183
407.812
385.887
364.446
343.519
323.135
303.315
284.081
265.448
247.426
230.025
213.254
197.116
181.612
166.738
152.494
138.875
125.874
113.485
101.696
90.4978
79.8776
69.8228
60.32
51.3548
42.9126
34.9779
27.5352
20.5683
14.0609
7.99661
2.35877
-2.86923
-7.70399
-12.162
-16.2598
-20.0134
-23.4389
-26.5522
-29.3687
-31.9036
-34.1717
-36.1877
-37.9656
-39.5192
-40.8619
-42.0066
-42.966
-43.7521
-44.3767
-44.851
-45.1859
-45.3919
-45.479
-45.4567
-45.3342
-45.1204
-44.8235
-44.4516
-44.0123
-43.5129
-42.96
-42.3604
-41.7201
-41.0449
-40.3404
-39.6117
-38.8638
-38.1012
-37.3283
-36.549
-35.7673
-34.9866
-34.2103
-33.4416
-32.6831
-31.9378
-31.2079
-30.496
-29.804
-29.1341
-28.4879
-27.8672
-27.2735
-26.7083
-26.1728
-25.6682
-25.1956
-24.7559
-24.3499
-23.9786
-23.6425
-23.3423
-23.0786
-22.8516
-22.6619
-22.5098
-22.3955
-22.3192
-22.281
443.653
420.581
397.97
375.857
354.275
333.253
312.813
292.976
273.759
255.173
237.228
219.932
203.289
187.298
171.959
157.269
143.223
129.816
117.038
104.88
93.3314
82.3787
72.0091
62.2087
52.9628
44.2562
36.0731
28.3974
21.2123
14.5012
8.247
2.43262
-2.95908
-7.94522
-12.5429
-16.7689
-20.64
-24.1729
-27.3836
-30.2883
-32.9025
-35.2417
-37.3208
-39.1543
-40.7566
-42.1413
-43.3219
-44.3113
-45.1221
-45.7662
-46.2554
-46.6008
-46.8132
-46.903
-46.88
-46.7537
-46.5332
-46.227
-45.8435
-45.3905
-44.8753
-44.3052
-43.6868
-43.0264
-42.3301
-41.6035
-40.852
-40.0807
-39.2942
-38.4971
-37.6934
-36.8872
-36.0821
-35.2815
-34.4887
-33.7065
-32.9378
-32.1851
-31.4509
-30.7372
-30.0463
-29.3799
-28.7398
-28.1275
-27.5446
-26.9923
-26.4719
-25.9845
-25.531
-25.1124
-24.7294
-24.3828
-24.0732
-23.8012
-23.5672
-23.3715
-23.2146
-23.0968
-23.0181
-22.9787
457.013
433.247
409.955
387.176
364.944
343.289
322.233
301.799
282.003
262.857
244.372
226.555
209.411
192.938
177.137
162.005
147.536
133.725
120.563
108.039
96.1421
84.8595
74.1776
64.0821
54.5578
45.589
37.1595
29.2525
21.8511
14.9379
8.49535
2.50587
-3.04819
-8.18449
-12.9206
-17.2739
-21.2616
-24.9008
-28.2083
-31.2004
-33.8934
-36.303
-38.4447
-40.3334
-41.9839
-43.4104
-44.6265
-45.6457
-46.4809
-47.1444
-47.6483
-48.0042
-48.223
-48.3154
-48.2918
-48.1617
-47.9345
-47.6191
-47.2241
-46.7574
-46.2267
-45.6394
-45.0024
-44.3221
-43.6049
-42.8564
-42.0823
-41.2877
-40.4775
-39.6564
-38.8286
-37.9981
-37.1687
-36.344
-35.5273
-34.7216
-33.9297
-33.1544
-32.398
-31.6629
-30.9511
-30.2647
-29.6053
-28.9746
-28.3741
-27.8052
-27.2691
-26.767
-26.2999
-25.8686
-25.4741
-25.1171
-24.7982
-24.518
-24.2769
-24.0754
-23.9137
-23.7923
-23.7112
-23.6707
470.261
445.805
421.838
398.399
375.523
353.24
331.574
310.547
290.178
270.477
251.455
233.122
215.481
198.531
182.272
166.701
151.813
137.601
124.058
111.171
98.929
87.3194
76.3278
65.9396
56.1392
46.9105
38.2366
30.1005
22.4845
15.3709
8.7416
2.57851
-3.13656
-8.42174
-13.2951
-17.7746
-21.8779
-25.6226
-29.0259
-32.1048
-34.8759
-37.3553
-39.5591
-41.5026
-43.201
-44.6687
-45.9201
-46.9689
-47.8283
-48.511
-49.0295
-49.3957
-49.6208
-49.716
-49.6916
-49.5577
-49.324
-48.9995
-48.593
-48.1127
-47.5667
-46.9624
-46.3069
-45.6069
-44.8688
-44.0987
-43.3021
-42.4845
-41.6509
-40.8059
-39.9541
-39.0995
-38.2461
-37.3975
-36.5571
-35.728
-34.9132
-34.1154
-33.3371
-32.5807
-31.8483
-31.1419
-30.4634
-29.8145
-29.1966
-28.6112
-28.0596
-27.5429
-27.0622
-26.6185
-26.2126
-25.8452
-25.517
-25.2287
-24.9806
-24.7732
-24.6069
-24.482
-24.3986
-24.3568
483.393
458.254
433.618
409.524
386.009
363.104
340.833
319.219
298.281
278.03
258.477
239.632
221.498
204.075
187.362
171.356
156.052
141.444
127.522
114.275
101.691
89.7577
78.4592
67.7809
57.7069
48.2204
39.3043
30.941
23.1124
15.8001
8.9857
2.65051
-3.22415
-8.65692
-13.6664
-18.2709
-22.4889
-26.3381
-29.8365
-33.0013
-35.8497
-38.3984
-40.6637
-42.6615
-44.4073
-45.9161
-47.2024
-48.2805
-49.1638
-49.8656
-50.3986
-50.775
-51.0065
-51.1043
-51.0792
-50.9416
-50.7013
-50.3677
-49.9499
-49.4562
-48.895
-48.2738
-47.6
-46.8804
-46.1218
-45.3301
-44.5113
-43.6709
-42.8139
-41.9454
-41.0698
-40.1914
-39.3141
-38.4418
-37.5779
-36.7257
-35.8881
-35.0681
-34.268
-33.4905
-32.7377
-32.0116