/*--------------------------------*- C++ -*----------------------------------*\
| =========                 |                                                 |
| \\      /  F ield         | OpenFOAM: The Open Source CFD Toolbox           |
|  \\    /   O peration     | Version:  2406                                  |
|   \\  /    A nd           | Website:  www.openfoam.com                      |
|    \\/     M anipulation  |                                                 |
\*---------------------------------------------------------------------------*/
FoamFile
{
    version     2.0;
    format      ascii;
    arch        "LSB;label=32;scalar=64";
    class       volVectorField;
    location    "90";
    object      flux;
}
// * * * * * * * * * * * * * * * * * * * * * * * * * * * * * * * * * * * * * //

dimensions      [0 1 -1 1 0 0 0];

internalField   nonuniform List<vector> 
20000
(
(-0.000842623 0.117783 0)
(-0.000892516 0.116046 0)
(-0.000937106 0.114214 0)
(-0.000976687 0.112298 0)
(-0.00101168 0.110307 0)
(-0.00104236 0.108251 0)
(-0.00106878 0.106138 0)
(-0.00109094 0.103976 0)
(-0.00110964 0.101774 0)
(-0.00112507 0.0995379 0)
(-0.00113694 0.0972744 0)
(-0.00114559 0.0949906 0)
(-0.00115152 0.0926922 0)
(-0.00115487 0.0903847 0)
(-0.00115567 0.088073 0)
(-0.00115407 0.0857623 0)
(-0.00115025 0.0834571 0)
(-0.00114446 0.0811616 0)
(-0.00113686 0.0788795 0)
(-0.00112758 0.0766144 0)
(-0.00111673 0.0743695 0)
(-0.00110445 0.0721478 0)
(-0.00109085 0.069952 0)
(-0.00107607 0.0677846 0)
(-0.00106021 0.065648 0)
(-0.00104341 0.063544 0)
(-0.00102576 0.0614746 0)
(-0.00100737 0.0594412 0)
(-0.000988324 0.0574454 0)
(-0.000968713 0.0554882 0)
(-0.000948616 0.0535708 0)
(-0.00092811 0.051694 0)
(-0.000907268 0.0498585 0)
(-0.000886157 0.0480651 0)
(-0.000864842 0.0463141 0)
(-0.000843383 0.044606 0)
(-0.000821837 0.0429408 0)
(-0.000800256 0.0413188 0)
(-0.000778688 0.03974 0)
(-0.000757179 0.0382043 0)
(-0.00073577 0.0367115 0)
(-0.0007145 0.0352614 0)
(-0.000693405 0.0338536 0)
(-0.000672517 0.0324879 0)
(-0.000651865 0.0311637 0)
(-0.000631478 0.0298806 0)
(-0.00061138 0.028638 0)
(-0.000591592 0.0274352 0)
(-0.000572135 0.0262718 0)
(-0.000553028 0.0251468 0)
(-0.000534284 0.0240598 0)
(-0.00051592 0.0230098 0)
(-0.000497947 0.0219962 0)
(-0.000480375 0.0210182 0)
(-0.000463214 0.0200748 0)
(-0.000446471 0.0191654 0)
(-0.000430152 0.0182891 0)
(-0.000414263 0.0174449 0)
(-0.000398807 0.0166321 0)
(-0.000383786 0.0158498 0)
(-0.000369203 0.0150971 0)
(-0.000355058 0.0143731 0)
(-0.000341352 0.0136769 0)
(-0.000328083 0.0130078 0)
(-0.000315249 0.0123647 0)
(-0.000302849 0.0117468 0)
(-0.00029088 0.0111534 0)
(-0.000279339 0.0105834 0)
(-0.000268222 0.0100361 0)
(-0.000257525 0.00951056 0)
(-0.000247243 0.00900603 0)
(-0.000237372 0.00852165 0)
(-0.000227907 0.0080566 0)
(-0.000218843 0.00761008 0)
(-0.000210174 0.00718129 0)
(-0.000201895 0.00676943 0)
(-0.000194001 0.00637375 0)
(-0.000186487 0.00599348 0)
(-0.000179345 0.00562785 0)
(-0.000172572 0.00527614 0)
(-0.000166162 0.00493761 0)
(-0.00016011 0.00461153 0)
(-0.000154409 0.00429721 0)
(-0.000149056 0.00399393 0)
(-0.000144045 0.00370102 0)
(-0.000139372 0.00341779 0)
(-0.000135032 0.00314357 0)
(-0.000131021 0.00287769 0)
(-0.000127334 0.00261952 0)
(-0.000123969 0.00236839 0)
(-0.000120921 0.00212367 0)
(-0.000118188 0.00188473 0)
(-0.000115765 0.00165095 0)
(-0.000113652 0.0014217 0)
(-0.000111845 0.00119637 0)
(-0.000110342 0.000974348 0)
(-0.000109141 0.000755029 0)
(-0.000108242 0.00053781 0)
(-0.000107643 0.000322087 0)
(-0.000107344 0.000107263 0)
(-0.00252763 0.117754 0)
(-0.00267729 0.116017 0)
(-0.0028111 0.114186 0)
(-0.00292995 0.11227 0)
(-0.00303491 0.11028 0)
(-0.00312655 0.108224 0)
(-0.0032058 0.106112 0)
(-0.00327282 0.103951 0)
(-0.00332886 0.101749 0)
(-0.00337476 0.0995132 0)
(-0.00341036 0.0972505 0)
(-0.00343656 0.0949673 0)
(-0.00345439 0.0926694 0)
(-0.00346435 0.0903623 0)
(-0.00346669 0.0880512 0)
(-0.00346186 0.0857411 0)
(-0.00345046 0.0834366 0)
(-0.00343311 0.0811416 0)
(-0.00341031 0.0788601 0)
(-0.00338247 0.0765955 0)
(-0.00334993 0.0743511 0)
(-0.00331308 0.0721299 0)
(-0.00327228 0.0699347 0)
(-0.00322792 0.0677679 0)
(-0.00318037 0.0656318 0)
(-0.00312996 0.0635284 0)
(-0.00307703 0.0614594 0)
(-0.00302186 0.0594266 0)
(-0.00296473 0.0574312 0)
(-0.0029059 0.0554745 0)
(-0.00284562 0.0535575 0)
(-0.0027841 0.0516812 0)
(-0.00272158 0.0498462 0)
(-0.00265825 0.0480533 0)
(-0.00259431 0.0463027 0)
(-0.00252994 0.044595 0)
(-0.00246531 0.0429302 0)
(-0.00240057 0.0413086 0)
(-0.00233587 0.0397302 0)
(-0.00227135 0.0381948 0)
(-0.00220713 0.0367024 0)
(-0.00214332 0.0352527 0)
(-0.00208004 0.0338453 0)
(-0.00201738 0.0324799 0)
(-0.00195544 0.031156 0)
(-0.00189428 0.0298732 0)
(-0.00183399 0.0286309 0)
(-0.00177463 0.0274285 0)
(-0.00171626 0.0262653 0)
(-0.00165895 0.0251406 0)
(-0.00160272 0.0240538 0)
(-0.00154763 0.0230042 0)
(-0.00149372 0.0219908 0)
(-0.00144101 0.021013 0)
(-0.00138953 0.0200699 0)
(-0.0013393 0.0191607 0)
(-0.00129035 0.0182846 0)
(-0.00124269 0.0174406 0)
(-0.00119632 0.016628 0)
(-0.00115126 0.0158459 0)
(-0.00110752 0.0150933 0)
(-0.00106509 0.0143695 0)
(-0.00102397 0.0136736 0)
(-0.000984167 0.0130045 0)
(-0.00094567 0.0123616 0)
(-0.000908473 0.0117439 0)
(-0.00087257 0.0111506 0)
(-0.000837949 0.0105808 0)
(-0.0008046 0.0100336 0)
(-0.000772511 0.00950822 0)
(-0.000741668 0.00900381 0)
(-0.000712058 0.00851955 0)
(-0.000683665 0.00805461 0)
(-0.000656475 0.0076082 0)
(-0.00063047 0.00717951 0)
(-0.000605636 0.00676776 0)
(-0.000581956 0.00637218 0)
(-0.000559414 0.005992 0)
(-0.000537992 0.00562646 0)
(-0.000517675 0.00527484 0)
(-0.000498446 0.00493639 0)
(-0.000480289 0.00461039 0)
(-0.000463189 0.00429615 0)
(-0.000447131 0.00399295 0)
(-0.0004321 0.00370011 0)
(-0.000418082 0.00341694 0)
(-0.000405063 0.00314279 0)
(-0.00039303 0.00287698 0)
(-0.000381972 0.00261887 0)
(-0.000371877 0.0023678 0)
(-0.000362734 0.00212315 0)
(-0.000354534 0.00188427 0)
(-0.000347268 0.00165054 0)
(-0.000340927 0.00142135 0)
(-0.000335506 0.00119607 0)
(-0.000330998 0.000974107 0)
(-0.000327397 0.000754843 0)
(-0.0003247 0.000537677 0)
(-0.000322904 0.000322008 0)
(-0.000322006 0.000107236 0)
(-0.00421187 0.117696 0)
(-0.00446124 0.11596 0)
(-0.00468451 0.114129 0)
(-0.0048826 0.112214 0)
(-0.00505746 0.110225 0)
(-0.00521003 0.108171 0)
(-0.00534198 0.10606 0)
(-0.00545395 0.1039 0)
(-0.00554731 0.101699 0)
(-0.0056235 0.0994641 0)
(-0.00568287 0.0972026 0)
(-0.00572673 0.0949204 0)
(-0.0057565 0.0926236 0)
(-0.005773 0.0903176 0)
(-0.00577681 0.0880078 0)
(-0.00576874 0.0856988 0)
(-0.00574979 0.0833954 0)
(-0.00572093 0.0811016 0)
(-0.00568295 0.0788212 0)
(-0.00563654 0.0765577 0)
(-0.00558231 0.0743144 0)
(-0.00552088 0.0720943 0)
(-0.00545289 0.0699002 0)
(-0.00537898 0.0677344 0)
(-0.00529974 0.0655994 0)
(-0.00521575 0.063497 0)
(-0.00512754 0.0614291 0)
(-0.00503561 0.0593973 0)
(-0.00494041 0.0574029 0)
(-0.00484238 0.0554471 0)
(-0.00474191 0.0535311 0)
(-0.00463941 0.0516557 0)
(-0.00453522 0.0498216 0)
(-0.00442969 0.0480295 0)
(-0.00432314 0.0462799 0)
(-0.00421588 0.0445729 0)
(-0.00410817 0.042909 0)
(-0.00400029 0.0412882 0)
(-0.00389248 0.0397106 0)
(-0.00378496 0.038176 0)
(-0.00367794 0.0366843 0)
(-0.00357162 0.0352353 0)
(-0.00346617 0.0338286 0)
(-0.00336175 0.0324639 0)
(-0.00325852 0.0311407 0)
(-0.00315661 0.0298585 0)
(-0.00305614 0.0286168 0)
(-0.00295723 0.0274149 0)
(-0.00285997 0.0262523 0)
(-0.00276446 0.0251282 0)
(-0.00267076 0.024042 0)
(-0.00257896 0.0229928 0)
(-0.00248912 0.0219799 0)
(-0.00240128 0.0210026 0)
(-0.0023155 0.02006 0)
(-0.0022318 0.0191512 0)
(-0.00215023 0.0182755 0)
(-0.0020708 0.017432 0)
(-0.00199354 0.0166198 0)
(-0.00191846 0.0158381 0)
(-0.00184556 0.0150859 0)
(-0.00177485 0.0143624 0)
(-0.00170634 0.0136668 0)
(-0.00164001 0.0129981 0)
(-0.00157586 0.0123555 0)
(-0.00151387 0.0117381 0)
(-0.00145404 0.0111451 0)
(-0.00139635 0.0105756 0)
(-0.00134078 0.0100286 0)
(-0.00128731 0.00950352 0)
(-0.00123591 0.00899937 0)
(-0.00118657 0.00851534 0)
(-0.00113925 0.00805064 0)
(-0.00109394 0.00760445 0)
(-0.00105061 0.00717597 0)
(-0.00100923 0.00676442 0)
(-0.000969768 0.00636904 0)
(-0.000932203 0.00598904 0)
(-0.000896506 0.00562369 0)
(-0.000862649 0.00527223 0)
(-0.000830606 0.00493395 0)
(-0.00080035 0.00460812 0)
(-0.000771855 0.00429403 0)
(-0.000745096 0.00399098 0)
(-0.000720048 0.00369828 0)
(-0.000696688 0.00341526 0)
(-0.000674994 0.00314124 0)
(-0.000654943 0.00287556 0)
(-0.000636515 0.00261758 0)
(-0.000619693 0.00236663 0)
(-0.000604457 0.0021221 0)
(-0.000590793 0.00188334 0)
(-0.000578684 0.00164973 0)
(-0.000568119 0.00142065 0)
(-0.000559085 0.00119548 0)
(-0.000551572 0.000973627 0)
(-0.000545572 0.000754471 0)
(-0.000541077 0.000537412 0)
(-0.000538084 0.000321849 0)
(-0.000536588 0.000107183 0)
(-0.00589514 0.117609 0)
(-0.00624396 0.115874 0)
(-0.00655653 0.114045 0)
(-0.00683393 0.112131 0)
(-0.00707869 0.110144 0)
(-0.00729235 0.108091 0)
(-0.00747693 0.105981 0)
(-0.00763365 0.103823 0)
(-0.00776432 0.101623 0)
(-0.00787086 0.0993905 0)
(-0.00795402 0.0971306 0)
(-0.00801553 0.0948501 0)
(-0.0080572 0.092555 0)
(-0.0080802 0.0902507 0)
(-0.00808548 0.0879426 0)
(-0.00807419 0.0856354 0)
(-0.00804772 0.0833337 0)
(-0.00800735 0.0810415 0)
(-0.00795421 0.0787628 0)
(-0.00788923 0.076501 0)
(-0.00781331 0.0742594 0)
(-0.00772732 0.0720409 0)
(-0.00763215 0.0698484 0)
(-0.00752869 0.0676843 0)
(-0.00741779 0.0655508 0)
(-0.00730024 0.06345 0)
(-0.00717679 0.0613836 0)
(-0.00704811 0.0593533 0)
(-0.00691487 0.0573604 0)
(-0.00677766 0.0554061 0)
(-0.00663704 0.0534915 0)
(-0.00649357 0.0516174 0)
(-0.00634774 0.0497847 0)
(-0.00620004 0.047994 0)
(-0.00605091 0.0462456 0)
(-0.00590077 0.0445399 0)
(-0.00575002 0.0428773 0)
(-0.00559903 0.0412577 0)
(-0.00544813 0.0396812 0)
(-0.00529763 0.0381477 0)
(-0.00514785 0.0366571 0)
(-0.00499903 0.0352092 0)
(-0.00485144 0.0338035 0)
(-0.00470529 0.0324398 0)
(-0.00456081 0.0311176 0)
(-0.00441817 0.0298364 0)
(-0.00427755 0.0285956 0)
(-0.0041391 0.0273946 0)
(-0.00400297 0.0262329 0)
(-0.00386928 0.0251096 0)
(-0.00373815 0.0240242 0)
(-0.00360966 0.0229758 0)
(-0.00348391 0.0219637 0)
(-0.00336097 0.0209871 0)
(-0.0032409 0.0200451 0)
(-0.00312375 0.0191371 0)
(-0.00300958 0.018262 0)
(-0.00289841 0.0174191 0)
(-0.00279027 0.0166075 0)
(-0.00268518 0.0158263 0)
(-0.00258315 0.0150747 0)
(-0.00248418 0.0143518 0)
(-0.00238828 0.0136567 0)
(-0.00229544 0.0129885 0)
(-0.00220565 0.0123464 0)
(-0.0021189 0.0117294 0)
(-0.00203516 0.0111368 0)
(-0.00195441 0.0105677 0)
(-0.00187663 0.0100212 0)
(-0.00180178 0.00949649 0)
(-0.00172985 0.0089927 0)
(-0.00166079 0.00850904 0)
(-0.00159456 0.00804468 0)
(-0.00153114 0.00759882 0)
(-0.00147049 0.00717066 0)
(-0.00141257 0.00675942 0)
(-0.00135734 0.00636432 0)
(-0.00130476 0.00598461 0)
(-0.0012548 0.00561952 0)
(-0.00120741 0.00526833 0)
(-0.00116256 0.0049303 0)
(-0.00112021 0.00460471 0)
(-0.00108033 0.00429085 0)
(-0.00104288 0.00398802 0)
(-0.00100782 0.00369554 0)
(-0.000975123 0.00341273 0)
(-0.000944758 0.00313891 0)
(-0.000916693 0.00287343 0)
(-0.000890902 0.00261564 0)
(-0.000867356 0.00236488 0)
(-0.000846031 0.00212053 0)
(-0.000826906 0.00188194 0)
(-0.000809958 0.0016485 0)
(-0.00079517 0.00141959 0)
(-0.000782525 0.0011946 0)
(-0.00077201 0.000972906 0)
(-0.000763612 0.000753912 0)
(-0.000757321 0.000537014 0)
(-0.000753132 0.000321611 0)
(-0.000751038 0.000107104 0)
(-0.00757722 0.117493 0)
(-0.00802536 0.115759 0)
(-0.00842685 0.113932 0)
(-0.00878357 0.112021 0)
(-0.00909819 0.110035 0)
(-0.00937284 0.107984 0)
(-0.00961003 0.105876 0)
(-0.00981144 0.10372 0)
(-0.00997941 0.101523 0)
(-0.0101163 0.0992923 0)
(-0.0102232 0.0970346 0)
(-0.0103024 0.0947564 0)
(-0.0103559 0.0924635 0)
(-0.0103854 0.0901616 0)
(-0.0103921 0.0878557 0)
(-0.0103776 0.0855508 0)
(-0.0103437 0.0832514 0)
(-0.0102918 0.0809615 0)
(-0.0102235 0.078685 0)
(-0.01014 0.0764254 0)
(-0.0100424 0.074186 0)
(-0.00993184 0.0719697 0)
(-0.00980952 0.0697794 0)
(-0.00967655 0.0676174 0)
(-0.00953401 0.0654861 0)
(-0.00938293 0.0633873 0)
(-0.00922426 0.061323 0)
(-0.00905888 0.0592947 0)
(-0.00888763 0.0573037 0)
(-0.00871127 0.0553513 0)
(-0.00853054 0.0534386 0)
(-0.00834613 0.0515665 0)
(-0.0081587 0.0497356 0)
(-0.00796886 0.0479466 0)
(-0.00777718 0.0461999 0)
(-0.00758421 0.0444959 0)
(-0.00739045 0.0428349 0)
(-0.00719638 0.0412169 0)
(-0.00700243 0.039642 0)
(-0.006809 0.03811 0)
(-0.00661648 0.0366209 0)
(-0.00642521 0.0351744 0)
(-0.00623551 0.0337701 0)
(-0.00604767 0.0324078 0)
(-0.00586196 0.0310869 0)
(-0.00567863 0.0298069 0)
(-0.00549789 0.0285673 0)
(-0.00531995 0.0273676 0)
(-0.00514498 0.026207 0)
(-0.00497316 0.0250848 0)
(-0.00480461 0.0240004 0)
(-0.00463946 0.0229531 0)
(-0.00447784 0.021942 0)
(-0.00431982 0.0209663 0)
(-0.0041655 0.0200253 0)
(-0.00401493 0.0191182 0)
(-0.00386819 0.018244 0)
(-0.0037253 0.0174019 0)
(-0.00358631 0.0165911 0)
(-0.00345123 0.0158107 0)
(-0.0033201 0.0150598 0)
(-0.0031929 0.0143376 0)
(-0.00306964 0.0136432 0)
(-0.00295031 0.0129757 0)
(-0.00283491 0.0123342 0)
(-0.0027234 0.0117179 0)
(-0.00261577 0.0111258 0)
(-0.00251199 0.0105573 0)
(-0.00241201 0.0100113 0)
(-0.00231582 0.00948711 0)
(-0.00222336 0.00898382 0)
(-0.00213459 0.00850063 0)
(-0.00204948 0.00803673 0)
(-0.00196797 0.00759131 0)
(-0.00189001 0.00716357 0)
(-0.00181556 0.00675274 0)
(-0.00174458 0.00635803 0)
(-0.001677 0.0059787 0)
(-0.00161278 0.00561397 0)
(-0.00155187 0.00526313 0)
(-0.00149423 0.00492543 0)
(-0.0014398 0.00460016 0)
(-0.00138854 0.00428661 0)
(-0.0013404 0.00398408 0)
(-0.00129534 0.00369189 0)
(-0.00125332 0.00340936 0)
(-0.00121429 0.00313581 0)
(-0.00117822 0.0028706 0)
(-0.00114507 0.00261306 0)
(-0.0011148 0.00236255 0)
(-0.0010874 0.00211843 0)
(-0.00106281 0.00188008 0)
(-0.00104103 0.00164688 0)
(-0.00102203 0.00141819 0)
(-0.00100577 0.00119342 0)
(-0.000992258 0.000971945 0)
(-0.000981464 0.000753167 0)
(-0.000973379 0.000536483 0)
(-0.000967994 0.000321293 0)
(-0.000965303 0.000106998 0)
(-0.00925747 0.117348 0)
(-0.00980494 0.115616 0)
(-0.0102952 0.113791 0)
(-0.0107311 0.111882 0)
(-0.0111154 0.109899 0)
(-0.011451 0.10785 0)
(-0.0117407 0.105745 0)
(-0.0119868 0.103592 0)
(-0.0121921 0.101398 0)
(-0.0123593 0.0991696 0)
(-0.0124899 0.0969147 0)
(-0.0125866 0.0946393 0)
(-0.012652 0.0923493 0)
(-0.012688 0.0900502 0)
(-0.0126962 0.0877472 0)
(-0.0126786 0.0854452 0)
(-0.0126371 0.0831485 0)
(-0.0125738 0.0808615 0)
(-0.0124903 0.0785878 0)
(-0.0123882 0.076331 0)
(-0.012269 0.0740943 0)
(-0.0121339 0.0718808 0)
(-0.0119845 0.0696932 0)
(-0.011822 0.0675339 0)
(-0.0116479 0.0654052 0)
(-0.0114633 0.063309 0)
(-0.0112695 0.0612473 0)
(-0.0110674 0.0592214 0)
(-0.0108582 0.0572329 0)
(-0.0106427 0.055283 0)
(-0.0104219 0.0533726 0)
(-0.0101966 0.0515027 0)
(-0.00996764 0.0496741 0)
(-0.00973571 0.0478873 0)
(-0.00950153 0.0461428 0)
(-0.00926578 0.044441 0)
(-0.00902906 0.042782 0)
(-0.00879196 0.041166 0)
(-0.008555 0.039593 0)
(-0.00831869 0.0380629 0)
(-0.00808349 0.0365757 0)
(-0.00784981 0.0351309 0)
(-0.00761805 0.0337284 0)
(-0.00738856 0.0323677 0)
(-0.00716168 0.0310485 0)
(-0.00693769 0.0297701 0)
(-0.00671688 0.028532 0)
(-0.00649949 0.0273338 0)
(-0.00628573 0.0261746 0)
(-0.0060758 0.0250538 0)
(-0.00586988 0.0239708 0)
(-0.00566812 0.0229247 0)
(-0.00547066 0.0219149 0)
(-0.00527761 0.0209404 0)
(-0.00508907 0.0200006 0)
(-0.00490512 0.0190945 0)
(-0.00472584 0.0182214 0)
(-0.00455127 0.0173804 0)
(-0.00438146 0.0165706 0)
(-0.00421644 0.0157912 0)
(-0.00405622 0.0150412 0)
(-0.00390082 0.0143199 0)
(-0.00375024 0.0136263 0)
(-0.00360446 0.0129596 0)
(-0.00346346 0.0123189 0)
(-0.00332723 0.0117034 0)
(-0.00319574 0.0111121 0)
(-0.00306894 0.0105442 0)
(-0.0029468 0.00999895 0)
(-0.00282928 0.00947538 0)
(-0.00271632 0.00897272 0)
(-0.00260787 0.00849013 0)
(-0.00250389 0.0080268 0)
(-0.0024043 0.00758193 0)
(-0.00230906 0.00715472 0)
(-0.00221811 0.0067444 0)
(-0.00213138 0.00635018 0)
(-0.00204882 0.00597131 0)
(-0.00197037 0.00560704 0)
(-0.00189596 0.00525662 0)
(-0.00182553 0.00491934 0)
(-0.00175903 0.00459448 0)
(-0.00169641 0.00428131 0)
(-0.00163759 0.00397916 0)
(-0.00158254 0.00368733 0)
(-0.0015312 0.00340515 0)
(-0.00148352 0.00313194 0)
(-0.00143945 0.00286705 0)
(-0.00139895 0.00260983 0)
(-0.00136198 0.00235963 0)
(-0.00132849 0.00211581 0)
(-0.00129846 0.00187776 0)
(-0.00127185 0.00164484 0)
(-0.00124863 0.00141644 0)
(-0.00122877 0.00119194 0)
(-0.00121226 0.000970744 0)
(-0.00119907 0.000752237 0)
(-0.0011892 0.000535821 0)
(-0.00118262 0.000320896 0)
(-0.00117933 0.000106866 0)
(-0.0109353 0.117174 0)
(-0.0115821 0.115445 0)
(-0.0121611 0.113622 0)
(-0.0126759 0.111716 0)
(-0.0131299 0.109736 0)
(-0.0135263 0.10769 0)
(-0.0138685 0.105589 0)
(-0.0141593 0.103438 0)
(-0.0144017 0.101247 0)
(-0.0145992 0.0990225 0)
(-0.0147536 0.0967709 0)
(-0.0148678 0.0944989 0)
(-0.014945 0.0922123 0)
(-0.0149875 0.0899166 0)
(-0.0149972 0.087617 0)
(-0.0149763 0.0853184 0)
(-0.0149274 0.0830252 0)
(-0.0148526 0.0807415 0)
(-0.014754 0.0784711 0)
(-0.0146334 0.0762177 0)
(-0.0144925 0.0739844 0)
(-0.014333 0.0717742 0)
(-0.0141564 0.0695898 0)
(-0.0139646 0.0674337 0)
(-0.0137589 0.0653081 0)
(-0.0135409 0.0632151 0)
(-0.0133119 0.0611564 0)
(-0.0130732 0.0591335 0)
(-0.0128261 0.057148 0)
(-0.0125716 0.0552009 0)
(-0.0123107 0.0532934 0)
(-0.0120446 0.0514263 0)
(-0.0117741 0.0496004 0)
(-0.0115002 0.0478163 0)
(-0.0112235 0.0460744 0)
(-0.0109451 0.044375 0)
(-0.0106654 0.0427185 0)
(-0.0103854 0.0411049 0)
(-0.0101055 0.0395342 0)
(-0.00982633 0.0380065 0)
(-0.00954849 0.0365214 0)
(-0.00927246 0.0350788 0)
(-0.0089987 0.0336784 0)
(-0.00872762 0.0323197 0)
(-0.00845962 0.0310024 0)
(-0.00819504 0.0297259 0)
(-0.00793421 0.0284897 0)
(-0.00767742 0.0272932 0)
(-0.00742492 0.0261357 0)
(-0.00717695 0.0250166 0)
(-0.00693371 0.0239352 0)
(-0.00669538 0.0228907 0)
(-0.00646213 0.0218823 0)
(-0.00623409 0.0209094 0)
(-0.00601138 0.0199709 0)
(-0.0057941 0.0190662 0)
(-0.00558232 0.0181944 0)
(-0.00537612 0.0173546 0)
(-0.00517553 0.016546 0)
(-0.00498061 0.0157677 0)
(-0.00479135 0.0150189 0)
(-0.00460779 0.0142987 0)
(-0.00442991 0.0136061 0)
(-0.00425771 0.0129404 0)
(-0.00409116 0.0123007 0)
(-0.00393024 0.011686 0)
(-0.00377492 0.0110956 0)
(-0.00362514 0.0105286 0)
(-0.00348087 0.00998411 0)
(-0.00334204 0.00946133 0)
(-0.00320861 0.00895941 0)
(-0.00308051 0.00847753 0)
(-0.00295768 0.00801489 0)
(-0.00284005 0.00757068 0)
(-0.00272755 0.00714411 0)
(-0.00262011 0.00673439 0)
(-0.00251766 0.00634076 0)
(-0.00242014 0.00596245 0)
(-0.00232746 0.00559872 0)
(-0.00223957 0.00524883 0)
(-0.00215638 0.00491204 0)
(-0.00207783 0.00458766 0)
(-0.00200385 0.00427496 0)
(-0.00193438 0.00397326 0)
(-0.00186936 0.00368186 0)
(-0.00180871 0.00340009 0)
(-0.00175239 0.00312729 0)
(-0.00170033 0.0028628 0)
(-0.00165249 0.00260595 0)
(-0.00160882 0.00235613 0)
(-0.00156926 0.00211268 0)
(-0.00153379 0.00187497 0)
(-0.00150235 0.0016424 0)
(-0.00147492 0.00141434 0)
(-0.00145147 0.00119018 0)
(-0.00143196 0.000969304 0)
(-0.00141639 0.000751121 0)
(-0.00140472 0.000535026 0)
(-0.00139695 0.00032042 0)
(-0.00139307 0.000106708 0)
(-0.0126105 0.116971 0)
(-0.0133562 0.115245 0)
(-0.0140239 0.113426 0)
(-0.0146176 0.111523 0)
(-0.0151412 0.109546 0)
(-0.0155983 0.107504 0)
(-0.0159929 0.105406 0)
(-0.0163282 0.103259 0)
(-0.0166078 0.101072 0)
(-0.0168355 0.0988509 0)
(-0.0170135 0.0966032 0)
(-0.0171453 0.0943352 0)
(-0.0172343 0.0920525 0)
(-0.0172833 0.0897608 0)
(-0.0172944 0.0874652 0)
(-0.0172704 0.0851705 0)
(-0.017214 0.0828813 0)
(-0.0171278 0.0806016 0)
(-0.0170141 0.0783352 0)
(-0.016875 0.0760856 0)
(-0.0167125 0.0738562 0)
(-0.0165285 0.0716498 0)
(-0.0163249 0.0694692 0)
(-0.0161037 0.0673169 0)
(-0.0158665 0.065195 0)
(-0.0156151 0.0631056 0)
(-0.015351 0.0610504 0)
(-0.0150758 0.0590311 0)
(-0.0147908 0.057049 0)
(-0.0144973 0.0551053 0)
(-0.0141965 0.0532011 0)
(-0.0138896 0.0513372 0)
(-0.0135777 0.0495145 0)
(-0.0132618 0.0477334 0)
(-0.0129428 0.0459945 0)
(-0.0126216 0.0442981 0)
(-0.0122992 0.0426445 0)
(-0.0119762 0.0410337 0)
(-0.0116534 0.0394657 0)
(-0.0113315 0.0379406 0)
(-0.0110111 0.0364581 0)
(-0.0106928 0.035018 0)
(-0.0103771 0.03362 0)
(-0.0100645 0.0322637 0)
(-0.00975548 0.0309487 0)
(-0.00945037 0.0296744 0)
(-0.00914959 0.0284403 0)
(-0.00885346 0.0272459 0)
(-0.00856228 0.0260905 0)
(-0.00827632 0.0249733 0)
(-0.00799582 0.0238937 0)
(-0.00772099 0.022851 0)
(-0.00745201 0.0218444 0)
(-0.00718904 0.0208731 0)
(-0.00693222 0.0199363 0)
(-0.00668165 0.0190332 0)
(-0.00643743 0.0181629 0)
(-0.00619964 0.0173245 0)
(-0.00596833 0.0165173 0)
(-0.00574354 0.0157404 0)
(-0.0055253 0.0149929 0)
(-0.00531362 0.0142739 0)
(-0.00510849 0.0135825 0)
(-0.00490991 0.012918 0)
(-0.00471785 0.0122794 0)
(-0.00453229 0.0116658 0)
(-0.00435317 0.0110764 0)
(-0.00418045 0.0105104 0)
(-0.00401407 0.00996681 0)
(-0.00385398 0.00944493 0)
(-0.00370011 0.00894388 0)
(-0.00355239 0.00846285 0)
(-0.00341074 0.00800101 0)
(-0.00327509 0.00755756 0)
(-0.00314536 0.00713173 0)
(-0.00302146 0.00672272 0)
(-0.00290332 0.00632977 0)
(-0.00279086 0.00595212 0)
(-0.00268399 0.00558902 0)
(-0.00258263 0.00523973 0)
(-0.0024867 0.00490353 0)
(-0.00239612 0.00457971 0)
(-0.00231081 0.00426755 0)
(-0.00223069 0.00396637 0)
(-0.00215571 0.00367548 0)
(-0.00208577 0.0033942 0)
(-0.00202082 0.00312187 0)
(-0.00196079 0.00285784 0)
(-0.00190562 0.00260144 0)
(-0.00185526 0.00235204 0)
(-0.00180965 0.00210902 0)
(-0.00176874 0.00187173 0)
(-0.00173249 0.00163956 0)
(-0.00170085 0.00141189 0)
(-0.00167381 0.00118811 0)
(-0.00165132 0.000967625 0)
(-0.00163335 0.00074982 0)
(-0.0016199 0.000534099 0)
(-0.00161094 0.000319865 0)
(-0.00160646 0.000106523 0)
(-0.0142824 0.116739 0)
(-0.0151271 0.115016 0)
(-0.0158833 0.113201 0)
(-0.0165557 0.111302 0)
(-0.0171487 0.109329 0)
(-0.0176664 0.107291 0)
(-0.0181134 0.105197 0)
(-0.0184931 0.103054 0)
(-0.0188098 0.100871 0)
(-0.0190677 0.0986549 0)
(-0.0192693 0.0964117 0)
(-0.0194185 0.0941481 0)
(-0.0195194 0.09187 0)
(-0.0195748 0.0895829 0)
(-0.0195874 0.0872918 0)
(-0.0195603 0.0850017 0)
(-0.0194964 0.082717 0)
(-0.0193987 0.0804418 0)
(-0.0192699 0.0781799 0)
(-0.0191124 0.0759348 0)
(-0.0189283 0.0737098 0)
(-0.0187199 0.0715078 0)
(-0.0184894 0.0693315 0)
(-0.0182388 0.0671834 0)
(-0.0179702 0.0650657 0)
(-0.0176854 0.0629805 0)
(-0.0173864 0.0609294 0)
(-0.0170747 0.0589141 0)
(-0.0167519 0.0569359 0)
(-0.0164195 0.054996 0)
(-0.0160788 0.0530956 0)
(-0.0157312 0.0512355 0)
(-0.0153779 0.0494163 0)
(-0.0150201 0.0476388 0)
(-0.0146588 0.0459033 0)
(-0.0142951 0.0442103 0)
(-0.0139299 0.0425599 0)
(-0.0135641 0.0409523 0)
(-0.0131985 0.0393875 0)
(-0.012834 0.0378654 0)
(-0.0124711 0.0363858 0)
(-0.0121106 0.0349486 0)
(-0.011753 0.0335534 0)
(-0.011399 0.0321997 0)
(-0.0110489 0.0308873 0)
(-0.0107034 0.0296156 0)
(-0.0103627 0.028384 0)
(-0.0100273 0.0271919 0)
(-0.00969753 0.0260387 0)
(-0.00937366 0.0249238 0)
(-0.00905597 0.0238464 0)
(-0.0087447 0.0228057 0)
(-0.00844005 0.0218011 0)
(-0.00814222 0.0208317 0)
(-0.00785134 0.0198968 0)
(-0.00756755 0.0189954 0)
(-0.00729095 0.0181269 0)
(-0.00702163 0.0172902 0)
(-0.00675965 0.0164846 0)
(-0.00650506 0.0157092 0)
(-0.00625788 0.0149632 0)
(-0.00601813 0.0142456 0)
(-0.00578581 0.0135556 0)
(-0.0055609 0.0128924 0)
(-0.00534338 0.012255 0)
(-0.00513321 0.0116426 0)
(-0.00493034 0.0110544 0)
(-0.00473472 0.0104895 0)
(-0.00454629 0.00994705 0)
(-0.00436497 0.00942621 0)
(-0.0041907 0.00892615 0)
(-0.00402339 0.00844607 0)
(-0.00386296 0.00798514 0)
(-0.00370932 0.00754258 0)
(-0.00356239 0.00711759 0)
(-0.00342207 0.00670939 0)
(-0.00328827 0.00631722 0)
(-0.00316089 0.00594032 0)
(-0.00303985 0.00557794 0)
(-0.00292505 0.00522934 0)
(-0.0028164 0.00489381 0)
(-0.00271381 0.00457063 0)
(-0.00261719 0.00425909 0)
(-0.00252646 0.00395851 0)
(-0.00244152 0.0036682 0)
(-0.00236232 0.00338748 0)
(-0.00228875 0.00311569 0)
(-0.00222077 0.00285217 0)
(-0.00215828 0.00259628 0)
(-0.00210124 0.00234738 0)
(-0.00204958 0.00210483 0)
(-0.00200325 0.00186802 0)
(-0.00196219 0.00163631 0)
(-0.00192637 0.00140909 0)
(-0.00189573 0.00118576 0)
(-0.00187026 0.000965707 0)
(-0.00184991 0.000748333 0)
(-0.00183467 0.00053304 0)
(-0.00182452 0.000319231 0)
(-0.00181945 0.000106311 0)
(-0.0159509 0.116478 0)
(-0.0168942 0.11476 0)
(-0.0177388 0.112948 0)
(-0.0184897 0.111053 0)
(-0.019152 0.109084 0)
(-0.0197302 0.107051 0)
(-0.0202294 0.104962 0)
(-0.0206535 0.102824 0)
(-0.0210071 0.100646 0)
(-0.0212951 0.0984346 0)
(-0.0215203 0.0961964 0)
(-0.021687 0.0939379 0)
(-0.0217996 0.0916649 0)
(-0.0218615 0.0893828 0)
(-0.0218756 0.0870969 0)
(-0.0218453 0.0848119 0)
(-0.0217739 0.0825322 0)
(-0.0216649 0.0802621 0)
(-0.021521 0.0780053 0)
(-0.0213451 0.0757652 0)
(-0.0211395 0.0735452 0)
(-0.0209068 0.0713481 0)
(-0.0206493 0.0691767 0)
(-0.0203694 0.0670334 0)
(-0.0200694 0.0649205 0)
(-0.0197514 0.0628398 0)
(-0.0194174 0.0607933 0)
(-0.0190693 0.0587825 0)
(-0.0187088 0.0568087 0)
(-0.0183376 0.0548732 0)
(-0.0179571 0.052977 0)
(-0.0175689 0.051121 0)
(-0.0171744 0.049306 0)
(-0.0167747 0.0475324 0)
(-0.0163713 0.0458008 0)
(-0.015965 0.0441116 0)
(-0.0155572 0.0424649 0)
(-0.0151486 0.0408609 0)
(-0.0147404 0.0392995 0)
(-0.0143332 0.0377808 0)
(-0.0139279 0.0363046 0)
(-0.0135253 0.0348705 0)
(-0.013126 0.0334784 0)
(-0.0127306 0.0321278 0)
(-0.0123397 0.0308183 0)
(-0.0119537 0.0295494 0)
(-0.0115733 0.0283206 0)
(-0.0111987 0.0271312 0)
(-0.0108304 0.0259806 0)
(-0.0104687 0.0248681 0)
(-0.0101139 0.0237931 0)
(-0.00976624 0.0227548 0)
(-0.00942601 0.0217524 0)
(-0.00909338 0.0207852 0)
(-0.00876852 0.0198524 0)
(-0.00845158 0.018953 0)
(-0.00814267 0.0180864 0)
(-0.00784189 0.0172516 0)
(-0.00754931 0.0164478 0)
(-0.00726498 0.0156741 0)
(-0.00698892 0.0149298 0)
(-0.00672117 0.0142138 0)
(-0.0064617 0.0135253 0)
(-0.00621052 0.0128636 0)
(-0.00596759 0.0122276 0)
(-0.00573286 0.0116166 0)
(-0.0055063 0.0110297 0)
(-0.00528782 0.0104661 0)
(-0.00507738 0.00992484 0)
(-0.00487488 0.00940516 0)
(-0.00468025 0.00890622 0)
(-0.0044934 0.00842721 0)
(-0.00431423 0.00796731 0)
(-0.00414264 0.00752574 0)
(-0.00397854 0.0071017 0)
(-0.00382183 0.00669441 0)
(-0.0036724 0.00630312 0)
(-0.00353014 0.00592705 0)
(-0.00339496 0.00556548 0)
(-0.00326675 0.00521767 0)
(-0.00314541 0.00488289 0)
(-0.00303083 0.00456043 0)
(-0.00292293 0.00424958 0)
(-0.00282159 0.00394967 0)
(-0.00272674 0.00366 0)
(-0.00263828 0.00337991 0)
(-0.00255612 0.00310873 0)
(-0.00248019 0.0028458 0)
(-0.00241041 0.00259049 0)
(-0.00234671 0.00234214 0)
(-0.00228901 0.00210013 0)
(-0.00223726 0.00186384 0)
(-0.00219141 0.00163265 0)
(-0.0021514 0.00140594 0)
(-0.00211719 0.00118311 0)
(-0.00208874 0.00096355 0)
(-0.00206602 0.000746662 0)
(-0.002049 0.00053185 0)
(-0.00203766 0.000318518 0)
(-0.002032 0.000106074 0)
(-0.0176154 0.116189 0)
(-0.0186572 0.114474 0)
(-0.0195899 0.112667 0)
(-0.0204192 0.110777 0)
(-0.0211505 0.108813 0)
(-0.0217891 0.106785 0)
(-0.0223404 0.104701 0)
(-0.0228087 0.102569 0)
(-0.0231993 0.100396 0)
(-0.0235173 0.09819 0)
(-0.023766 0.0959574 0)
(-0.0239501 0.0937045 0)
(-0.0240745 0.0914371 0)
(-0.0241428 0.0891607 0)
(-0.0241584 0.0868805 0)
(-0.0241249 0.0846011 0)
(-0.0240461 0.0823272 0)
(-0.0239257 0.0800627 0)
(-0.0237668 0.0778114 0)
(-0.0235725 0.075577 0)
(-0.0233455 0.0733624 0)
(-0.0230884 0.0711708 0)
(-0.0228041 0.0690048 0)
(-0.022495 0.0668668 0)
(-0.0221637 0.0647591 0)
(-0.0218125 0.0626837 0)
(-0.0214437 0.0606423 0)
(-0.0210593 0.0586364 0)
(-0.0206612 0.0566676 0)
(-0.0202512 0.0547369 0)
(-0.019831 0.0528454 0)
(-0.0194023 0.050994 0)
(-0.0189666 0.0491834 0)
(-0.0185252 0.0474143 0)
(-0.0180796 0.045687 0)
(-0.017631 0.044002 0)
(-0.0171806 0.0423594 0)
(-0.0167295 0.0407593 0)
(-0.0162786 0.0392019 0)
(-0.0158289 0.0376869 0)
(-0.0153814 0.0362144 0)
(-0.0149367 0.0347839 0)
(-0.0144957 0.0333952 0)
(-0.014059 0.032048 0)
(-0.0136273 0.0307418 0)
(-0.0132011 0.029476 0)
(-0.012781 0.0282502 0)
(-0.0123673 0.0270638 0)
(-0.0119606 0.025916 0)
(-0.0115611 0.0248063 0)
(-0.0111693 0.023734 0)
(-0.0107854 0.0226983 0)
(-0.0104096 0.0216984 0)
(-0.0100423 0.0207336 0)
(-0.00968354 0.019803 0)
(-0.00933353 0.0189059 0)
(-0.00899239 0.0180414 0)
(-0.00866022 0.0172087 0)
(-0.0083371 0.0164069 0)
(-0.0080231 0.0156352 0)
(-0.00771824 0.0148927 0)
(-0.00742254 0.0141785 0)
(-0.007136 0.0134917 0)
(-0.00685861 0.0128316 0)
(-0.00659032 0.0121973 0)
(-0.0063311 0.0115878 0)
(-0.00608089 0.0110023 0)
(-0.00583962 0.0104401 0)
(-0.00560722 0.00990018 0)
(-0.00538359 0.00938179 0)
(-0.00516865 0.00888409 0)
(-0.0049623 0.00840627 0)
(-0.00476443 0.00794752 0)
(-0.00457494 0.00750704 0)
(-0.00439372 0.00708405 0)
(-0.00422065 0.00667778 0)
(-0.00405562 0.00628745 0)
(-0.00389853 0.00591233 0)
(-0.00374924 0.00555165 0)
(-0.00360765 0.0052047 0)
(-0.00347364 0.00487075 0)
(-0.00334711 0.00454909 0)
(-0.00322794 0.00423903 0)
(-0.00311604 0.00393986 0)
(-0.00301128 0.00365091 0)
(-0.00291359 0.00337151 0)
(-0.00282286 0.003101 0)
(-0.00273901 0.00283873 0)
(-0.00266194 0.00258405 0)
(-0.00259159 0.00233632 0)
(-0.00252788 0.00209492 0)
(-0.00247073 0.00185921 0)
(-0.00242009 0.0016286 0)
(-0.00237591 0.00140245 0)
(-0.00233813 0.00118017 0)
(-0.00230671 0.000961156 0)
(-0.00228161 0.000744807 0)
(-0.00226282 0.000530528 0)
(-0.0022503 0.000317727 0)
(-0.00224404 0.000105811 0)
(-0.0192756 0.11587 0)
(-0.0204156 0.114161 0)
(-0.0214362 0.112359 0)
(-0.0223436 0.110474 0)
(-0.0231439 0.108515 0)
(-0.0238426 0.106493 0)
(-0.0244458 0.104414 0)
(-0.0249583 0.102288 0)
(-0.0253858 0.100121 0)
(-0.0257337 0.0979212 0)
(-0.0260058 0.0956947 0)
(-0.0262073 0.093448 0)
(-0.0263434 0.0911868 0)
(-0.0264181 0.0889166 0)
(-0.0264352 0.0866426 0)
(-0.0263986 0.0843695 0)
(-0.0263124 0.0821018 0)
(-0.0261806 0.0798435 0)
(-0.0260068 0.0775984 0)
(-0.0257941 0.07537 0)
(-0.0255457 0.0731616 0)
(-0.0252644 0.070976 0)