/*--------------------------------*- C++ -*----------------------------------*\
| =========                 |                                                 |
| \\      /  F ield         | OpenFOAM: The Open Source CFD Toolbox           |
|  \\    /   O peration     | Version:  2406                                  |
|   \\  /    A nd           | Website:  www.openfoam.com                      |
|    \\/     M anipulation  |                                                 |
\*---------------------------------------------------------------------------*/
FoamFile
{
    version     2.0;
    format      ascii;
    arch        "LSB;label=32;scalar=64";
    class       volScalarField;
    location    "95";
    object      gradTy;
}
// * * * * * * * * * * * * * * * * * * * * * * * * * * * * * * * * * * * * * //

dimensions      [0 -1 0 1 0 0 0];

internalField   nonuniform List<scalar> 
20000
(
220.465
217.343
213.637
209.421
204.767
199.74
194.398
188.8
182.995
177.031
170.95
164.791
158.59
152.379
146.186
140.038
133.956
127.961
122.071
116.3
110.661
105.166
99.8232
94.6409
89.6247
84.7792
80.1075
75.6117
71.2928
67.1508
63.1849
59.3936
55.7746
52.3252
49.0421
45.9215
42.9593
40.1511
37.4923
34.9781
32.6034
30.3631
28.2521
26.2652
24.3971
22.6427
20.9967
19.4542
18.01
16.6594
15.3975
14.2197
13.1214
12.0982
11.146
10.2606
9.43806
8.67471
7.96689
7.31115
6.70421
6.14292
5.6243
5.14552
4.7039
4.29689
3.92209
3.57724
3.26019
2.96894
2.70159
2.45637
2.23161
2.02575
1.83732
1.66497
1.50741
1.36345
1.23199
1.11199
1.00247
0.90255
0.811386
0.728202
0.652272
0.582923
0.519527
0.461498
0.408289
0.359389
0.31432
0.272631
0.233899
0.197724
0.163723
0.131535
0.10081
0.0712108
0.0424091
0.0140836
220.411
217.289
213.584
209.37
204.717
199.69
194.351
188.753
182.95
176.987
170.908
164.75
158.551
152.341
146.15
140.003
133.923
127.93
122.041
116.271
110.634
105.14
99.7985
94.6175
89.6026
84.7582
80.0877
75.593
71.2752
67.1342
63.1693
59.3789
55.7609
52.3123
49.03
45.9101
42.9487
40.1412
37.4831
34.9694
32.5953
30.3556
28.2452
26.2587
24.3911
22.6371
20.9915
19.4494
18.0056
16.6553
15.3937
14.2162
13.1181
12.0952
11.1432
10.258
9.43573
8.67257
7.96492
7.30935
6.70256
6.1414
5.62291
5.14425
4.70274
4.29583
3.92113
3.57636
3.25939
2.96821
2.70093
2.45576
2.23106
2.02525
1.83687
1.66456
1.50704
1.36312
1.23169
1.11171
1.00222
0.902327
0.811186
0.728022
0.652112
0.58278
0.519399
0.461384
0.408188
0.359301
0.314242
0.272564
0.233842
0.197675
0.163683
0.131503
0.100785
0.0711933
0.0423988
0.0140802
220.302
217.183
213.478
209.267
204.616
199.592
194.255
188.66
182.86
176.9
170.823
164.669
158.472
152.266
146.078
139.934
133.857
127.867
121.98
116.213
110.579
105.088
99.7493
94.5708
89.5584
84.7164
80.0482
75.5557
71.24
67.1011
63.1381
59.3496
55.7334
52.2865
49.0058
45.8875
42.9275
40.1214
37.4645
34.9522
32.5792
30.3406
28.2312
26.2458
24.3791
22.6259
20.9812
19.4398
17.9967
16.6471
15.3861
14.2091
13.1116
12.0892
11.1377
10.253
9.43108
8.66829
7.96099
7.30574
6.69925
6.13837
5.62014
5.14172
4.70042
4.29371
3.91919
3.57459
3.25778
2.96674
2.69959
2.45455
2.22996
2.02425
1.83596
1.66374
1.50629
1.36245
1.23108
1.11116
1.00173
0.901883
0.810786
0.727664
0.65179
0.582493
0.519143
0.461157
0.407987
0.359124
0.314088
0.27243
0.233727
0.197578
0.163603
0.131438
0.100736
0.0711584
0.042378
0.0140733
220.139
217.022
213.32
209.111
204.464
199.444
194.111
188.521
182.724
176.769
170.697
164.547
158.355
152.153
145.97
139.831
133.758
127.772
121.89
116.127
110.497
105.01
99.6754
94.5008
89.492
84.6537
79.9889
75.4997
71.1872
67.0514
63.0914
59.3057
55.6921
52.2478
48.9695
45.8535
42.8957
40.0917
37.4368
34.9263
32.5551
30.3182
28.2103
26.2263
24.361
22.6092
20.9656
19.4254
17.9834
16.6348
15.3747
14.1986
13.1019
12.0803
11.1295
10.2454
9.42409
8.66187
7.9551
7.30034
6.69429
6.13383
5.61598
5.13791
4.69694
4.29053
3.91629
3.57195
3.25537
2.96455
2.6976
2.45274
2.22831
2.02275
1.8346
1.66251
1.50518
1.36144
1.23017
1.11034
1.00099
0.901216
0.810187
0.727126
0.651308
0.582062
0.51876
0.460816
0.407686
0.358858
0.313856
0.272229
0.233554
0.197432
0.163482
0.131341
0.100662
0.0711059
0.0423467
0.0140629
219.921
216.807
213.11
208.905
204.262
199.247
193.919
188.335
182.544
176.594
170.528
164.384
158.199
152.003
145.826
139.693
133.626
127.646
121.77
116.013
110.388
104.906
99.5769
94.4074
89.4036
84.57
79.9099
75.4252
71.1169
66.9851
63.029
59.2471
55.6371
52.1962
48.9211
45.8082
42.8533
40.052
37.3998
34.8918
32.5229
30.2882
28.1824
26.2004
24.3369
22.5868
20.9449
19.4062
17.9656
16.6183
15.3595
14.1846
13.089
12.0684
11.1185
10.2353
9.41479
8.65332
7.94725
7.29313
6.68768
6.12777
5.61044
5.13284
4.6923
4.2863
3.91243
3.56842
3.25216
2.96162
2.69493
2.45032
2.22611
2.02075
1.83279
1.66087
1.5037
1.3601
1.22896
1.10925
1
0.900327
0.809388
0.726409
0.650666
0.581488
0.518248
0.460362
0.407284
0.358505
0.313546
0.27196
0.233324
0.197237
0.163321
0.131212
0.100562
0.0710359
0.042305
0.014049
219.65
216.539
212.846
208.647
204.01
199.001
193.68
188.102
182.318
176.376
170.317
164.181
158.003
151.815
145.646
139.52
133.461
127.488
121.619
115.869
110.251
104.777
99.4539
94.2908
89.2932
84.4655
79.8111
75.332
71.029
66.9024
62.9512
59.1739
55.5683
52.1317
48.8607
45.7516
42.8003
40.0026
37.3536
34.8487
32.4828
30.2508
28.1476
26.168
24.3069
22.5589
20.9191
19.3822
17.9434
16.5978
15.3406
14.1671
13.0728
12.0535
11.1047
10.2226
9.40316
8.64263
7.93743
7.28412
6.67942
6.12021
5.60351
5.1265
4.68651
4.28101
3.90759
3.56402
3.24814
2.95797
2.69161
2.44729
2.22336
2.01826
1.83053
1.65882
1.50184
1.35842
1.22744
1.10788
0.998768
0.899216
0.808389
0.725512
0.649864
0.580771
0.517609
0.459794
0.406782
0.358063
0.31316
0.271625
0.233036
0.196994
0.16312
0.13105
0.100439
0.0709484
0.0422529
0.0140317
219.324
216.218
212.531
208.337
203.707
198.706
193.392
187.823
182.048
176.114
170.065
163.938
157.769
151.59
145.43
139.313
133.263
127.299
121.439
115.697
110.088
104.621
99.3063
94.1509
89.1606
84.3402
79.6927
75.2202
70.9236
66.8031
62.8577
59.0861
55.4859
52.0543
48.7882
45.6837
42.7368
39.9432
37.2982
34.797
32.4346
30.2059
28.1059
26.1292
24.2708
22.5255
20.888
19.3535
17.9168
16.5732
15.3178
14.1461
13.0534
12.0356
11.0883
10.2074
9.38921
8.62981
7.92566
7.27332
6.66951
6.11113
5.5952
5.1189
4.67956
4.27466
3.9018
3.55873
3.24333
2.95358
2.68762
2.44366
2.22007
2.01527
1.82782
1.65636
1.49961
1.3564
1.22562
1.10624
0.997288
0.897884
0.807191
0.724437
0.648901
0.579911
0.516842
0.459113
0.406179
0.357532
0.312696
0.271223
0.232691
0.196703
0.162878
0.130856
0.10029
0.0708433
0.0421904
0.014011
218.944
215.843
212.162
207.976
203.354
198.361
193.057
187.497
181.732
175.809
169.77
163.654
157.496
151.327
145.178
139.072
133.032
127.078
121.228
115.497
109.897
104.44
99.1342
93.9877
89.0061
84.194
79.5546
75.0898
70.8007
66.6873
62.7488
58.9837
55.3897
51.9641
48.7036
45.6045
42.6628
39.874
37.2336
34.7367
32.3784
30.1536
28.0572
26.0839
24.2288
22.4864
20.8518
19.3199
17.8858
16.5445
15.2913
14.1216
13.0308
12.0147
11.0691
10.1898
9.37295
8.61486
7.91193
7.26072
6.65796
6.10054
5.58551
5.11003
4.67146
4.26725
3.89504
3.55257
3.23771
2.94847
2.68296
2.43943
2.21622
2.01178
1.82465
1.65349
1.49702
1.35406
1.2235
1.10432
0.995562
0.89633
0.805795
0.723184
0.647778
0.578907
0.515948
0.458319
0.405477
0.356914
0.312155
0.270754
0.232289
0.196362
0.162597
0.13063
0.100116
0.0707209
0.0421174
0.0139868
218.51
215.415
211.742
207.564
202.951
197.968
192.674
187.125
181.372
175.461
169.433
163.329
157.183
151.027
144.89
138.796
132.768
126.826
120.988
115.268
109.679
104.233
98.9377
93.8014
88.8297
84.0271
79.3969
74.9409
70.6603
66.5551
62.6244
58.8667
55.2799
51.8611
48.6071
45.5141
42.5782
39.7949
37.1597
34.6678
32.3142
30.0938
28.0015
26.0322
24.1807
22.4418
20.8105
19.2816
17.8503
16.5117
15.261
14.0936
13.005
11.9909
11.0471
10.1696
9.35437
8.59779
7.89625
7.24633
6.64477
6.08845
5.57444
5.0999
4.6622
4.2588
3.88732
3.54553
3.23129
2.94263
2.67765
2.4346
2.21183
2.00779
1.82104
1.65021
1.49405
1.35137
1.22108
1.10213
0.99359
0.894555
0.804199
0.721752
0.646495
0.577761
0.514927
0.457412
0.404674
0.356207
0.311537
0.270218
0.231829
0.195974
0.162275
0.130372
0.0999183
0.0705809
0.0420341
0.0139591
218.022
214.934
211.269
207.1
202.498
197.526
192.244
186.708
180.967
175.069
169.055
162.965
156.832
150.69
144.566
138.486
132.472
126.543
120.718
115.011
109.434
104
98.7167
93.5919
88.6313
83.8395
79.2196
74.7736
70.5025
66.4065
62.4846
58.7353
55.1564
51.7453
48.4985
45.4125
42.4831
39.7061
37.0768
34.5904
32.242
30.0266
27.939
25.9741
24.1267
22.3917
20.764
19.2386
17.8105
16.4748
15.2269
14.0621
12.976
11.9641
11.0225
10.1469
9.33349
8.57859
7.87862
7.23015
6.62993
6.07486
5.56199
5.08852
4.65179
4.24929
3.87865
3.53762
3.22408
2.93606
2.67167
2.42917
2.2069
2.00331
1.81698
1.64653
1.49072
1.34836
1.21835
1.09967
0.991373
0.892559
0.802405
0.720142
0.645053
0.576472
0.513778
0.456391
0.403772
0.355413
0.310843
0.269615
0.231312
0.195537
0.161913
0.130081
0.0996956
0.0704236
0.0419404
0.013928
217.48
214.4
210.744
206.586
201.995
197.035
191.766
186.244
180.517
174.634
168.635
162.56
156.443
150.316
144.207
138.142
132.142
126.229
120.418
114.725
109.162
103.742
98.4714
93.3593
88.4111
83.6311
79.0227
74.5878
70.3273
66.2414
62.3293
58.5893
55.0194
51.6167
48.378
45.2996
42.3775
39.6074
36.9846
34.5044
32.1619
29.952
27.8696
25.9096
24.0668
22.3361
20.7124
19.1908
17.7662
16.4339
15.1891
14.0272
12.9437
11.9344
10.9951
10.1217
9.3103
8.55728
7.85905
7.21219
6.61346
6.05977
5.54818
5.07588
4.64024
4.23874
3.86901
3.52883
3.21607
2.92877
2.66504
2.42313
2.20141
1.99834
1.81246
1.64244
1.48702
1.34501
1.21533
1.09694
0.988912
0.890343
0.800413
0.718354
0.643452
0.575042
0.512503
0.455259
0.402769
0.354531
0.310071
0.268946
0.230738
0.195052
0.161511
0.129758
0.0994482
0.0702489
0.0418364
0.0138934
216.885
213.813
210.167
206.02
201.442
196.496
191.241
185.734
180.023
174.156
168.173
162.115
156.014
149.904
143.812
137.764
131.781
125.883
120.088
114.411
108.864
103.458
98.2018
93.1037
88.169
83.4022
78.8063
74.3836
70.1348
66.0601
62.1586
58.4289
54.8687
51.4754
48.2455
45.1756
42.2615
39.499
36.8834
34.41
32.0738
29.87
27.7933
25.8386
24.0009
22.275
20.6557
19.1383
17.7176
16.3889
15.1475
13.9888
12.9083
11.9017
10.965
10.094
9.28481
8.53386
7.83754
7.19245
6.59536
6.04319
5.53299
5.06199
4.62754
4.22714
3.85843
3.51917
3.20727
2.92075
2.65774
2.4165
2.19539
1.99287
1.80751
1.63795
1.48295
1.34133
1.212
1.09394
0.986207
0.887908
0.798224
0.716389
0.641692
0.573469
0.511101
0.454014
0.401668
0.353562
0.309223
0.268211
0.230107
0.194518
0.16107
0.129403
0.0991764
0.0700568
0.041722
0.0138554
216.236
213.173
209.538
205.404
200.839
195.908
190.669
185.178
179.485
173.635
167.67
161.63
155.548
149.456
143.382
137.351
131.386
125.506
119.729
114.068
108.538
103.148
97.908
92.8251
87.9052
83.1526
78.5705
74.161
69.9249
65.8624
61.9726
58.2541
54.7046
51.3213
48.1012
45.0404
42.1351
39.3808
36.773
34.307
31.9779
29.7806
27.7101
25.7613
23.9291
22.2083
20.5939
19.081
17.6646
16.3399
15.1022
13.9469
12.8697
11.8661
10.9322
10.0638
9.25704
8.50833
7.81409
7.17094
6.57563
6.02511
5.51644
5.04685
4.6137
4.2145
3.84689
3.50865
3.19768
2.91202
2.6498
2.40928
2.18883
1.98691
1.8021
1.63305
1.47852
1.33732
1.20838
1.09067
0.983259
0.885253
0.795838
0.714248
0.639774
0.571755
0.509574
0.452657
0.400468
0.352505
0.308299
0.267409
0.22942
0.193937
0.160588
0.129017
0.09888
0.0698475
0.0415973
0.013814
215.533
212.481
208.858
204.737
200.187
195.272
190.05
184.577
178.902
173.071
167.126
161.105
155.042
148.97
142.916
136.905
130.96
125.099
119.34
113.698
108.185
102.813
97.59
92.5236
87.6197
82.8825
78.3153
73.9201
69.6978
65.6485
61.7714
58.0649
54.5269
51.1547
47.945
44.8942
41.9982
39.2529
36.6536
34.1956
31.874
29.6839
27.6201
25.6777
23.8514
22.1362
20.5271
19.019
17.6072
16.2868
15.0531
13.9016
12.8279
11.8276
10.8967
10.0311
9.22698
8.4807
7.78872
7.14765
6.55428
6.00555
5.49853
5.03046
4.59872
4.20081
3.8344
3.49726
3.1873
2.90256
2.64119
2.40146
2.18172
1.98046
1.79625
1.62775
1.47372
1.33298
1.20446
1.08713
0.980068
0.882381
0.793255
0.71193
0.637698
0.5699
0.50792
0.451188
0.399168
0.351361
0.307299
0.266542
0.228675
0.193308
0.160067
0.128598
0.0985593
0.0696209
0.0414624
0.0137692
214.778
211.736
208.126
204.019
199.485
194.587
189.384
183.93
178.275
172.464
166.54
160.54
154.499
148.448
142.415
136.426
130.501
124.66
118.922
113.299
107.806
102.453
97.2479
92.1993
87.3126
82.592
78.0408
73.661
69.4535
65.4184
61.5548
57.8614
54.3358
50.9754
47.7769
44.7368
41.851
39.1153
36.5251
34.0757
31.7623
29.5799
27.5233
25.5877
23.7678
22.0586
20.4551
18.9524
17.5455
16.2297
15.0004
13.8529
12.7829
11.7862
10.8585
9.99592
9.19465
8.45099
7.76143
7.12261
6.53132
5.98451
5.47927
5.01284
4.5826
4.18609
3.82096
3.485
3.17613
2.89239
2.63194
2.39304
2.17408
1.97352
1.78996
1.62205
1.46855
1.32831
1.20024
1.08333
0.976635
0.87929
0.790477
0.709437
0.635465
0.567904
0.506142
0.449608
0.397771
0.350131
0.306223
0.265609
0.227875
0.192631
0.159507
0.128148
0.0982142
0.0693772
0.0413172
0.013721
213.97
210.939
207.342
203.251
198.734
193.855
188.671
183.237
177.604
171.815
165.913
159.936
153.917
147.889
141.879
135.912
130.009
124.191
118.474
112.873
107.4
102.067
96.8819
91.8523
86.9839
82.2811
77.7471
73.3837
69.1921
65.1722
61.3231
57.6436
54.1312
50.7835
47.5971
44.5684
41.6935
38.9681
36.3876
33.9475
31.6428
29.4685
27.4197
25.4914
23.6783
21.9756
20.3781
18.881
17.4795
16.1686
14.9439
13.8008
12.7348
11.7418
10.8176
9.9583
9.16004
8.41918
7.73222
7.0958
6.50674
5.96199
5.45865
4.99397
4.56536
4.17034
3.80659
3.47189
3.16418
2.88151
2.62204
2.38404
2.1659
1.9661
1.78322
1.61595
1.46303
1.32331
1.19572
1.07925
0.972962
0.875983
0.787504
0.706769
0.633075
0.565768
0.504238
0.447917
0.396275
0.348814
0.305072
0.26461
0.227018
0.191907
0.158907
0.127666
0.0978449
0.0691163
0.0411619
0.0136694
213.108
210.09
206.508
202.433
197.934
193.074
187.912
182.5
176.889
171.123
165.245
159.292
153.298
147.294
141.308
135.365
129.486
123.691
117.997
112.419
106.968
101.656
96.4919
91.4825
86.6338
81.9499
77.4341
73.0884
68.9136
64.9098
61.0763
57.4115
53.9134
50.5791
47.4055
44.389
41.5257
38.8112
36.2412
33.8108
31.5154
29.3499
27.3094
25.3888
23.583
21.8871
20.2961
18.805
17.4091
16.1036
14.8838
13.7452
12.6836
11.6946
10.7741
9.91823
9.12318
8.3853
7.7011
7.06725
6.48055
5.93799
5.43668
4.97388
4.54699
4.15356
3.79127
3.45792
3.15145
2.86992
2.61149
2.37445
2.15718
1.95819
1.77605
1.60945
1.45714
1.31799
1.19091
1.07491
0.969048
0.872459
0.784336
0.703926
0.630529
0.563493
0.50221
0.446116
0.394681
0.347412
0.303845
0.263546
0.226105
0.191135
0.158268
0.127153
0.0974515
0.0688384
0.0409964
0.0136145
212.194
209.189
205.622
201.565
197.085
192.246
187.106
181.717
176.13
170.389
164.537
158.609
152.641
146.663
140.702
134.784
128.931
123.161
117.491
111.936
106.509
101.22
96.0781
91.0902
86.2623
81.5985
77.1021
72.7749
68.6181
64.6315
60.8144
57.1653
53.6822
50.3622
47.2022
44.1987
41.3476
38.6448
36.0858
33.6659
31.3803
29.2241
27.1923
25.2799
23.4819
21.7933
20.2091
18.7244
17.3345
16.0345
14.8199
13.6863
12.6292
11.6444
10.7279
9.87571
9.08407
8.34935
7.66808
7.03695
6.45277
5.91254
5.41337
4.95256
4.5275
4.13576
3.77502
3.4431
3.13794
2.85762
2.6003
2.36427
2.14794
1.9498
1.76844
1.60255
1.4509
1.31234
1.18581
1.0703
0.964895
0.868721
0.780975
0.70091
0.627827
0.561078
0.500058
0.444204
0.39299
0.345923
0.302543
0.262417
0.225136
0.190316
0.15759
0.126608
0.097034
0.0685435
0.0408207
0.0135561
211.228
208.237
204.686
200.647
196.188
191.371
186.254
180.89
175.328
169.614
163.787
157.887
151.946
145.995
140.062
134.171
128.344
122.6
116.956
111.427
106.024
100.759
95.6407
90.6755
85.8695
81.227
76.751
72.4436
68.3056
64.3372
60.5375
56.9051
53.4377
50.1329
46.9873
43.9974
41.1593
38.4688
35.9215
33.5126
31.2374
29.091
27.0685
25.1648
23.375
21.6941
20.1171
18.6392
17.2555
15.9615
14.7525
13.624
12.5717
11.5914
10.6791
9.83075
9.04271
8.31134
7.63318
7.00491
6.4234
5.88562
5.38873
4.93001
4.50689
4.11693
3.75783
3.42743
3.12366
2.84461
2.58846
2.35351
2.13816
1.94092
1.76039
1.59526
1.4443
1.30637
1.18041
1.06543
0.960504
0.864767
0.777421
0.69772
0.62497
0.558525
0.497783
0.442183
0.391202
0.344349
0.301166
0.261223
0.224112
0.189451
0.156873
0.126032
0.0965925
0.0682317
0.040635
0.0134945
210.21
207.233
203.699
199.68
195.242
190.449
185.356
180.018
174.483
168.796
162.998
157.125
151.213
145.291
139.386
133.524
127.725
122.009
116.392
110.89
105.513
100.274
95.1796
90.2383
85.4555
80.8354
76.381
72.0943
67.9763
64.027
60.2457
56.6307
53.1801
49.8912
46.7608
43.7853
40.9609
38.2834
35.7483
33.351
31.0868
28.9508
26.938
25.0435
23.2623
21.5895
20.0201
18.5493
17.1724
15.8846
14.6814
13.5583
12.5111
11.5355
10.6276
9.78336
8.99912
8.27128
7.59638
6.97115
6.39244
5.85725
5.36276
4.90625
4.48517
4.09709
3.73972
3.41091
3.10861
2.8309
2.57599
2.34217
2.12786
1.93157
1.75191
1.58757
1.43734
1.30008
1.17472
1.0603
0.955876
0.860601
0.773676
0.694359
0.621959
0.555834
0.495385
0.440053
0.389317
0.34269
0.299716
0.259964
0.223033
0.188538
0.156118
0.125425
0.0961273
0.067903
0.0404393
0.0134295
209.14
206.178
202.662
198.663
194.248
189.479
184.412
179.101
173.595
167.937
162.168
156.326
150.443
144.551
138.677
132.844
127.075
121.388
115.8
110.325
104.976
99.7631
94.695
89.7789
85.0204
80.4238
75.9921
71.7273
67.6303
63.7011
59.9389
56.3424
52.9094
49.6372
46.5227
43.5624
40.7524
38.0885
35.5663
33.1812
30.9285
28.8034
26.8008
24.916
23.1439
21.4796
19.9182
18.4549
17.0849
15.8037
14.6066
13.4893
12.4474
11.4768
10.5735
9.73356
8.95332
8.22918
7.55772
6.93567
6.3599
5.82744
5.33546
4.88128
4.46234
4.07624
3.72069
3.39355
3.09279
2.81649
2.56288
2.33025
2.11703
1.92174
1.74299
1.57949
1.43002
1.29346
1.16875
1.0549
0.951012
0.856222
0.769739
0.690825
0.618794
0.553006
0.492864
0.437814
0.387337
0.340947
0.298191
0.258642
0.221898
0.187579
0.155323
0.124787
0.0956382
0.0675576
0.0402336
0.0133611
208.018
205.072
201.575
197.598
193.206
188.463
183.423
178.141
172.664
167.036
161.298
155.487
149.636
143.776
137.933
132.132
126.393
120.737
115.179
109.733
104.413
99.2279
94.1871
89.2974
84.5644
79.9925
75.5845
71.3426
67.2675
63.3594
59.6174
56.0402
52.6256
49.371
46.2732
43.3288
40.5338
37.8842
35.3755
33.0033
30.7627
28.6489
26.6571
24.7824
23.0198
21.3644
19.8114
18.3559
16.9933
15.7189
14.5283
13.4169
12.3806
11.4153
10.5168
9.68136
8.9053
8.18504
7.51719
6.89847
6.32579
5.79619
5.30685
4.8551
4.43841
4.05438
3.70074
3.37535
3.0762
2.80139
2.54913
2.31775
2.10568
1.91144
1.73365
1.57102
1.42235
1.28652
1.16248
1.04925
0.945913
0.851631
0.765612
0.687122
0.615477
0.550041
0.490222
0.435467
0.38526
0.339119
0.296592
0.257255
0.220708
0.186573
0.154491
0.124118
0.0951256
0.0671955
0.0400179
0.0132895
206.845
203.916
200.438
196.483
192.117
187.4
182.389
177.136
171.69
166.094
160.388
154.61
148.792
142.965
137.155
131.386
125.68
120.056
114.529
109.114
103.824
98.6684
93.6559
88.7938
84.0875
79.5413
75.1583
70.9402
66.8882
63.0021
59.2812
55.7242
52.3288
49.0925
46.0122
43.0844
40.3052
37.6706
35.1761
32.8172
30.5892
28.4873
26.5068
24.6426
22.8899
21.2439
19.6996
18.2524
16.8975
15.6303
14.4464
13.3413
12.3108
11.3509
10.4575
9.62677
8.85509
8.13889
7.4748
6.85957
6.29012
5.76351
5.27693
4.82773
4.41338
4.03152
3.67987
3.35632
3.05886
2.7856
2.53476
2.30469
2.09381
1.90066
1.72387
1.56216
1.41434
1.27927
1.15593
1.04333
0.940581
0.846831
0.761296
0.683249
0.612008
0.546941
0.487459
0.433013
0.383089
0.337208
0.294921
0.255805
0.219464
0.185522
0.15362
0.123418
0.0945895
0.0668167
0.0397924
0.0132146
205.621
202.709
199.252
195.321
190.98
186.291
181.309
176.088
170.674
165.111
159.439
153.695
147.912
142.119
136.343
130.609
124.937
119.345
113.851
108.469
103.21
98.0844
93.1017
88.2683
83.5899
79.0706
74.7135
70.5204
66.4923
62.6292
58.9304
55.3944
52.0191
48.802
45.7399
42.8294
40.0667
37.4476
34.9679
32.6229
30.4082
28.3188
26.3499
24.4968
22.7545
21.1182
19.5831
18.1444
16.7975
15.5378
14.3609
13.2623
12.238
11.2837
10.3956
9.5698
8.80269
8.09073
7.43057
6.81898
6.2529
5.7294
5.2457
4.79916
4.38727
4.00766
3.6581
3.33646
3.04076
2.76911
2.51976
2.29105
2.08142
1.88941
1.71367
1.55292
1.40597
1.2717
1.14909
1.03716
0.935017
0.841821
0.756793
0.679207
0.608387
0.543706
0.484576
0.430451
0.380823
0.335213
0.293176
0.254292
0.218166
0.184424
0.152711
0.122688
0.09403
0.0664215
0.039557
0.0131365
204.346
201.452
198.017
194.11
189.796
185.136
180.185
174.996
169.616
164.087
158.451
152.742
146.995
141.238
135.498
129.799
124.162
118.605
113.145
107.796
102.57
97.4763
92.5244
87.721
83.0716
78.5804
74.2503
70.0832
66.0801
62.2409
58.565
55.051
51.6966
48.4994
45.4563
42.5639
39.8183
37.2155
34.7511
32.4207
30.2196
28.1432
26.1865
24.3449
22.6134
20.9873
19.4617
18.0319
16.6934
15.4415
14.2718
13.1801
12.1621
11.2138
10.3311
9.51047
8.74811
8.04057
7.3845
6.77671
6.21414
5.69389
5.21319
4.76941
4.36007
3.98282
3.63542
3.31578
3.02191
2.75195
2.50414
2.27685
2.06852
1.8777
1.70305
1.5433
1.39725
1.26382
1.14197
1.03073
0.929221
0.836603
0.752102
0.674997
0.604617
0.540336
0.481572
0.427783
0.378462
0.333136
0.291359
0.252716
0.216814
0.183282
0.151765
0.121928
0.0934473
0.0660099
0.0393119
0.0130551
203.021
200.146
196.732
192.851
188.565
183.935
179.017
173.861
168.515
163.023
157.423
151.752
146.041
140.322
134.619
128.957
123.357
117.836
112.412
107.097
101.904
96.8441
91.9243
87.1521
82.5329
78.0707
73.7687
69.6287
65.6515
61.8373
58.1852
54.6939
51.3613
48.1849
45.1615
42.2879
39.5601
36.9741
34.5257
32.2104
30.0236
27.9607
26.0167
24.187
22.4668
20.8511
19.3354
17.915
16.5851
15.3413
14.1793
13.0946
12.0832
11.141
10.2641
9.4488
8.69138
7.98843
7.33662
6.73277
6.17384
5.65696
5.17938
4.73848
4.3318
3.95699
3.61185
3.29428
3.00231
2.7341
2.48791
2.26208
2.0551
1.86553
1.69201
1.53329
1.38819
1.25563
1.13456
1.02405
0.923197
0.831179
0.747226
0.670621
0.600697
0.536833
0.47845
0.42501
0.376009
0.330976
0.289471
0.251078
0.215409
0.182093
0.150781
0.121138
0.0928416
0.065582
0.0390571
0.0129704
201.645
198.79
195.4
191.544
187.287
182.689
177.804
172.683
167.374
161.919
156.357
150.724
145.052
139.371
133.707
128.084
122.521
117.038
111.65
106.371
101.214
96.188
91.3016
86.5617
81.9737
77.5418
73.269
69.157
65.2067
61.4183
57.791
54.3234
51.0134
47.8585
44.8556
42.0014
39.2921
36.7236
34.2918
31.9922
29.8202
27.7712
25.8405
24.0232
22.3146
20.7099
19.2045
17.7936
16.4727
15.2374
14.0832
13.0059
12.0014
11.0656
10.1946
9.38479
8.63251
7.93432
7.28692
6.68716
6.13202
5.61865
5.1443
4.70639
4.30246
3.93019
3.58738
3.27196
2.98198
2.71559
2.47106
2.24676
2.04118
1.85289
1.68055
1.5229
1.37879
1.24712
1.12688
1.01711
0.916944
0.82555
0.742166
0.666079
0.596629
0.533197
0.47521
0.422132
0.373463
0.328735
0.28751
0.249378
0.21395
0.18086
0.14976
0.120317
0.0922129
0.0651379
0.0387926
0.0128826
200.22
197.385
194.019
190.19
185.964
181.398
176.547
171.463
166.191
160.774
155.252
149.658
144.027
138.386
132.762
127.178
121.655
116.211
110.861
105.62
100.499
95.5082
90.6563
85.9499
81.3944
76.9938
72.7511
68.6682
64.7459
60.9843
57.3826
53.9395
50.6529
47.5202
44.5386
41.7045
39.0144
36.4641
34.0495
31.7661
29.6095
27.575
25.6579
23.8534
22.1569
20.5635
19.0687
17.6678
16.3563
15.1297
13.9837
12.914
11.9166
10.9874
10.1226
9.31847
8.5715
7.87825
7.23542
6.6399
6.08869
5.57894
5.10794
4.67313
4.27205
3.90242
3.56203
3.24884
2.96091
2.6964
2.45359
2.23089
2.02676
1.8398
1.66867
1.51214
1.36905
1.23831
1.11892
1.00993
0.910466
0.819717
0.736922
0.661373
0.592413
0.52943
0.471853
0.41915
0.370824
0.326412
0.285479
0.247616
0.212439
0.179583
0.148702
0.119467
0.0915614
0.0646778
0.0385185
0.0127916
198.746
195.931
192.59
188.79
184.594
180.062
175.247
170.2
164.967
159.59
154.108
148.556
142.966
137.367
131.785
126.242
120.759
115.355
110.045
104.842
99.7587
94.8048
89.9887
85.3169
80.7949
76.4268
72.2153
68.1625
64.2691
60.5352
56.96
53.5422
50.2798
47.1703
44.2106
41.3974
38.727
36.1955
33.7987
31.5322
29.3914
27.3719
25.4689
23.6777
21.9937
20.4121
18.9283
17.5377
16.2359
15.0183
13.8807
12.8189
11.8288
10.9065
10.048
9.24985
8.50838
7.82023
7.18214
6.59101
6.04385
5.53786
5.07033
4.63872
4.2406
3.87368
3.5358
3.22492
2.9391
2.67654
2.43553
2.21446
2.01184
1.82625
1.65639
1.50101
1.35897
1.22919
1.11068
1.00249
0.903762
0.813682
0.731496
0.656504
0.588052
0.525532
0.468379
0.416064
0.368094
0.324009
0.283377
0.245793
0.210875
0.178261
0.147608
0.118588
0.0908874
0.0642016
0.038235
0.0126974
197.222
194.429
191.113
187.342
183.179
178.682
173.904
168.895
163.702
158.367
152.927
147.417
141.87
136.314
130.774
125.274
119.833
114.471
109.201
104.038
98.9939
94.0781
89.2988
84.6629
80.1756
75.8409
71.6617
67.6399
63.7764
60.0711
56.5234
53.1318
49.8944
46.8087
43.8717
41.0801
38.4302
35.9181
33.5396
31.2905
29.1661
27.1621
25.2737
23.4962
21.8251
20.2556
18.7832
17.4033
16.1114
14.9032
13.7743
12.7207
11.7381
10.8229
9.97101
9.17895
8.44316
7.76029
7.12709
6.54048
5.99753
5.49541
5.03146
4.60316
4.20809
3.84399
3.5087
3.2002
2.91658
2.65603
2.41686
2.19749
1.99642
1.81225
1.64369
1.4895
1.34855
1.21977
1.10217
0.994808
0.896836
0.807446
0.72589
0.651472
0.583545
0.521505
0.464789
0.412875
0.365273
0.321526
0.281206
0.24391
0.209259
0.176894
0.146476
0.117679
0.0901909
0.0637096
0.037942
0.0126001
195.65
192.879
189.59
185.849
181.719
177.257
172.517
167.549
162.397
157.104
151.708
146.242
140.739
135.227
129.732
124.275
118.878
113.558
108.33
103.209
98.2048
93.3281
88.587
83.988
79.5364
75.2363
71.0905
67.1007
63.268
59.5922
56.0728
52.7082
49.4966
46.4355
43.5219
40.7526
38.1238
35.6317
33.2722
31.041
28.9336
26.9455
25.0722
23.3089
21.6511
20.0942
18.6335
17.2646
15.983
14.7844
13.6645
12.6193
11.6446
10.7366
9.89152
9.10578
8.37586
7.69843
7.07028
6.48835
5.94972
5.4516
4.99136
4.56647
4.17455
3.81335
3.48073
3.17469
2.89333
2.63486
2.3976
2.17997
1.9805
1.79781
1.63059
1.47763
1.33781
1.21005
1.09338
0.986879
0.889688
0.80101
0.720105
0.64628
0.578894
0.517348
0.461085
0.409585
0.362362
0.318964
0.278965
0.241966
0.207591
0.175485
0.145309
0.116741
0.0894721
0.0632019
0.0376396
0.0124997
194.029
191.282
188.02
184.31
180.214
175.789
171.088
166.161
161.052
155.803
150.451
145.031
139.574
134.107
128.657
123.246
117.894
112.617
107.433
102.354
97.3914
92.5551
87.8532
83.2923
78.8777
74.6132
70.5017
66.545
62.7439
59.0986
55.6083
52.2717
49.0867
46.0509
43.1615
40.415
37.808
35.3366
32.9967
30.7839
28.694
26.7224
24.8645
23.1159
21.4718
19.9277
18.4791
17.1216
15.8506
14.6619
13.5513
12.5147
11.5481
10.6477
9.8096
9.03036
8.30649
7.63467
7.01172
6.43461
5.90044
5.40645
4.95002
4.52865
4.13998
3.78177
3.45191
3.1484
2.86937
2.61303
2.37774
2.16192
1.9641
1.78292
1.61709
1.4654
1.32673
1.20003
1.08433
0.978706
0.88232
0.794377
0.714141
0.640928
0.574101
0.513064
0.457267
0.406193
0.359361
0.316322
0.276655
0.239962
0.205872
0.174032
0.144106
0.115775
0.0887313
0.0626786
0.0373279
0.0123962
192.361
189.637
186.403
182.725
178.664
174.277
169.617
164.732
159.667
154.463
149.157
143.784
138.373
132.954
127.551
122.186
116.88
111.649
106.509
101.474
96.5539
91.7592
87.0978
82.5761
78.1994
73.9716
69.8954
65.9728
62.2044
58.5905
55.1302
51.8222
48.6646
45.6549
42.7903
40.0675
37.483
35.0328
32.7129
30.5192
28.4473
26.4926
24.6507
22.9171
21.2872
19.7564
18.3203
16.9744
15.7143
14.5359
13.4348
12.4071
11.4488
10.5561
9.72525
8.95272
8.23507
7.56903
6.95143
6.37929
5.84971
5.35997
4.90746
4.48971
4.10438
3.74925
3.42223
3.12133
2.8447
2.59057
2.3573
2.14333
1.94722
1.76759
1.60318
1.4528
1.31532
1.18971
1.075
0.970292
0.874735
0.787548
0.708002
0.635418
0.569165
0.508654
0.453336
0.402701
0.356272
0.313603
0.274276
0.237899
0.204102
0.172536
0.142867
0.11478
0.0879685
0.0621398
0.037007
0.0122896
190.645
187.945
184.74
181.095
177.07
172.723
168.104
163.263
158.243
153.086
147.827
142.501
137.139
131.768
126.413
121.096
115.837
110.653
105.559
100.569
95.6927
90.9408
86.3209
81.8396
77.5019
73.3118
69.272
65.3843
61.6496
58.0679
54.6384
51.36
48.2305
45.2477
42.4086
39.7101
37.1486
34.7203
32.4212
30.247
28.1935
26.2563
24.4309
22.7127
21.0973
19.5802
18.1568
16.823
15.5742
14.4062
13.315
12.2965
11.3467
10.462
9.63851
8.87286
8.16162
7.50151
6.88943
6.32239
5.79754
5.31216
4.86369
4.44967
4.06777
3.71581
3.39171
3.09349
2.81933
2.56746
2.33627
2.12421
1.92985
1.75183
1.58889
1.43984
1.30359
1.1791
1.06542
0.961639
0.866933
0.780524
0.701688
0.629752
0.564089
0.504117
0.449293
0.39911
0.353095
0.310806
0.27183
0.235778
0.202282
0.170997
0.141593
0.113756
0.087184
0.0615856
0.036677
0.0121801
188.882
186.207
183.032
179.42
175.433
171.126
166.55
161.753
156.78
151.67
146.46
141.184
135.871
130.55
125.244
119.977
114.766
109.63
104.583
99.6387
94.8078
90.0998
85.5227
81.0828
76.7852
72.6339
68.6314
64.7797
61.0795
57.5309
54.1332
50.885
47.7845
44.8293
42.0165
39.3429
36.8051
34.3992
32.1214
29.9673
27.9328
26.0135
24.2049
22.5027
20.9022
19.3991
17.989
16.6674
15.4301
14.273
13.1919
12.1828
11.2418
10.3652
9.54939
8.79082
8.08615
7.43215
6.82573
6.26393
5.74393
5.26304
4.81872
4.40852
4.03016
3.68146
3.36035
3.06489
2.79326
2.54372
2.31467
2.10457
1.91201
1.73563
1.5742
1.42653
1.29154
1.1682
1.05557
0.952748
0.858918
0.773308
0.695201
0.623929
0.558874
0.499457
0.445139
0.39542
0.349831
0.307933
0.269317
0.233598
0.200412
0.169416
0.140284
0.112704
0.086378
0.0610163
0.036338
0.0120675
187.073
184.423
181.278
177.702
173.752
169.486
164.954
160.204
155.278
150.217
145.057
139.831
134.569
129.299
124.044
118.827
113.667
108.58
103.581
98.6842
93.8996
89.2367
84.7034
80.306
76.0496
71.938
67.9739
64.1591
60.4944
56.9798
53.6146
50.3976
47.3268
44.3998
41.614
38.966
36.4525
34.0697
31.8136
29.6802
27.6652
25.7643
23.9731
22.2871
20.702
19.2133
17.8166
16.5077
15.2823
14.1363
13.0655
12.0661
11.1341
10.2659
9.45791
8.70661
8.00869
7.36096
6.76034
6.20392
5.68891
5.21263
4.77256
4.36629
3.99156
3.64619
3.32816
3.03553
2.7665
2.51936
2.2925
2.08441
1.89369
1.71901
1.55912
1.41286
1.27917
1.15701
1.04546
0.943622
0.850691
0.765901
0.688542