/*--------------------------------*- C++ -*----------------------------------*\
| =========                 |                                                 |
| \\      /  F ield         | OpenFOAM: The Open Source CFD Toolbox           |
|  \\    /   O peration     | Version:  2406                                  |
|   \\  /    A nd           | Website:  www.openfoam.com                      |
|    \\/     M anipulation  |                                                 |
\*---------------------------------------------------------------------------*/
FoamFile
{
    version     2.0;
    format      ascii;
    arch        "LSB;label=32;scalar=64";
    class       volScalarField;
    location    "95";
    object      gradTx;
}
// * * * * * * * * * * * * * * * * * * * * * * * * * * * * * * * * * * * * * //

dimensions      [0 -1 0 1 0 0 0];

internalField   nonuniform List<scalar> 
20000
(
-1.39482
-1.70712
-1.98079
-2.21759
-2.42012
-2.59239
-2.73555
-2.85102
-2.9422
-3.0114
-3.06021
-3.09026
-3.10331
-3.10115
-3.08544
-3.05769
-3.01929
-2.97154
-2.91561
-2.85263
-2.78363
-2.70958
-2.63136
-2.54977
-2.46558
-2.37946
-2.29201
-2.20381
-2.11536
-2.02709
-1.93941
-1.85268
-1.7672
-1.68324
-1.60104
-1.5208
-1.44268
-1.36682
-1.29334
-1.22231
-1.15381
-1.08788
-1.02454
-0.963812
-0.905688
-0.85015
-0.797172
-0.746715
-0.698734
-0.653174
-0.609976
-0.569074
-0.5304
-0.49388
-0.45944
-0.427001
-0.396486
-0.367816
-0.34091
-0.31569
-0.292077
-0.269994
-0.249364
-0.230114
-0.212171
-0.195464
-0.179924
-0.165485
-0.152084
-0.139659
-0.128151
-0.117503
-0.107663
-0.0985779
-0.0902001
-0.0824831
-0.075383
-0.0688587
-0.0628712
-0.0573837
-0.0523621
-0.0477741
-0.0435897
-0.0397809
-0.0363218
-0.0331883
-0.0303582
-0.0278113
-0.0255288
-0.0234937
-0.0216908
-0.0201064
-0.018728
-0.017545
-0.0165481
-0.0157293
-0.015082
-0.0146011
-0.0142827
-0.014124
-4.18457
-5.12113
-5.94097
-6.65207
-7.26065
-7.77646
-8.20527
-8.55229
-8.82618
-9.03367
-9.17989
-9.26992
-9.30908
-9.30264
-9.25554
-9.17232
-9.05715
-8.91389
-8.74612
-8.55719
-8.35022
-8.12807
-7.89342
-7.64869
-7.39614
-7.13778
-6.87548
-6.6109
-6.34555
-6.08077
-5.81776
-5.55758
-5.30116
-5.04931
-4.80274
-4.56203
-4.32769
-4.10013
-3.87969
-3.66663
-3.46114
-3.26336
-3.07337
-2.8912
-2.71684
-2.55024
-2.39132
-2.23996
-2.09603
-1.95936
-1.82978
-1.70708
-1.59107
-1.48152
-1.37821
-1.2809
-1.18936
-1.10336
-1.02265
-0.946991
-0.876158
-0.809914
-0.748032
-0.690287
-0.636461
-0.586343
-0.539727
-0.496415
-0.456214
-0.418942
-0.38442
-0.35248
-0.322961
-0.295709
-0.270578
-0.247429
-0.226131
-0.206559
-0.188598
-0.172137
-0.157073
-0.143311
-0.130758
-0.119333
-0.108956
-0.0995567
-0.0910673
-0.083427
-0.07658
-0.0704754
-0.0650672
-0.0603141
-0.0561794
-0.0526308
-0.0496403
-0.047184
-0.0452424
-0.0437998
-0.0428445
-0.0423687
-6.97327
-8.5343
-9.89998
-11.0849
-12.0997
-12.9585
-13.6726
-14.2514
-14.7082
-15.0539
-15.2973
-15.4472
-15.5125
-15.5018
-15.4233
-15.2847
-15.0928
-14.8541
-14.5745
-14.2597
-13.9147
-13.5446
-13.1535
-12.7457
-12.3249
-11.8943
-11.4572
-11.0164
-10.5742
-10.1329
-9.69467
-9.26111
-8.83381
-8.41414
-8.00325
-7.60213
-7.21163
-6.83243
-6.46509
-6.11004
-5.76762
-5.43804
-5.12144
-4.81787
-4.52732
-4.2497
-3.98488
-3.73265
-3.49281
-3.26506
-3.04913
-2.84467
-2.65134
-2.46879
-2.29663
-2.13448
-1.98194
-1.83862
-1.70413
-1.57806
-1.46002
-1.34964
-1.24651
-1.15029
-1.06059
-0.977078
-0.899398
-0.827222
-0.760232
-0.698121
-0.640595
-0.587371
-0.538181
-0.492768
-0.450889
-0.412314
-0.376822
-0.344209
-0.314278
-0.286848
-0.261746
-0.238812
-0.217895
-0.198856
-0.181564
-0.165901
-0.151754
-0.139022
-0.127612
-0.11744
-0.108428
-0.100507
-0.093617
-0.0877036
-0.0827202
-0.0786271
-0.0753917
-0.0729878
-0.0713958
-0.070603
-9.75978
-11.9451
-13.857
-15.515
-16.9354
-18.1373
-19.1366
-19.9471
-20.5867
-21.0704
-21.4109
-21.6206
-21.712
-21.6971
-21.5873
-21.3933
-21.1247
-20.7906
-20.3993
-19.9586
-19.4758
-18.9577
-18.4104
-17.8396
-17.2506
-16.648
-16.0362
-15.4191
-14.8002
-14.1826
-13.5692
-12.9624
-12.3643
-11.7769
-11.2018
-10.6404
-10.0938
-9.56304
-9.04889
-8.55195
-8.07267
-7.61137
-7.16824
-6.74336
-6.33669
-5.94811
-5.57745
-5.22443
-4.88872
-4.56996
-4.26772
-3.98155
-3.71097
-3.45546
-3.21449
-2.98753
-2.77404
-2.57344
-2.38519
-2.20874
-2.04353
-1.88902
-1.74469
-1.61001
-1.48447
-1.36757
-1.25885
-1.15783
-1.06406
-0.977129
-0.896611
-0.822116
-0.753267
-0.689705
-0.631089
-0.577097
-0.527421
-0.481773
-0.439881
-0.401488
-0.366354
-0.334254
-0.304977
-0.278329
-0.254127
-0.232204
-0.212403
-0.194583
-0.178613
-0.164375
-0.151761
-0.140675
-0.131031
-0.122755
-0.11578
-0.110051
-0.105522
-0.102158
-0.0999296
-0.0988199
-12.5438
-15.3527
-17.8104
-19.9412
-21.767
-23.3116
-24.5959
-25.6379
-26.4602
-27.0818
-27.5192
-27.7887
-27.9061
-27.887
-27.746
-27.4967
-27.1515
-26.722
-26.219
-25.6526
-25.0321
-24.3662
-23.6627
-22.9291
-22.172
-21.3975
-20.6112
-19.818
-19.0226
-18.2288
-17.4404
-16.6604
-15.8917
-15.1367
-14.3975
-13.676
-12.9735
-12.2913
-11.6305
-10.9917
-10.3757
-9.78283
-9.21328
-8.66718
-8.14449
-7.64506
-7.16865
-6.71491
-6.28343
-5.87373
-5.48527
-5.11745
-4.76967
-4.44127
-4.13156
-3.83985
-3.56544
-3.30762
-3.06566
-2.83887
-2.62653
-2.42794
-2.24243
-2.06933
-1.90797
-1.75773
-1.61798
-1.48814
-1.36763
-1.2559
-1.15241
-1.05666
-0.968167
-0.886472
-0.811134
-0.741737
-0.67789
-0.619219
-0.565376
-0.516029
-0.470872
-0.429614
-0.391985
-0.357734
-0.326628
-0.298449
-0.273
-0.250096
-0.22957
-0.21127
-0.195057
-0.180809
-0.168414
-0.157776
-0.148811
-0.141448
-0.135627
-0.131303
-0.128439
-0.127013
-15.3249
-18.7565
-21.7593
-24.3625
-26.5931
-28.4803
-30.0492
-31.3225
-32.3271
-33.0864
-33.6207
-33.9498
-34.0933
-34.07
-33.8979
-33.5933
-33.1715
-32.6468
-32.0323
-31.3403
-30.5823
-29.7687
-28.9092
-28.0129
-27.0879
-26.1417
-25.1811
-24.2121
-23.2402
-22.2705
-21.3072
-20.3543
-19.4152
-18.4928
-17.5898
-16.7082
-15.8499
-15.0165
-14.2092
-13.4288
-12.6762
-11.9519
-11.256
-10.5889
-9.95028
-9.34012
-8.75807
-8.20374
-7.67659
-7.17605
-6.70146
-6.25209
-5.8272
-5.42598
-5.0476
-4.69122
-4.35597
-4.04098
-3.74538
-3.4683
-3.20888
-2.96627
-2.73963
-2.52814
-2.331
-2.14745
-1.97672
-1.81809
-1.67086
-1.53435
-1.40792
-1.29094
-1.18283
-1.08302
-0.990978
-0.906195
-0.828191
-0.756512
-0.69073
-0.630443
-0.575273
-0.524868
-0.478896
-0.437051
-0.399047
-0.364621
-0.333529
-0.305547
-0.280471
-0.258113
-0.238306
-0.220898
-0.205754
-0.192758
-0.181805
-0.172809
-0.165699
-0.160415
-0.156916
-0.155174
-18.1023
-22.1558
-25.7028
-28.7778
-31.4128
-33.6419
-35.4951
-36.9993
-38.186
-39.0828
-39.7139
-40.1026
-40.2721
-40.2447
-40.0413
-39.6816
-39.1834
-38.5636
-37.8377
-37.0203
-36.1249
-35.1638
-34.1486
-33.0898
-31.9972
-30.8795
-29.7447
-28.6001
-27.4522
-26.3067
-25.1688
-24.0432
-22.9339
-21.8444
-20.7776
-19.7363
-18.7225
-17.738
-16.7843
-15.8626
-14.9736
-14.118
-13.296
-12.5079
-11.7536
-11.0329
-10.3453
-9.69054
-9.06785
-8.4766
-7.91599
-7.38519
-6.88329
-6.40936
-5.96241
-5.54143
-5.14542
-4.77335
-4.42418
-4.09688
-3.79044
-3.50386
-3.23614
-2.98632
-2.75346
-2.53664
-2.33497
-2.1476
-1.97368
-1.81243
-1.66308
-1.5249
-1.3972
-1.2793
-1.17058
-1.07043
-0.978289
-0.893619
-0.815915
-0.744702
-0.679533
-0.619992
-0.565689
-0.51626
-0.471369
-0.430704
-0.393977
-0.360923
-0.331302
-0.304892
-0.281495
-0.260932
-0.243044
-0.227692
-0.214755
-0.204129
-0.195729
-0.189488
-0.185355
-0.183297
-20.8752
-25.5496
-29.6399
-33.186
-36.2247
-38.7952
-40.9322
-42.667
-44.0355
-45.0696
-45.7972
-46.2455
-46.4409
-46.4094
-46.1749
-45.7601
-45.1856
-44.4708
-43.6338
-42.6912
-41.6585
-40.5502
-39.3795
-38.1586
-36.8986
-35.6097
-34.3011
-32.9811
-31.6573
-30.3364
-29.0242
-27.7262
-26.447
-25.1905
-23.9604
-22.7595
-21.5904
-20.4551
-19.3554
-18.2924
-17.2673
-16.2806
-15.3327
-14.4239
-13.554
-12.7229
-11.9301
-11.1749
-10.4569
-9.77506
-9.12857
-8.51646
-7.93769
-7.39115
-6.87574
-6.39028
-5.93361
-5.50454
-5.10188
-4.72445
-4.37107
-4.04058
-3.73186
-3.44377
-3.17524
-2.92521
-2.69265
-2.47657
-2.27601
-2.09006
-1.91784
-1.75849
-1.61122
-1.47527
-1.34989
-1.2344
-1.12814
-1.03051
-0.940899
-0.858777
-0.783625
-0.714964
-0.652342
-0.595342
-0.543574
-0.49668
-0.454327
-0.41621
-0.382051
-0.351596
-0.324615
-0.300902
-0.280275
-0.262571
-0.247651
-0.235398
-0.225711
-0.218515
-0.213749
-0.211375
-23.643
-28.9372
-33.5698
-37.586
-41.0276
-43.939
-46.3593
-48.3241
-49.8742
-51.0452
-51.8693
-52.3769
-52.5983
-52.5626
-52.2972
-51.8273
-51.1767
-50.3671
-49.4191
-48.3515
-47.1819
-45.9267
-44.6007
-43.2179
-41.7909
-40.3311
-38.849
-37.354
-35.8547
-34.3586
-32.8725
-31.4023
-29.9535
-28.5305
-27.1372
-25.7771
-24.453
-23.1672
-21.9217
-20.7178
-19.5567
-18.4392
-17.3657
-16.3363
-15.3511
-14.4098
-13.5118
-12.6566
-11.8433
-11.0711
-10.3389
-9.64564
-8.99012
-8.37112
-7.78737
-7.23755
-6.72033
-6.23437
-5.77832
-5.35085
-4.95061
-4.57631
-4.22665
-3.90037
-3.59624
-3.31306
-3.04966
-2.80493
-2.57778
-2.36718
-2.17212
-1.99165
-1.82485
-1.67087
-1.52887
-1.39807
-1.27772
-1.16714
-1.06565
-0.97264
-0.887524
-0.809759
-0.738834
-0.674277
-0.615645
-0.562533
-0.514565
-0.471395
-0.432707
-0.398213
-0.367655
-0.340798
-0.317436
-0.297385
-0.280487
-0.266609
-0.255638
-0.247487
-0.24209
-0.239401
-26.4049
-32.3176
-37.4914
-41.9767
-45.8205
-49.0719
-51.7749
-53.9693
-55.7005
-57.0083
-57.9285
-58.4954
-58.7427
-58.7029
-58.4065
-57.8818
-57.1551
-56.251
-55.1922
-53.9999
-52.6937
-51.2918
-49.811
-48.2666
-46.6729
-45.0425
-43.3873
-41.7177
-40.0432
-38.3723
-36.7126
-35.0707
-33.4526
-31.8634
-30.3074
-28.7884
-27.3096
-25.8736
-24.4825
-23.138
-21.8413
-20.5932
-19.3943
-18.2447
-17.1444
-16.0931
-15.0903
-14.1351
-13.2269
-12.3644
-11.5467
-10.7724
-10.0403
-9.34903
-8.69708
-8.08303
-7.50539
-6.96266
-6.45334
-5.97593
-5.52894
-5.11091
-4.72041
-4.35601
-4.01635
-3.70008
-3.40592
-3.1326
-2.87892
-2.64371
-2.42586
-2.22431
-2.03803
-1.86606
-1.70747
-1.56139
-1.42699
-1.30348
-1.19014
-1.08626
-0.991205
-0.904355
-0.825145
-0.753045
-0.687565
-0.628248
-0.574676
-0.526463
-0.483255
-0.444733
-0.410605
-0.380611
-0.354519
-0.332125
-0.313254
-0.297754
-0.285502
-0.276399
-0.270371
-0.267369
-29.1603
-35.6901
-41.4038
-46.3571
-50.602
-54.1927
-57.1777
-59.6012
-61.513
-62.9573
-63.9734
-64.5995
-64.8727
-64.8287
-64.5014
-63.9219
-63.1195
-62.121
-60.9517
-59.635
-58.1924
-56.6442
-55.0089
-53.3034
-51.5433
-49.7428
-47.9149
-46.071
-44.2218
-42.3765
-40.5436
-38.7305
-36.9435
-35.1884
-33.47
-31.7925
-30.1594
-28.5736
-27.0373
-25.5525
-24.1205
-22.7422
-21.4181
-20.1486
-18.9335
-17.7725
-16.665
-15.6102
-14.6071
-13.6547
-12.7516
-11.8966
-11.0881
-10.3246
-9.60465
-8.92652
-8.2886
-7.68923
-7.12676
-6.59953
-6.1059
-5.64425
-5.213
-4.81058
-4.43547
-4.0862
-3.76134
-3.45949
-3.17934
-2.91959
-2.67901
-2.45642
-2.25071
-2.06079
-1.88565
-1.72432
-1.5759
-1.4395
-1.31433
-1.19962
-1.09464
-0.998727
-0.911251
-0.831628
-0.759315
-0.693809
-0.634646
-0.581401
-0.533685
-0.491142
-0.453453
-0.420329
-0.391514
-0.366784
-0.345943
-0.328826
-0.315296
-0.305242
-0.298585
-0.29527
-31.9086
-39.0537
-45.3059
-50.7261
-55.3711
-59.3001
-62.5664
-65.2184
-67.3104
-68.8907
-70.0026
-70.6877
-70.9866
-70.9386
-70.5804
-69.9463
-69.0683
-67.9757
-66.6962
-65.2553
-63.6768
-61.9827
-60.1932
-58.327
-56.401
-54.4309
-52.4306
-50.413
-48.3895
-46.3703
-44.3647
-42.3806
-40.4253
-38.5047
-36.6244
-34.7888
-33.0018
-31.2665
-29.5855
-27.9607
-26.3937
-24.8855
-23.4367
-22.0475
-20.7179
-19.4475
-18.2356
-17.0814
-15.9838
-14.9416
-13.9534
-13.0178
-12.1331
-11.2977
-10.5098
-9.7678
-9.06976
-8.41391
-7.79843
-7.22151
-6.68136
-6.1762
-5.7043
-5.26395
-4.85349
-4.47131
-4.11583
-3.78554
-3.47898
-3.19475
-2.93149
-2.68793
-2.46283
-2.25501
-2.06336
-1.88683
-1.72442
-1.57517
-1.4382
-1.31268
-1.19781
-1.09285
-0.997134
-0.910006
-0.830877
-0.759198
-0.694459
-0.636196
-0.583983
-0.537431
-0.496189
-0.459944
-0.428413
-0.401352
-0.378547
-0.359817
-0.345011
-0.334011
-0.326726
-0.323098
-34.6489
-42.4077
-49.1969
-55.0825
-60.1265
-64.3929
-67.9396
-70.8195
-73.0911
-74.8071
-76.0145
-76.7584
-77.083
-77.0309
-76.642
-75.9535
-75
-73.8136
-72.4242
-70.8596
-69.1455
-67.3059
-65.3627
-63.3362
-61.2449
-59.1055
-56.9335
-54.7426
-52.5453
-50.3527
-48.1748
-46.0204
-43.897
-41.8116
-39.7698
-37.7765
-35.8361
-33.9517
-32.1263
-30.3621
-28.6605
-27.0227
-25.4495
-23.941
-22.4972
-21.1176
-19.8017
-18.5483
-17.3565
-16.2248
-15.1517
-14.1357
-13.1751
-12.2679
-11.4124
-10.6067
-9.84869
-9.13651
-8.46817
-7.84171
-7.25516
-6.70662
-6.1942
-5.71603
-5.27032
-4.85531
-4.4693
-4.11065
-3.77776
-3.46912
-3.18326
-2.91877
-2.67434
-2.44867
-2.24057
-2.04888
-1.87252
-1.71045
-1.56172
-1.42541
-1.30068
-1.18671
-1.08277
-0.98816
-0.902235
-0.824399
-0.754101
-0.690835
-0.634137
-0.583587
-0.538804
-0.499445
-0.465207
-0.435822
-0.411058
-0.39072
-0.374642
-0.362697
-0.354787
-0.350847
-37.3808
-45.7512
-53.0757
-59.4253
-64.867
-69.4698
-73.2961
-76.4031
-78.8539
-80.7051
-82.0076
-82.8101
-83.1604
-83.1042
-82.6847
-81.9419
-80.9132
-79.6333
-78.1343
-76.4464
-74.5972
-72.6125
-70.5161
-68.3298
-66.0736
-63.7655
-61.4222
-59.0586
-56.6881
-54.3226
-51.973
-49.6487
-47.358
-45.1081
-42.9053
-40.7549
-38.6615
-36.6286
-34.6593
-32.7559
-30.9201
-29.1533
-27.456
-25.8286
-24.2709
-22.7826
-21.3629
-20.0107
-18.7249
-17.504
-16.3463
-15.2502
-14.2138
-13.2352
-12.3122
-11.4429
-10.6252
-9.85686
-9.13583
-8.45997
-7.82718
-7.23539
-6.68256
-6.1667
-5.68585
-5.23812
-4.82167
-4.43474
-4.07561
-3.74263
-3.43423
-3.1489
-2.88519
-2.64173
-2.41722
-2.21042
-2.02015
-1.84531
-1.68485
-1.5378
-1.40323
-1.28027
-1.16814
-1.06607
-0.973371
-0.889398
-0.813557
-0.745303
-0.684135
-0.629599
-0.581285
-0.538823
-0.501885
-0.470184
-0.443468
-0.421526
-0.404181
-0.391293
-0.38276
-0.37851
-40.1033
-49.0835
-56.9414
-63.7535
-69.5915
-74.5296
-78.6345
-81.9678
-84.5971
-86.5832
-87.9805
-88.8415
-89.2173
-89.157
-88.7069
-87.9101
-86.8065
-85.4334
-83.8252
-82.0143
-80.0304
-77.9012
-75.6521
-73.3066
-70.886
-68.4098
-65.8959
-63.3601
-60.8169
-58.2792
-55.7584
-53.2648
-50.8073
-48.3935
-46.0303
-43.7233
-41.4773
-39.2964
-37.1836
-35.1416
-33.1722
-31.2766
-29.4557
-27.7098
-26.0387
-24.442
-22.9188
-21.4682
-20.0887
-18.7789
-17.5369
-16.361
-15.2491
-14.1991
-13.209
-12.2764
-11.3991
-10.5748
-9.80123
-9.07614
-8.39727
-7.76238
-7.16928
-6.61584
-6.09997
-5.61963
-5.17286
-4.75774
-4.37245
-4.01522
-3.68436
-3.37825
-3.09533
-2.83414
-2.59328
-2.37141
-2.16729
-1.97971
-1.80757
-1.6498
-1.50543
-1.37352
-1.25322
-1.14372
-1.04427
-0.954177
-0.872813
-0.799587
-0.733964
-0.675456
-0.623623
-0.578068
-0.538441
-0.50443
-0.475768
-0.452228
-0.433619
-0.419794
-0.410638
-0.406079
-42.816
-52.4036
-60.793
-68.066
-74.2989
-79.5709
-83.9535
-87.5124
-90.3195
-92.4399
-93.9317
-94.8509
-95.2522
-95.1878
-94.7073
-93.8566
-92.6784
-91.2123
-89.4954
-87.562
-85.4439
-83.1706
-80.7694
-78.2652
-75.6809
-73.0372
-70.3532
-67.6459
-64.9307
-62.2213
-59.5301
-56.8678
-54.244
-51.667
-49.1439
-46.6808
-44.283
-41.9545
-39.6988
-37.5187
-35.416
-33.3922
-31.4482
-29.5841
-27.8
-26.0953
-24.4691
-22.9204
-21.4476
-20.0491
-18.7231
-17.4677
-16.2806
-15.1596
-14.1025
-13.1068
-12.1701
-11.2901
-10.4642
-9.69008
-8.96528
-8.28744
-7.65423
-7.06336
-6.51259
-5.99976
-5.52276
-5.07957
-4.66822
-4.28683
-3.93358
-3.60676
-3.30471
-3.02585
-2.7687
-2.53182
-2.31389
-2.11363
-1.92984
-1.7614
-1.60726
-1.46643
-1.33799
-1.22108
-1.1149
-1.01872
-0.931853
-0.853674
-0.783612
-0.721147
-0.665807
-0.617171
-0.574863
-0.538552
-0.507951
-0.482818
-0.462951
-0.44819
-0.438416
-0.433548
-45.5182
-55.7108
-64.6297
-72.3616
-78.9879
-84.5927
-89.2518
-93.0353
-96.0197
-98.2738
-99.8597
-100.837
-101.264
-101.195
-100.684
-99.78
-98.5274
-96.9688
-95.1435
-93.088
-90.8363
-88.4196
-85.8668
-83.2046
-80.4571
-77.6466
-74.7932
-71.9151
-69.0285
-66.1481
-63.287
-60.4567
-57.6673
-54.9277
-52.2454
-49.6269
-47.0777
-44.6022
-42.2042
-39.8865
-37.6511
-35.4996
-33.4329
-31.4512
-29.5545
-27.7422
-26.0134
-24.3669
-22.8011
-21.3144
-19.9048
-18.5701
-17.3081
-16.1163
-14.9925
-13.934
-12.9382
-12.0026
-11.1246
-10.3016
-9.53108
-8.81047
-8.13729
-7.50913
-6.9236
-6.37841
-5.87131
-5.40014
-4.96283
-4.55737
-4.18183
-3.83439
-3.51327
-3.21682
-2.94343
-2.69161
-2.45992
-2.24702
-2.05163
-1.87256
-1.7087
-1.55898
-1.42243
-1.29815
-1.18527
-1.08301
-0.990663
-0.90755
-0.833067
-0.766659
-0.707827
-0.656122
-0.611143
-0.572541
-0.540009
-0.51329
-0.492169
-0.476477
-0.466085
-0.46091
-48.2091
-59.0043
-68.4504
-76.6394
-83.6575
-89.5935
-94.5281
-98.5353
-101.696
-104.083
-105.763
-106.798
-107.25
-107.178
-106.637
-105.679
-104.352
-102.701
-100.768
-98.5911
-96.2063
-93.6467
-90.943
-88.1234
-85.2135
-82.2369
-79.2148
-76.1665
-73.1092
-70.0586
-67.0284
-64.0307
-61.0765
-58.1748
-55.3339
-52.5607
-49.8607
-47.239
-44.6992
-42.2445
-39.877
-37.5983
-35.4093
-33.3105
-31.3016
-29.3822
-27.5512
-25.8074
-24.1491
-22.5745
-21.0815
-19.6679
-18.3313
-17.0691
-15.8788
-14.7577
-13.7031
-12.7122
-11.7823
-10.9106
-10.0945
-9.33132
-8.61835
-7.95305
-7.33291
-6.75548
-6.2184
-5.71939
-5.25622
-4.82679
-4.42905
-4.06107
-3.72097
-3.40699
-3.11744
-2.85073
-2.60534
-2.37986
-2.17292
-1.98327
-1.80971
-1.65114
-1.50653
-1.37489
-1.25534
-1.14704
-1.04923
-0.961203
-0.882316
-0.811983
-0.749673
-0.694911
-0.647273
-0.606388
-0.571934
-0.543635
-0.521266
-0.504645
-0.49364
-0.488159
-50.8881
-62.2832
-72.2542
-80.8983
-88.3064
-94.5723
-99.781
-104.011
-107.347
-109.867
-111.64
-112.733
-113.21
-113.133
-112.562
-111.551
-110.151
-108.409
-106.368
-104.07
-101.552
-98.8507
-95.9967
-93.0204
-89.9489
-86.8068
-83.6168
-80.3991
-77.1719
-73.9518
-70.7532
-67.589
-64.4705
-61.4076
-58.4089
-55.4815
-52.6315
-49.8641
-47.1832
-44.592
-42.0929
-39.6876
-37.377
-35.1616
-33.0411
-31.015
-29.0822
-27.2415
-25.491
-23.8289
-22.253
-20.7608
-19.3499
-18.0176
-16.7612
-15.5778
-14.4645
-13.4186
-12.437
-11.5169
-10.6555
-9.84987
-9.09728
-8.395
-7.7404
-7.13089
-6.56397
-6.03722
-5.54832
-5.09502
-4.67518
-4.28674
-3.92775
-3.59632
-3.29068
-3.00915
-2.75013
-2.51211
-2.29367
-2.09348
-1.91028
-1.7429
-1.59025
-1.45129
-1.3251
-1.21078
-1.10754
-1.01462
-0.931348
-0.857106
-0.791334
-0.733529
-0.683244
-0.640087
-0.603717
-0.573846
-0.550234
-0.53269
-0.521073
-0.515287
-53.5545
-65.5467
-76.0402
-85.1372
-92.9335
-99.5277
-105.009
-109.461
-112.972
-115.624
-117.49
-118.64
-119.142
-119.061
-118.461
-117.396
-115.923
-114.089
-111.941
-109.523
-106.874
-104.03
-101.027
-97.8945
-94.662
-91.3554
-87.9982
-84.6118
-81.2156
-77.8267
-74.4605
-71.1305
-67.8486
-64.6253
-61.4694
-58.3886
-55.3893
-52.4769
-49.6555
-46.9285
-44.2985
-41.7672
-39.3355
-37.004
-34.7724
-32.6401
-30.6061
-28.6689
-26.8267
-25.0775
-23.419
-21.8487
-20.3638
-18.9617
-17.6394
-16.394
-15.2225
-14.1217
-13.0887
-12.1204
-11.2138
-10.366
-9.57396
-8.83489
-8.14599
-7.50454
-6.90791
-6.35356
-5.83904
-5.36199
-4.92015
-4.51136
-4.13355
-3.78476
-3.46311
-3.16682
-2.89423
-2.64374
-2.41386
-2.20317
-2.01038
-1.83423
-1.67357
-1.52734
-1.39453
-1.27423
-1.16557
-1.06778
-0.98015
-0.902018
-0.8328
-0.771965
-0.719046
-0.673627
-0.635352
-0.603916
-0.579066
-0.560603
-0.548377
-0.542288
-56.2078
-68.7941
-79.8075
-89.3551
-97.5377
-104.459
-110.212
-114.884
-118.569
-121.353
-123.311
-124.518
-125.044
-124.96
-124.329
-123.213
-121.666
-119.741
-117.487
-114.949
-112.169
-109.184
-106.032
-102.744
-99.3518
-95.8813
-92.3578
-88.8037
-85.2392
-81.6825
-78.1495
-74.6545
-71.21
-67.827
-64.5148
-61.2813
-58.1335
-55.0767
-52.1155
-49.2535
-46.4932
-43.8364
-41.2843
-38.8372
-36.4951
-34.2572
-32.1224
-30.0892
-28.1558
-26.3199
-24.5792
-22.9311
-21.3727
-19.9011
-18.5134
-17.2062
-15.9766
-14.8213
-13.7371
-12.7209
-11.7694
-10.8795
-10.0483
-9.2726
-8.54956
-7.87633
-7.25015
-6.66833
-6.12832
-5.62764
-5.16391
-4.73487
-4.33834
-3.97227
-3.63468
-3.32372
-3.03762
-2.77472
-2.53345
-2.31233
-2.10998
-1.9251
-1.75649
-1.60301
-1.46362
-1.33736
-1.22332
-1.12069
-1.02871
-0.946708
-0.87406
-0.810212
-0.75467
-0.707002
-0.66683
-0.633837
-0.607756
-0.588378
-0.575546
-0.569156
-58.8471
-72.0245
-83.555
-93.551
-102.118
-109.364
-115.387
-120.279
-124.137
-127.051
-129.101
-130.365
-130.916
-130.828
-130.168
-128.998
-127.379
-125.364
-123.004
-120.347
-117.436
-114.311
-111.011
-107.569
-104.017
-100.384
-96.6947
-92.9737
-89.2418
-85.518
-81.8191
-78.1601
-74.5539
-71.012
-67.5442
-64.1589
-60.8632
-57.6629
-54.5627
-51.5663
-48.6764
-45.8949
-43.2229
-40.6609
-38.2088
-35.8658
-33.6308
-31.5021
-29.4779
-27.5558
-25.7334
-24.0079
-22.3763
-20.8356
-19.3827
-18.0142
-16.7268
-15.5173
-14.3822
-13.3182
-12.322
-11.3904
-10.5201
-9.70801
-8.95103
-8.24619
-7.5906
-6.98146
-6.41609
-5.8919
-5.4064
-4.95721
-4.54206
-4.1588
-3.80536
-3.47979
-3.18026
-2.90501
-2.65241
-2.42091
-2.20906
-2.0155
-1.83897
-1.67828
-1.53235
-1.40016
-1.28076
-1.17331
-1.07702
-0.991164
-0.915105
-0.848258
-0.790109
-0.740202
-0.698144
-0.663601
-0.636295
-0.616008
-0.602573
-0.595883
-61.472
-75.2371
-87.282
-97.7238
-106.673
-114.242
-120.534
-125.644
-129.674
-132.718
-134.86
-136.179
-136.756
-136.663
-135.974
-134.752
-133.061
-130.956
-128.491
-125.715
-122.674
-119.41
-115.963
-112.367
-108.657
-104.861
-101.008
-97.1207
-93.2224
-89.3325
-85.4686
-81.6463
-77.8793
-74.1794
-70.557
-67.0207
-63.578
-60.235
-56.9965
-53.8664
-50.8476
-47.942
-45.1508
-42.4746
-39.9131
-37.4656
-35.1309
-32.9073
-30.7928
-28.785
-26.8813
-25.0788
-23.3744
-21.765
-20.2472
-18.8177
-17.4729
-16.2094
-15.0237
-13.9123
-12.8717
-11.8985
-10.9894
-10.141
-9.35029
-8.61401
-7.92917
-7.29287
-6.70228
-6.15471
-5.64755
-5.17833
-4.74466
-4.3443
-3.9751
-3.63501
-3.32212
-3.03459
-2.77072
-2.5289
-2.30759
-2.1054
-1.921
-1.75315
-1.6007
-1.46261
-1.33789
-1.22565
-1.12506
-1.03538
-0.955924
-0.886096
-0.825352
-0.773219
-0.729286
-0.693202
-0.664678
-0.643485
-0.629452
-0.622463
-64.0817
-78.4311
-90.9874
-101.872
-111.201
-119.092
-125.651
-130.978
-135.179
-138.352
-140.585
-141.961
-142.561
-142.465
-141.746
-140.473
-138.71
-136.515
-133.946
-131.052
-127.882
-124.479
-120.886
-117.138
-113.27
-109.313
-105.296
-101.244
-97.18
-93.125
-89.097
-85.1125
-81.1855
-77.3285
-73.5523
-69.8659
-66.2771
-62.7921
-59.4162
-56.1532
-53.0062
-49.9773
-47.0676
-44.2778
-41.6075
-39.0561
-36.6223
-34.3043
-32.1
-30.007
-28.0224
-26.1434
-24.3667
-22.689
-21.1068
-19.6166
-18.2147
-16.8976
-15.6615
-14.5029
-13.4181
-12.4036
-11.4559
-10.5716
-9.74724
-8.9797
-8.26579
-7.60248
-6.98682
-6.416
-5.88731
-5.39816
-4.94609
-4.52873
-4.14385
-3.78933
-3.46315
-3.16342
-2.88835
-2.63626
-2.40556
-2.19479
-2.00255
-1.82757
-1.66866
-1.52471
-1.39469
-1.27768
-1.17282
-1.07933
-0.996507
-0.923714
-0.860392
-0.806046
-0.760247
-0.722632
-0.692897
-0.670805
-0.656175
-0.64889
-66.6755
-81.6058
-94.6703
-105.996
-115.703
-123.912
-130.737
-136.279
-140.651
-143.953
-146.275
-147.707
-148.332
-148.232
-147.484
-146.159
-144.324
-142.041
-139.367
-136.357
-133.058
-129.518
-125.779
-121.879
-117.854
-113.738
-109.558
-105.342
-101.114
-96.8944
-92.7035
-88.5576
-84.4717
-80.4586
-76.5295
-72.6939
-68.9598
-65.3338
-61.8212
-58.4261
-55.1518
-52.0002
-48.9728
-46.07
-43.2917
-40.637
-38.1046
-35.6928
-33.3993
-31.2216
-29.1567
-27.2016
-25.353
-23.6074
-21.9612
-20.4106
-18.952
-17.5816
-16.2955
-15.0899
-13.9612
-12.9057
-11.9196
-10.9995
-10.1418
-9.34318
-8.60037
-7.91021
-7.26963
-6.6757
-6.12562
-5.61667
-5.1463
-4.71205
-4.31159
-3.94271
-3.60333
-3.29147
-3.00527
-2.74297
-2.50293
-2.28363
-2.08361
-1.90155
-1.7362
-1.58642
-1.45115
-1.3294
-1.2203
-1.12302
-1.03684
-0.961105
-0.89522
-0.838674
-0.791022
-0.751883
-0.720945
-0.697958
-0.682737
-0.675157
-69.253
-84.7604
-98.3299
-110.093
-120.175
-128.702
-135.791
-141.547
-146.088
-149.517
-151.93
-153.417
-154.066
-153.962
-153.185
-151.809
-149.903
-147.532
-144.755
-141.628
-138.202
-134.525
-130.641
-126.59
-122.41
-118.134
-113.793
-109.414
-105.022
-100.64
-96.287
-91.9809
-87.737
-83.5688
-79.4878
-75.504
-71.6255
-67.8593
-64.2109
-60.6846
-57.2837
-54.0103
-50.8659
-47.8509
-44.9652
-42.2079
-39.5776
-37.0726
-34.6904
-32.4285
-30.2838
-28.2532
-26.3331
-24.52
-22.8101
-21.1996
-19.6846
-18.2612
-16.9254
-15.6733
-14.5009
-13.4046
-12.3804
-11.4247
-10.5338
-9.70435
-8.93283
-8.21599
-7.55065
-6.93376
-6.36241
-5.83379
-5.34524
-4.8942
-4.47826
-4.09513
-3.74263
-3.41871
-3.12144
-2.849
-2.59969
-2.3719
-2.16416
-1.97506
-1.80332
-1.64775
-1.50724
-1.38079
-1.26747
-1.16644
-1.07693
-0.998259
-0.929827
-0.871095
-0.821601
-0.780949
-0.748815
-0.72494
-0.70913
-0.701257
-71.8133
-87.8941
-101.965
-114.164
-124.618
-133.46
-140.811
-146.78
-151.489
-155.045
-157.547
-159.088
-159.762
-159.654
-158.848
-157.422
-155.445
-152.986
-150.107
-146.864
-143.311
-139.498
-135.471
-131.27
-126.936
-122.502
-118
-113.459
-108.905
-104.361
-99.8468
-95.3815
-90.9807
-86.6584
-82.4266
-78.2954
-74.2736
-70.3681
-66.5848
-62.9282
-59.4015
-56.0071
-52.7464
-49.62
-46.6275
-43.7683
-41.0408
-38.4432
-35.9729
-33.6274
-31.4034
-29.2977
-27.3066
-25.4265
-23.6534
-21.9834
-20.4124
-18.9363
-17.5511
-16.2527
-15.0371
-13.9002
-12.8381
-11.8471
-10.9233
-10.0631
-9.26309
-8.51974
-7.8298
-7.19011
-6.59763
-6.04947
-5.54285
-5.07514
-4.64383
-4.24653
-3.881
-3.5451
-3.23684
-2.95433
-2.6958
-2.4596
-2.24417
-2.04808
-1.86999
-1.70867
-1.56297
-1.43184
-1.31433
-1.20956
-1.11674
-1.03517
-0.964205
-0.903302
-0.851977
-0.809823
-0.776501
-0.751743
-0.735349
-0.727184
-74.3559
-91.006
-105.575
-118.206
-129.03
-138.186
-145.796
-151.977
-156.853
-160.534
-163.125
-164.721
-165.418
-165.307
-164.473
-162.995
-160.949
-158.403
-155.421
-152.063
-148.385
-144.437
-140.267
-135.918
-131.43
-126.839
-122.178
-117.476
-112.761
-108.056
-103.382
-98.7585
-94.202
-89.7266
-85.3449
-81.0675
-76.9033
-72.8596
-68.9423
-65.1562
-61.5047
-57.9901
-54.614
-51.3768
-48.2784
-45.318
-42.4939
-39.8043
-37.2466
-34.818
-32.5153
-30.335
-28.2734
-26.3267
-24.4909
-22.7617
-21.1351
-19.6068
-18.1725
-16.8282
-15.5695
-14.3923
-13.2926
-12.2665
-11.31
-10.4194
-9.59106
-8.82139
-8.10703
-7.44469
-6.83123
-6.26366
-5.73911
-5.25483
-4.80825
-4.39688
-4.01841
-3.67062
-3.35145
-3.05894
-2.79125
-2.54668
-2.32363
-2.1206
-1.9362
-1.76917
-1.61831
-1.48254
-1.36087
-1.25239
-1.15628
-1.07182
-0.998345
-0.935285
-0.882143
-0.838497
-0.803995
-0.77836
-0.761386
-0.752932
-76.8802
-94.0955
-109.16
-122.219
-133.411
-142.877
-150.746
-157.137
-162.177
-165.984
-168.663
-170.313
-171.034
-170.919
-170.056
-168.529
-166.413
-163.781
-160.698
-157.226
-153.422
-149.341
-145.029
-140.532
-135.892
-131.145
-126.326
-121.464
-116.589
-111.724
-106.892
-102.111
-97.4
-92.7727
-88.2423
-83.8196
-79.514
-75.333
-71.2828
-67.3682
-63.5927
-59.9588
-56.468
-53.121
-49.9174
-46.8564
-43.9365
-41.1556
-38.5111
-36
-33.6191
-31.3648
-29.2333
-27.2205
-25.3223
-23.5344
-21.8526
-20.2724
-18.7895
-17.3994
-16.098
-14.8809
-13.7439
-12.6829
-11.694
-10.7732
-9.91666
-9.12087
-8.38225
-7.69742
-7.06314
-6.47631
-5.93394
-5.43323
-4.97148
-4.54615
-4.15483
-3.79524
-3.46523
-3.16278
-2.88601
-2.63314
-2.40251
-2.19259
-2.00194
-1.82923
-1.67325
-1.53287
-1.40707
-1.29491
-1.19554
-1.10821
-1.03224
-0.967038
-0.912092
-0.866964
-0.831291
-0.804786
-0.787235
-0.778494
-79.3855
-97.1618
-112.717
-126.201
-137.758
-147.533
-155.658
-162.257
-167.462
-171.393
-174.159
-175.863
-176.607
-176.488
-175.598
-174.021
-171.836
-169.118
-165.934
-162.349
-158.422
-154.207
-149.755
-145.112
-140.32
-135.419
-130.442
-125.423
-120.388
-115.365
-110.375
-105.439
-100.574
-95.7959
-91.1178
-86.5511
-82.1051
-77.7879
-73.6057
-69.5635
-65.665
-61.9127
-58.3081
-54.852
-51.5441
-48.3833
-45.3683
-42.4967
-39.766
-37.1731
-34.7147
-32.3869
-30.1859
-28.1075
-26.1475
-24.3014
-22.5647
-20.933
-19.4018
-17.9664
-16.6226
-15.3658
-14.1918
-13.0962
-12.0751
-11.1242
-10.2398
-9.41809
-8.65541
-7.94826
-7.29331
-6.68735
-6.12731
-5.61028
-5.13349
-4.6943
-4.29023
-3.91891
-3.57815
-3.26585
-2.98006
-2.71895
-2.48081
-2.26404
-2.06717
-1.88884
-1.72778
-1.58282
-1.45292
-1.3371
-1.2345
-1.14432
-1.06588
-0.998552
-0.941816
-0.895217
-0.858381
-0.831013
-0.81289
-0.803864
-81.8712
-100.204
-116.246
-130.153
-142.072
-152.152
-160.532
-167.338
-172.706
-176.76
-179.612
-181.37
-182.137
-182.015
-181.096
-179.47
-177.217
-174.413
-171.13
-167.433
-163.383
-159.036
-154.444
-149.656
-144.714
-139.659
-134.527
-129.35
-124.158
-118.977
-113.831
-108.74
-103.723
-98.7954
-93.9709
-89.2611
-84.676
-80.2236
-75.9104
-71.7416
-67.721
-63.8513
-60.1339
-56.5695
-53.158
-49.8983
-46.7888
-43.8274
-41.0112
-38.3371
-35.8017
-33.401
-31.1311
-28.9876
-26.9662
-25.0623
-23.2713
-21.5885
-20.0093
-18.529
-17.1431
-15.847
-14.6362
-13.5063
-12.4532
-11.4725
-10.5605
-9.71299
-8.92642
-8.19714
-7.52168
-6.89675
-6.31917
-5.78596
-5.29423
-4.84129
-4.42456
-4.04163
-3.69019
-3.36811
-3.07337
-2.80409
-2.55849
-2.33493
-2.1319
-1.94799
-1.78188
-1.63239
-1.49842
-1.37897
-1.27315
-1.18015
-1.09925
-1.02982
-0.971307
-0.923249
-0.88526
-0.857035
-0.838344
-0.829036
-84.3367
-103.222
-119.747
-134.072
-146.35
-156.734
-165.366
-172.377
-177.907
-182.083
-185.021
-186.832
-187.622
-187.496
-186.55
-184.874
-182.553
-179.665
-176.283
-172.475
-168.303
-163.825
-159.095
-154.162
-149.072
-143.865
-138.578
-133.245
-127.897
-122.56
-117.259
-112.015
-106.847
-101.771
-96.8007
-91.9492
-87.226
-82.6395
-78.1964
-73.9021
-69.7604
-65.7741
-61.9448
-58.2731
-54.7588
-51.401
-48.1979
-45.1472
-42.2462
-39.4916
-36.8798
-34.4069
-32.0686
-29.8606
-27.7783
-25.817
-23.9721
-22.2386
-20.6118
-19.087
-17.6593
-16.3242
-15.0769
-13.9131
-12.8282
-11.818
-10.8785
-10.0055
-9.19524
-8.444
-7.7482
-7.10444
-6.50948
-5.9602
-5.45367
-4.98709
-4.55781
-4.16334
-3.80132
-3.46955
-3.16593
-2.88853
-2.63554
-2.40525
-2.19611
-2.00665
-1.83554
-1.68155
-1.54354
-1.4205
-1.3115
-1.2157
-1.13236
-1.06083
-1.00056
-0.951054
-0.911921
-0.882845
-0.863592
-0.854004
-86.7814
-106.214
-123.218
-137.959
-150.592