/*--------------------------------*- C++ -*----------------------------------*\
| =========                 |                                                 |
| \\      /  F ield         | OpenFOAM: The Open Source CFD Toolbox           |
|  \\    /   O peration     | Version:  2406                                  |
|   \\  /    A nd           | Website:  www.openfoam.com                      |
|    \\/     M anipulation  |                                                 |
\*---------------------------------------------------------------------------*/
FoamFile
{
    version     2.0;
    format      ascii;
    arch        "LSB;label=32;scalar=64";
    class       volScalarField;
    location    "155";
    object      T;
}
// * * * * * * * * * * * * * * * * * * * * * * * * * * * * * * * * * * * * * //

dimensions      [0 0 0 1 0 0 0];

internalField   nonuniform List<scalar> 
20000
(
299.691
299.728
299.763
299.796
299.827
299.857
299.884
299.91
299.934
299.957
299.978
299.997
300.014
300.031
300.045
300.059
300.071
300.082
300.091
300.1
300.107
300.114
300.119
300.124
300.128
300.131
300.134
300.135
300.137
300.137
300.137
300.137
300.136
300.135
300.133
300.132
300.13
300.127
300.125
300.122
300.119
300.116
300.113
300.11
300.106
300.103
300.1
300.096
300.093
300.09
300.086
300.083
300.08
300.076
300.073
300.07
300.067
300.064
300.061
300.058
300.056
300.053
300.05
300.048
300.045
300.043
300.041
300.038
300.036
300.034
300.032
300.031
300.029
300.027
300.025
300.024
300.022
300.021
300.02
300.018
300.017
300.016
300.015
300.014
300.013
300.012
300.011
300.01
300.009
300.008
300.007
300.006
300.005
300.005
300.004
300.003
300.002
300.002
300.001
300
299.073
299.183
299.289
299.388
299.482
299.57
299.653
299.731
299.803
299.871
299.933
299.991
300.043
300.092
300.136
300.176
300.213
300.245
300.274
300.3
300.322
300.342
300.358
300.373
300.384
300.394
300.401
300.406
300.41
300.412
300.412
300.411
300.408
300.405
300.4
300.395
300.389
300.382
300.374
300.366
300.357
300.348
300.339
300.329
300.319
300.309
300.299
300.289
300.279
300.269
300.259
300.249
300.239
300.229
300.22
300.21
300.201
300.192
300.183
300.175
300.167
300.158
300.151
300.143
300.136
300.129
300.122
300.115
300.109
300.103
300.097
300.092
300.086
300.081
300.076
300.072
300.067
300.063
300.059
300.055
300.051
300.047
300.044
300.041
300.038
300.034
300.032
300.029
300.026
300.024
300.021
300.019
300.016
300.014
300.012
300.01
300.007
300.005
300.003
300.001
298.455
298.639
298.815
298.98
299.137
299.284
299.422
299.552
299.672
299.784
299.888
299.984
300.072
300.153
300.227
300.294
300.354
300.408
300.457
300.499
300.537
300.569
300.597
300.621
300.64
300.656
300.668
300.677
300.683
300.686
300.686
300.685
300.681
300.675
300.667
300.658
300.648
300.636
300.623
300.61
300.595
300.58
300.565
300.549
300.532
300.516
300.499
300.482
300.465
300.448
300.431
300.415
300.398
300.382
300.366
300.35
300.335
300.32
300.306
300.291
300.277
300.264
300.251
300.238
300.226
300.215
300.203
300.192
300.182
300.172
300.162
300.153
300.144
300.135
300.127
300.119
300.112
300.105
300.098
300.091
300.085
300.079
300.073
300.068
300.063
300.057
300.053
300.048
300.044
300.039
300.035
300.031
300.027
300.023
300.02
300.016
300.012
300.009
300.005
300.002
297.837
298.096
298.341
298.573
298.792
298.998
299.192
299.373
299.541
299.698
299.844
299.978
300.101
300.214
300.318
300.411
300.496
300.572
300.639
300.699
300.751
300.797
300.836
300.869
300.896
300.918
300.935
300.947
300.956
300.96
300.961
300.958
300.953
300.945
300.934
300.921
300.907
300.89
300.873
300.854
300.833
300.812
300.79
300.768
300.745
300.722
300.698
300.675
300.651
300.627
300.604
300.58
300.557
300.535
300.512
300.49
300.469
300.448
300.428
300.408
300.388
300.37
300.351
300.334
300.317
300.3
300.284
300.269
300.255
300.24
300.227
300.214
300.201
300.189
300.178
300.167
300.157
300.147
300.137
300.128
300.119
300.111
300.103
300.095
300.088
300.08
300.074
300.067
300.061
300.055
300.049
300.043
300.038
300.033
300.027
300.022
300.017
300.012
300.007
300.002
297.22
297.552
297.867
298.166
298.447
298.712
298.961
299.194
299.411
299.612
299.799
299.972
300.13
300.276
300.408
300.529
300.637
300.735
300.822
300.898
300.966
301.024
301.075
301.117
301.152
301.18
301.202
301.218
301.228
301.234
301.235
301.232
301.224
301.214
301.2
301.184
301.165
301.144
301.122
301.097
301.071
301.044
301.016
300.987
300.958
300.928
300.897
300.867
300.837
300.806
300.776
300.746
300.716
300.687
300.659
300.63
300.603
300.576
300.55
300.524
300.499
300.475
300.452
300.429
300.407
300.386
300.366
300.346
300.327
300.309
300.292
300.275
300.259
300.243
300.229
300.215
300.201
300.188
300.176
300.164
300.153
300.142
300.132
300.122
300.112
300.103
300.095
300.086
300.078
300.071
300.063
300.056
300.049
300.042
300.035
300.029
300.022
300.016
300.009
300.003
296.604
297.01
297.395
297.759
298.103
298.427
298.731
299.015
299.28
299.526
299.755
299.965
300.159
300.337
300.499
300.646
300.778
300.898
301.004
301.098
301.18
301.252
301.313
301.365
301.407
301.442
301.468
301.488
301.501
301.507
301.509
301.505
301.496
301.483
301.467
301.447
301.424
301.398
301.37
301.34
301.309
301.276
301.241
301.206
301.17
301.133
301.096
301.059
301.022
300.985
300.948
300.911
300.875
300.84
300.805
300.77
300.737
300.704
300.672
300.64
300.61
300.58
300.552
300.524
300.497
300.472
300.447
300.423
300.4
300.378
300.356
300.336
300.316
300.297
300.279
300.262
300.246
300.23
300.215
300.201
300.187
300.174
300.161
300.149
300.137
300.126
300.116
300.105
300.096
300.086
300.077
300.068
300.059
300.051
300.043
300.035
300.027
300.019
300.011
300.004
295.988
296.468
296.922
297.353
297.759
298.142
298.5
298.836
299.149
299.44
299.71
299.959
300.188
300.398
300.589
300.763
300.919
301.06
301.186
301.297
301.394
301.478
301.551
301.612
301.662
301.703
301.734
301.757
301.773
301.781
301.782
301.777
301.767
301.752
301.732
301.709
301.682
301.652
301.619
301.583
301.546
301.507
301.466
301.424
301.382
301.339
301.295
301.251
301.207
301.163
301.12
301.077
301.034
300.992
300.95
300.91
300.87
300.831
300.793
300.756
300.72
300.686
300.652
300.619
300.588
300.557
300.528
300.499
300.472
300.446
300.421
300.397
300.374
300.351
300.33
300.31
300.29
300.272
300.254
300.237
300.221
300.205
300.19
300.176
300.162
300.149
300.137
300.125
300.113
300.102
300.091
300.08
300.07
300.06
300.051
300.041
300.032
300.023
300.014
300.005
295.374
295.926
296.451
296.947
297.416
297.857
298.271
298.658
299.019
299.355
299.666
299.953
300.217
300.459
300.679
300.88
301.06
301.223
301.367
301.495
301.607
301.705
301.788
301.859
301.917
301.964
302
302.027
302.044
302.053
302.055
302.05
302.038
302.02
301.998
301.971
301.939
301.905
301.866
301.826
301.783
301.737
301.691
301.643
301.594
301.544
301.493
301.443
301.392
301.342
301.291
301.242
301.192
301.144
301.096
301.049
301.003
300.958
300.915
300.872
300.831
300.791
300.752
300.714
300.678
300.642
300.608
300.576
300.544
300.514
300.485
300.457
300.431
300.405
300.381
300.357
300.335
300.313
300.293
300.273
300.254
300.237
300.219
300.203
300.187
300.172
300.158
300.144
300.13
300.117
300.105
300.093
300.081
300.07
300.058
300.048
300.037
300.026
300.016
300.005
294.761
295.386
295.98
296.543
297.073
297.573
298.042
298.48
298.889
299.269
299.621
299.947
300.246
300.52
300.769
300.996
301.201
301.385
301.548
301.693
301.821
301.931
302.025
302.105
302.171
302.224
302.265
302.295
302.315
302.326
302.327
302.321
302.308
302.288
302.263
302.232
302.197
302.157
302.114
302.068
302.019
301.968
301.915
301.861
301.805
301.748
301.691
301.634
301.577
301.52
301.463
301.406
301.35
301.295
301.241
301.188
301.136
301.086
301.036
300.988
300.941
300.895
300.851
300.809
300.767
300.728
300.689
300.652
300.617
300.582
300.55
300.518
300.488
300.459
300.431
300.405
300.379
300.355
300.332
300.309
300.288
300.268
300.248
300.23
300.212
300.195
300.179
300.163
300.148
300.133
300.119
300.105
300.092
300.079
300.066
300.054
300.042
300.03
300.018
300.006
294.148
294.847
295.511
296.139
296.731
297.289
297.813
298.302
298.759
299.184
299.577
299.94
300.274
300.58
300.859
301.113
301.341
301.546
301.729
301.891
302.033
302.156
302.262
302.351
302.425
302.484
302.53
302.563
302.586
302.597
302.599
302.592
302.578
302.556
302.527
302.493
302.453
302.409
302.361
302.309
302.255
302.198
302.139
302.078
302.016
301.953
301.889
301.825
301.761
301.697
301.633
301.57
301.508
301.447
301.386
301.327
301.269
301.212
301.157
301.103
301.051
301
300.951
300.903
300.857
300.813
300.77
300.728
300.689
300.65
300.614
300.579
300.545
300.513
300.482
300.452
300.424
300.396
300.37
300.346
300.322
300.299
300.277
300.257
300.237
300.218
300.199
300.182
300.165
300.148
300.133
300.117
300.102
300.088
300.074
300.06
300.046
300.033
300.02
300.007
293.538
294.31
295.042
295.736
296.39
297.006
297.584
298.125
298.63
299.099
299.533
299.934
300.303
300.641
300.949
301.229
301.481
301.708
301.91
302.089
302.245
302.381
302.498
302.596
302.678
302.743
302.794
302.831
302.855
302.868
302.87
302.863
302.847
302.822
302.791
302.753
302.709
302.66
302.607
302.55
302.49
302.427
302.362
302.295
302.226
302.157
302.086
302.016
301.945
301.874
301.804
301.734
301.666
301.598
301.531
301.466
301.401
301.339
301.278
301.218
301.16
301.104
301.05
300.997
300.946
300.897
300.85
300.804
300.761
300.718
300.678
300.639
300.602
300.566
300.532
300.499
300.468
300.438
300.409
300.382
300.356
300.33
300.306
300.283
300.262
300.24
300.22
300.201
300.182
300.164
300.146
300.13
300.113
300.097
300.082
300.066
300.051
300.037
300.022
300.007
292.929
293.773
294.575
295.334
296.05
296.724
297.357
297.949
298.501
299.014
299.489
299.928
300.332
300.701
301.038
301.344
301.621
301.869
302.09
302.285
302.457
302.606
302.733
302.841
302.93
303.002
303.057
303.098
303.125
303.139
303.141
303.133
303.115
303.088
303.054
303.012
302.964
302.911
302.853
302.791
302.725
302.656
302.584
302.511
302.436
302.36
302.283
302.205
302.128
302.051
301.974
301.898
301.822
301.748
301.675
301.604
301.534
301.465
301.398
301.333
301.27
301.208
301.149
301.091
301.036
300.982
300.93
300.88
300.832
300.786
300.742
300.699
300.658
300.619
300.582
300.546
300.512
300.479
300.448
300.418
300.389
300.362
300.335
300.31
300.286
300.263
300.241
300.22
300.199
300.179
300.16
300.142
300.124
300.106
300.089
300.073
300.056
300.04
300.024
300.008
292.321
293.239
294.109
294.933
295.711
296.443
297.13
297.772
298.372
298.929
299.445
299.922
300.36
300.762
301.128
301.46
301.76
302.029
302.269
302.482
302.668
302.83
302.968
303.085
303.182
303.26
303.32
303.364
303.393
303.408
303.411
303.402
303.382
303.353
303.316
303.271
303.219
303.161
303.098
303.03
302.959
302.884
302.806
302.727
302.645
302.562
302.479
302.395
302.311
302.227
302.143
302.061
301.979
301.898
301.819
301.741
301.665
301.591
301.518
301.448
301.379
301.312
301.248
301.185
301.125
301.066
301.01
300.956
300.904
300.854
300.805
300.759
300.715
300.673
300.632
300.593
300.556
300.52
300.486
300.454
300.422
300.393
300.364
300.337
300.311
300.286
300.262
300.238
300.216
300.195
300.174
300.154
300.134
300.116
300.097
300.079
300.061
300.043
300.026
300.009
291.716
292.706
293.645
294.534
295.373
296.163
296.904
297.597
298.243
298.845
299.401
299.916
300.388
300.822
301.217
301.575
301.899
302.189
302.448
302.677
302.878
303.053
303.202
303.328
303.433
303.517
303.582
303.629
303.66
303.677
303.68
303.67
303.649
303.618
303.577
303.529
303.473
303.41
303.342
303.269
303.192
303.111
303.028
302.942
302.854
302.764
302.674
302.584
302.493
302.402
302.312
302.223
302.135
302.048
301.963
301.879
301.797
301.716
301.638
301.562
301.488
301.416
301.346
301.278
301.213
301.15
301.09
301.031
300.975
300.921
300.869
300.819
300.771
300.726
300.682
300.64
300.6
300.561
300.524
300.489
300.456
300.424
300.393
300.363
300.335
300.308
300.282
300.257
300.233
300.21
300.188
300.166
300.145
300.125
300.105
300.085
300.066
300.047
300.028
300.009
291.113
292.174
293.182
294.136
295.036
295.883
296.678
297.422
298.115
298.76
299.358
299.909
300.417
300.881
301.305
301.69
302.037
302.349
302.627
302.872
303.088
303.275
303.436
303.571
303.683
303.773
303.842
303.893
303.927
303.945
303.948
303.937
303.915
303.881
303.838
303.786
303.726
303.659
303.586
303.507
303.425
303.338
303.248
303.156
303.062
302.966
302.869
302.772
302.675
302.577
302.481
302.385
302.291
302.197
302.106
302.016
301.927
301.841
301.757
301.675
301.596
301.519
301.444
301.372
301.302
301.234
301.169
301.106
301.046
300.988
300.932
300.879
300.827
300.778
300.731
300.686
300.643
300.602
300.563
300.525
300.489
300.454
300.421
300.39
300.36
300.331
300.303
300.276
300.25
300.225
300.201
300.178
300.156
300.134
300.112
300.091
300.071
300.05
300.03
300.01
290.512
291.645
292.721
293.739
294.7
295.605
296.453
297.247
297.988
298.677
299.314
299.903
300.445
300.941
301.393
301.804
302.175
302.508
302.804
303.067
303.297
303.497
303.668
303.812
303.932
304.028
304.102
304.157
304.193
304.211
304.215
304.204
304.18
304.144
304.098
304.042
303.978
303.906
303.828
303.745
303.656
303.564
303.468
303.369
303.269
303.166
303.063
302.959
302.855
302.752
302.649
302.547
302.445
302.346
302.248
302.152
302.058
301.966
301.876
301.789
301.704
301.622
301.542
301.464
301.39
301.318
301.248
301.181
301.117
301.055
300.995
300.938
300.883
300.831
300.781
300.733
300.687
300.643
300.601
300.56
300.522
300.485
300.45
300.416
300.384
300.353
300.323
300.295
300.267
300.241
300.215
300.19
300.166
300.143
300.12
300.097
300.075
300.054
300.032
300.011
289.913
291.118
292.261
293.344
294.366
295.327
296.229
297.074
297.861
298.593
299.271
299.897
300.473
301
301.481
301.918
302.312
302.666
302.981
303.26
303.505
303.717
303.899
304.053
304.18
304.282
304.361
304.419
304.457
304.477
304.481
304.469
304.443
304.405
304.356
304.297
304.229
304.153
304.07
303.981
303.887
303.789
303.687
303.582
303.475
303.366
303.257
303.146
303.036
302.925
302.816
302.707
302.6
302.494
302.39
302.288
302.188
302.09
301.995
301.902
301.811
301.724
301.639
301.557
301.477
301.401
301.327
301.256
301.187
301.121
301.058
300.997
300.939
300.883
300.83
300.779
300.73
300.683
300.639
300.596
300.555
300.516
300.478
300.443
300.408
300.375
300.344
300.313
300.284
300.256
300.229
300.202
300.177
300.152
300.127
300.104
300.08
300.057
300.034
300.011
289.316
290.592
291.804
292.95
294.032
295.051
296.007
296.901
297.735
298.51
299.228
299.891
300.501
301.06
301.569
302.031
302.449
302.823
303.157
303.453
303.712
303.937
304.13
304.293
304.427
304.535
304.619
304.68
304.721
304.742
304.746
304.733
304.706
304.666
304.614
304.551
304.479
304.398
304.31
304.216
304.117
304.013
303.905
303.794
303.68
303.565
303.449
303.332
303.215
303.098
302.982
302.867
302.754
302.641
302.531
302.423
302.317
302.213
302.112
302.014
301.919
301.826
301.736
301.649
301.565
301.484
301.405
301.33
301.257
301.188
301.121
301.056
300.995
300.936
300.879
300.825
300.773
300.724
300.676
300.631
300.588
300.546
300.507
300.469
300.432
300.397
300.364
300.332
300.301
300.271
300.242
300.214
300.187
300.161
300.135
300.11
300.085
300.06
300.036
300.012
288.723
290.07
291.348
292.559
293.701
294.776
295.785
296.728
297.609
298.427
299.185
299.885
300.529
301.118
301.656
302.144
302.585
302.98
303.333
303.645
303.918
304.156
304.359
304.531
304.673
304.787
304.876
304.94
304.983
305.005
305.009
304.996
304.968
304.925
304.87
304.804
304.728
304.643
304.55
304.451
304.345
304.236
304.122
304.004
303.885
303.763
303.641
303.517
303.394
303.271
303.148
303.027
302.907
302.788
302.672
302.558
302.446
302.336
302.23
302.126
302.025
301.927
301.832
301.74
301.652
301.566
301.483
301.404
301.327
301.254
301.183
301.115
301.05
300.988
300.928
300.871
300.816
300.764
300.714
300.666
300.62
300.577
300.535
300.495
300.456
300.42
300.384
300.35
300.318
300.286
300.256
300.226
300.198
300.17
300.142
300.116
300.09
300.064
300.038
300.013
288.132
289.549
290.895
292.169
293.371
294.502
295.564
296.557
297.483
298.345
299.142
299.879
300.557
301.177
301.743
302.257
302.72
303.136
303.507
303.836
304.124
304.374
304.588
304.769
304.918
305.038
305.131
305.199
305.244
305.268
305.272
305.258
305.228
305.183
305.125
305.056
304.975
304.886
304.788
304.684
304.573
304.457
304.338
304.214
304.088
303.961
303.831
303.702
303.572
303.442
303.313
303.185
303.059
302.934
302.812
302.692
302.574
302.459
302.347
302.237
302.131
302.028
301.928
301.832
301.738
301.648
301.561
301.477
301.397
301.319
301.245
301.173
301.105
301.039
300.977
300.917
300.859
300.804
300.751
300.701
300.653
300.607
300.563
300.521
300.48
300.442
300.404
300.369
300.334
300.301
300.269
300.238
300.208
300.179
300.15
300.122
300.094
300.067
300.04
300.013
287.544
289.032
290.444
291.781
293.042
294.23
295.344
296.386
297.359
298.263
299.1
299.873
300.584
301.235
301.829
302.368
302.855
303.292
303.681
304.026
304.328
304.59
304.815
305.005
305.162
305.288
305.385
305.457
305.504
305.529
305.533
305.518
305.487
305.44
305.379
305.306
305.222
305.128
305.026
304.916
304.8
304.678
304.552
304.423
304.291
304.157
304.021
303.885
303.749
303.612
303.477
303.343
303.21
303.08
302.951
302.825
302.701
302.581
302.463
302.348
302.237
302.129
302.024
301.922
301.824
301.73
301.638
301.551
301.466
301.385
301.307
301.232
301.16
301.091
301.025
300.962
300.902
300.844
300.789
300.736
300.685
300.637
300.591
300.546
300.504
300.463
300.424
300.387
300.351
300.316
300.282
300.25
300.218
300.187
300.157
300.128
300.099
300.07
300.042
300.014
286.959
288.517
289.995
291.395
292.716
293.959
295.125
296.217
297.235
298.181
299.058
299.867
300.612
301.293
301.915
302.48
302.989
303.446
303.854
304.215
304.531
304.806
305.041
305.24
305.404
305.536
305.638
305.713
305.762
305.788
305.793
305.778
305.745
305.695
305.632
305.555
305.467
305.369
305.262
305.147
305.025
304.898
304.766
304.631
304.492
304.352
304.21
304.067
303.925
303.782
303.64
303.5
303.361
303.224
303.09
302.958
302.828
302.702
302.579
302.459
302.342
302.229
302.119
302.013
301.91
301.811
301.715
301.623
301.535
301.45
301.368
301.289
301.214
301.142
301.073
301.007
300.944
300.883
300.826
300.77
300.717
300.667
300.618
300.572
300.528
300.485
300.444
300.405
300.367
300.331
300.296
300.262
300.228
300.196
300.165
300.134
300.104
300.074
300.044
300.015
286.377
288.004
289.549
291.011
292.391
293.689
294.908
296.048
297.111
298.1
299.016
299.861
300.639
301.351
302.001
302.59
303.122
303.6
304.026
304.403
304.733
305.02
305.266
305.473
305.645
305.783
305.89
305.968
306.019
306.046
306.051
306.035
306.001
305.95
305.883
305.803
305.711
305.608
305.496
305.376
305.249
305.116
304.979
304.837
304.693
304.546
304.398
304.249
304.1
303.951
303.803
303.656
303.511
303.368
303.227
303.089
302.954
302.822
302.694
302.568
302.446
302.328
302.213
302.102
301.995
301.892
301.792
301.696
301.603
301.514
301.429
301.347
301.268
301.193
301.121
301.052
300.986
300.923
300.862
300.805
300.749
300.697
300.646
300.598
300.551
300.507
300.464
300.423
300.384
300.346
300.309
300.273
300.239
300.205
300.172
300.14
300.108
300.077
300.046
300.015
285.799
287.495
289.105
290.629
292.068
293.421
294.692
295.88
296.989
298.019
298.974
299.855
300.666
301.408
302.086
302.7
303.255
303.753
304.197
304.59
304.934
305.233
305.49
305.706
305.885
306.028
306.14
306.221
306.275
306.303
306.308
306.291
306.256
306.202
306.133
306.049
305.954
305.846
305.73
305.604
305.472
305.334
305.19
305.043
304.892
304.739
304.585
304.429
304.274
304.119
303.964
303.811
303.66
303.511
303.364
303.221
303.08
302.942
302.808
302.677
302.55
302.427
302.307
302.192
302.08
301.972
301.868
301.768
301.671
301.579
301.49
301.404
301.322
301.244
301.169
301.097
301.028
300.962
300.899
300.839
300.781
300.726
300.673
300.623
300.575
300.528
300.484
300.441
300.4
300.36
300.322
300.285
300.249
300.214
300.179
300.146
300.113
300.08
300.048
300.016
285.224
286.989
288.664
290.25
291.747
293.155
294.477
295.713
296.867
297.939
298.932
299.849
300.693
301.465
302.17
302.809
303.387
303.905
304.367
304.776
305.134
305.445
305.712
305.937
306.123
306.272
306.388
306.473
306.529
306.558
306.563
306.546
306.509
306.453
306.381
306.294
306.194
306.083
305.962
305.831
305.694
305.55
305.4
305.247
305.09
304.931
304.77
304.609
304.447
304.285
304.125
303.966
303.808
303.653
303.501
303.351
303.204
303.061
302.922
302.786
302.653
302.525
302.401
302.28
302.164
302.052
301.944
301.839
301.739
301.642
301.55
301.461
301.376
301.294
301.216
301.141
301.069
301.001
300.935
300.873
300.813
300.756
300.701
300.648
300.598
300.55
300.503
300.459
300.416
300.375
300.335
300.296
300.259
300.222
300.187
300.152
300.117
300.084
300.05
300.017
284.653
286.486
288.226
289.873
291.427
292.891
294.263
295.548
296.746
297.859
298.891
299.844
300.72
301.522
302.254
302.918
303.518
304.056
304.536
304.96
305.333
305.656
305.933
306.166
306.359
306.515
306.635
306.723
306.781
306.812
306.817
306.799
306.76
306.703
306.628
306.538
306.434
306.318
306.192
306.057
305.914
305.764
305.609
305.45
305.287
305.122
304.955
304.787
304.619
304.451
304.284
304.119
303.955
303.794
303.636
303.481
303.328
303.18
303.035
302.893
302.756
302.623
302.494
302.369
302.248
302.131
302.019
301.91
301.806
301.706
301.61
301.517
301.429
301.344
301.263
301.185
301.111
301.04
300.972
300.907
300.844
300.785
300.728
300.673
300.621
300.571
300.523
300.477
300.432
300.389
300.348
300.308
300.269
300.231
300.194
300.158
300.122
300.087
300.052
300.017
284.086
285.986
287.791
289.499
291.111
292.628
294.051
295.383
296.625
297.78
298.85
299.838
300.746
301.578
302.337
303.026
303.648
304.206
304.703
305.144
305.53
305.865
306.152
306.394
306.595
306.756
306.881
306.972
307.032
307.064
307.069
307.051
307.01
306.95
306.873
306.779
306.672
306.552
306.421
306.281
306.132
305.977
305.816
305.651
305.482
305.311
305.138
304.964
304.789
304.615
304.443
304.271
304.102
303.935
303.77
303.609
303.451
303.297
303.147
303
302.858
302.72
302.586
302.456
302.331
302.21
302.093
301.981
301.873
301.769
301.669
301.574
301.482
301.394
301.31
301.229
301.152
301.078
301.008
300.94
300.875
300.814
300.755
300.698
300.644
300.592
300.542
300.494
300.448
300.404
300.361
300.319
300.279
300.239
300.201
300.163
300.126
300.09
300.054
300.018
283.522
285.49
287.358
289.127
290.796
292.367
293.841
295.22
296.506
297.702
298.809
299.832
300.773
301.634
302.42
303.133
303.777
304.355
304.87
305.326
305.725
306.072
306.37
306.621
306.828
306.995
307.124
307.219
307.281
307.314
307.319
307.3
307.259
307.197
307.116
307.019
306.908
306.784
306.648
306.503
306.349
306.189
306.022
305.851
305.676
305.499
305.32
305.139
304.959
304.779
304.6
304.422
304.247
304.074
303.904
303.737
303.574
303.414
303.258
303.106
302.959
302.816
302.677
302.543
302.413
302.288
302.167
302.051
301.939
301.832
301.728
301.629
301.534
301.443
301.356
301.273
301.193
301.116
301.043
300.973
300.906
300.843
300.781
300.723
300.667
300.613
300.561
300.512
300.464
300.418
300.374
300.33
300.289
300.248
300.208
300.169
300.131
300.093
300.056
300.019
282.963
284.998
286.929
288.758
290.483
292.107
293.632
295.057
296.387
297.624
298.769
299.826
300.799
301.69
302.502
303.239
303.905
304.503
305.035
305.506
305.92
306.279
306.586
306.845
307.06
307.232
307.366
307.464
307.528
307.562
307.568
307.548
307.505
307.441
307.358
307.258
307.143
307.014
306.874
306.724
306.565
306.399
306.227
306.05
305.869
305.686
305.5
305.314
305.127
304.941
304.756
304.572
304.391
304.212
304.036
303.864
303.695
303.53
303.369
303.212
303.06
302.912
302.768
302.629
302.495
302.366
302.241
302.121
302.005
301.894
301.787
301.685
301.586
301.492
301.402
301.316
301.233
301.154
301.079
301.006
300.937
300.871
300.808
300.747
300.689
300.634
300.58
300.529
300.48
300.432
300.386
300.342
300.298
300.256
300.215
300.175
300.135
300.096
300.058
300.019
282.407
284.509
286.503
288.391
290.173
291.85
293.424
294.896
296.27
297.546
298.729
299.821
300.825
301.745
302.584
303.345
304.032
304.649
305.199
305.686
306.113
306.483
306.801
307.069
307.29
307.468
307.606
307.707
307.774
307.808
307.814
307.794
307.75
307.683
307.597
307.494
307.375
307.243
307.098
306.943
306.779
306.607
306.43
306.247
306.06
305.871
305.68
305.487
305.294
305.102
304.911
304.721
304.534
304.35
304.168
303.99
303.815
303.645
303.479
303.317
303.159
303.006
302.858
302.715
302.577
302.443
302.314
302.19
302.07
301.956
301.845
301.74
301.638
301.541
301.448
301.359
301.273
301.192
301.114
301.039
300.968
300.9
300.834
300.772
300.712
300.654
300.599
300.546
300.495
300.446
300.399
300.353
300.308
300.265
300.222
300.181
300.14
300.099
300.06
300.02
281.857
284.024
286.081
288.028
289.866
291.595
293.218
294.737
296.153
297.469
298.689
299.815
300.851
301.799
302.665
303.45
304.159
304.795
305.362
305.864
306.304
306.686
307.014
307.29
307.518
307.702
307.844
307.948
308.017
308.053
308.059
308.038
307.992
307.924
307.835
307.729
307.606
307.469
307.32
307.16
306.991
306.814
306.631
306.443
306.25
306.055
305.857
305.659
305.46
305.262
305.065
304.869
304.676
304.486
304.298
304.115
303.935
303.759
303.587
303.42
303.258
303.101
302.948
302.8
302.657
302.519
302.386
302.258
302.135
302.017
301.903
301.794
301.689
301.589
301.493
301.401
301.313
301.229
301.149
301.072
300.998
300.928
300.86
300.796
300.734
300.675
300.618
300.564
300.511
300.46
300.411
300.364
300.318
300.273
300.229
300.186
300.144
300.103
300.061
300.02
281.31
283.543
285.662
287.667
289.56
291.342
293.014
294.578
296.037
297.393
298.65
299.81
300.876
301.854
302.745
303.554
304.284
304.939
305.524
306.041
306.494
306.888
307.225
307.509
307.745
307.934
308.081
308.188
308.258
308.295
308.302
308.28
308.233
308.162
308.071
307.962
307.835
307.694
307.541
307.376
307.202
307.02
306.831
306.637
306.438
306.237
306.034
305.829
305.625
305.42
305.217
305.016
304.817
304.621
304.428
304.239
304.053
303.872
303.695
303.523
303.356
303.194
303.037
302.884
302.737
302.595
302.458
302.326
302.2
302.078
301.96
301.848
301.74
301.637
301.538
301.443
301.353
301.266
301.183
301.104
301.028
300.956
300.886
300.82
300.756
300.695
300.637
300.581
300.526
300.474
300.424
300.375
300.327
300.281
300.236
300.192
300.148
300.106
300.063
300.021
280.768
283.065
285.246
287.31
289.258
291.091
292.811
294.421
295.922
297.317
298.61
299.804
300.902
301.907
302.824
303.657
304.408
305.082
305.684
306.216
306.682
307.087
307.434
307.727
307.969
308.164
308.315
308.425
308.498
308.536
308.542
308.52
308.471
308.399
308.305
308.192
308.062
307.917
307.759
307.59
307.41
307.223
307.029
306.829
306.625
306.418
306.209
305.998
305.788
305.577
305.368
305.161
304.957
304.755
304.556
304.361
304.171
303.984
303.803
303.626
303.454
303.287
303.125
302.968
302.817
302.671
302.53
302.394
302.263
302.138
302.017
301.902
301.791
301.684
301.583
301.485
301.392
301.303
301.218
301.136
301.058
300.983
300.912
300.844
300.778
300.715
300.655
300.597
300.542
300.488
300.436
300.386
300.337
300.289
300.243
300.197
300.153
300.109
300.065
300.022
280.231
282.593
284.834
286.955
288.958
290.842
292.611
294.265
295.808
297.243
298.572
299.799
300.927
301.961
302.903
303.759
304.531
305.224
305.842
306.389
306.869
307.285
307.642
307.943
308.192
308.392
308.547
308.66
308.735
308.774
308.781
308.758
308.708
308.634
308.537
308.421
308.288
308.139
307.976
307.802
307.617
307.425
307.225
307.02
306.81
306.597
306.382
306.166
305.949
305.733
305.518
305.305
305.095
304.888
304.683
304.483
304.287
304.096
303.909
303.727
303.55
303.378
303.212
303.051
302.895
302.745
302.6
302.461
302.327
302.197
302.074
301.955
301.841
301.731
301.627
301.527
301.431
301.339
301.252
301.168
301.088
301.011
300.937
300.867
300.8
300.735
300.674
300.614
300.557
300.502
300.448
300.396
300.346
300.297
300.25
300.203
300.157
300.112
300.067
300.022
279.699
282.124
284.426
286.604
288.66
290.596
292.412
294.111
295.695
297.168
298.533
299.793
300.952
302.013
302.981
303.86
304.653
305.365
306
306.561
307.054
307.481
307.848
308.157
308.412
308.618
308.777
308.893
308.97
309.01
309.017
308.994
308.942
308.866
308.767
308.648
308.511
308.358
308.191
308.012
307.822
307.625
307.419
307.209
306.993
306.775
306.554
306.332
306.109
305.888
305.667
305.448
305.232
305.019
304.81
304.604
304.403
304.206
304.014
303.827
303.646
303.469
303.298
303.133
302.973
302.819
302.67
302.527
302.389
302.257
302.129
302.007
301.89
301.778
301.671
301.568
301.469
301.375
301.285
301.199
301.117
301.038
300.963
300.891
300.821
300.755
300.692
300.631
300.572
300.515
300.46
300.407
300.356
300.305
300.256
300.208
300.161
300.115
300.069
300.023
279.172
281.66
284.021
286.256
288.366
290.352
292.215
293.958
295.584
297.095
298.495
299.788
300.977
302.066
303.059
303.96
304.774
305.504
306.155
306.732
307.237
307.675
308.051
308.368
308.631
308.842
309.005
309.124
309.203
309.244
309.252
309.227
309.175
309.096
308.995
308.872
308.732
308.575
308.403
308.22
308.026
307.823
307.612
307.396
307.175
306.951
306.724
306.496
306.268
306.04
305.814
305.59
305.368
305.149
304.934
304.724
304.517
304.315
304.118
303.927
303.74
303.559
303.384
303.214
303.05
302.892
302.74
302.593
302.451
302.315
302.185
302.059
301.939
301.824
301.714
301.608
301.507
301.411
301.319
301.23
301.146
301.065
300.988
300.914
300.843
300.775
300.71
300.647
300.587
300.528
300.472
300.418
300.365
300.313
300.263
300.214
300.165
300.118
300.07
300.023
278.65
281.2
283.621
285.912
288.074
290.11
292.02
293.806
295.473
297.022
298.457
299.782
301.001
302.117
303.135
304.059
304.894
305.642
306.31
306.9
307.418
307.868
308.253
308.578
308.847
309.063
309.231
309.353
309.434
309.476
309.483
309.459
309.405
309.324
309.22
309.095
308.95
308.79
308.614
308.426
308.227
308.019
307.803
307.581
307.355
307.125
306.892
306.659
306.425
306.192
305.96
305.73
305.503
305.278
305.058
304.842
304.63
304.423
304.221
304.025
303.834
303.649
303.469
303.295
303.127
302.965
302.808
302.658
302.513
302.373
302.239
302.111
301.988
301.87
301.757
301.649
301.545
301.446
301.352
301.261
301.175
301.092
301.012
300.937
300.864
300.794
300.727
300.663
300.601