/*--------------------------------*- C++ -*----------------------------------*\
| =========                 |                                                 |
| \\      /  F ield         | OpenFOAM: The Open Source CFD Toolbox           |
|  \\    /   O peration     | Version:  2406                                  |
|   \\  /    A nd           | Website:  www.openfoam.com                      |
|    \\/     M anipulation  |                                                 |
\*---------------------------------------------------------------------------*/
FoamFile
{
    version     2.0;
    format      ascii;
    arch        "LSB;label=32;scalar=64";
    class       volScalarField;
    location    "15";
    object      gradTx;
}
// * * * * * * * * * * * * * * * * * * * * * * * * * * * * * * * * * * * * * //

dimensions      [0 -1 0 1 0 0 0];

internalField   nonuniform List<scalar> 
20000
(
-3.36076
-2.97019
-2.61668
-2.29791
-2.01156
-1.75526
-1.52666
-1.32366
-1.14402
-0.985573
-0.84636
-0.724544
-0.618336
-0.526051
-0.446144
-0.377206
-0.317949
-0.267198
-0.223881
-0.187037
-0.155802
-0.129409
-0.107181
-0.0885207
-0.0729062
-0.0598814
-0.0490508
-0.0400723
-0.0326516
-0.0265364
-0.0215119
-0.0173951
-0.0140317
-0.0112912
-0.0090643
-0.00725959
-0.00580082
-0.00462469
-0.00367882
-0.00291999
-0.0023127
-0.00182783
-0.00144162
-0.00113468
-0.000891294
-0.000698729
-0.000546702
-0.000426934
-0.000332777
-0.000258905
-0.000201065
-0.000155867
-0.000120616
-9.31757e-05
-7.18553e-05
-5.53203e-05
-4.25199e-05
-3.26282e-05
-2.49975e-05
-1.91213e-05
-1.46036e-05
-1.11363e-05
-8.47938e-06
-6.44678e-06
-4.89427e-06
-3.71029e-06
-2.8087e-06
-2.12328e-06
-1.60285e-06
-1.20836e-06
-9.09717e-07
-6.84008e-07
-5.136e-07
-3.85159e-07
-2.88503e-07
-2.15827e-07
-1.61215e-07
-1.20293e-07
-8.96505e-08
-6.67355e-08
-4.96381e-08
-3.68705e-08
-2.73337e-08
-2.02616e-08
-1.49991e-08
-1.108e-08
-8.20455e-09
-6.01741e-09
-4.45199e-09
-3.27516e-09
-2.42029e-09
-1.78746e-09
-1.31006e-09
-9.65894e-10
-7.21645e-10
-5.44009e-10
-4.44089e-10
-3.33067e-10
-2.66454e-10
-2.33147e-10
-10.0815
-8.90981
-7.8494
-6.89319
-6.03414
-5.2653
-4.57968
-3.97067
-3.43174
-2.95645
-2.53888
-2.17347
-1.85486
-1.57802
-1.33831
-1.13152
-0.95377
-0.801529
-0.671592
-0.561066
-0.467367
-0.388195
-0.321515
-0.26554
-0.2187
-0.179629
-0.14714
-0.120207
-0.0979466
-0.0796028
-0.0645303
-0.0521811
-0.0420915
-0.0338707
-0.0271907
-0.021777
-0.0174011
-0.0138729
-0.0110356
-0.00875927
-0.00693754
-0.00548306
-0.0043245
-0.00340376
-0.00267367
-0.00209602
-0.00163998
-0.0012807
-0.000998255
-0.000776657
-0.00060315
-0.000467566
-0.000361822
-0.000279507
-0.000215551
-0.000165949
-0.000127551
-9.7878e-05
-7.49877e-05
-5.73601e-05
-4.38081e-05
-3.34068e-05
-2.54367e-05
-1.93393e-05
-1.4682e-05
-1.11303e-05
-8.42573e-06
-6.36945e-06
-4.80835e-06
-3.62491e-06
-2.72909e-06
-2.05194e-06
-1.5408e-06
-1.15546e-06
-8.65419e-07
-6.47393e-07
-4.83658e-07
-3.60911e-07
-2.68985e-07
-2.00229e-07
-1.4887e-07
-1.10589e-07
-8.20344e-08
-6.07847e-08
-4.49751e-08
-3.32623e-08
-2.45359e-08
-1.81299e-08
-1.33449e-08
-9.84768e-09
-7.27196e-09
-5.34017e-09
-3.91909e-09
-2.90878e-09
-2.15383e-09
-1.63203e-09
-1.25455e-09
-9.99201e-10
-8.21565e-10
-7.54952e-10
-16.7997
-14.8473
-13.0802
-11.4867
-10.0552
-8.77403
-7.63158
-6.61672
-5.71859
-4.92658
-4.2308
-3.62189
-3.09093
-2.62958
-2.23014
-1.88555
-1.58936
-1.33567
-1.11914
-0.93496
-0.778819
-0.646885
-0.53577
-0.442492
-0.364439
-0.299332
-0.245193
-0.200312
-0.163217
-0.132649
-0.107533
-0.0869542
-0.070141
-0.0564419
-0.0453104
-0.036289
-0.028997
-0.0231178
-0.0183896
-0.0145964
-0.0115607
-0.00913695
-0.00720633
-0.00567202
-0.0044554
-0.00349281
-0.00273286
-0.00213417
-0.00166349
-0.00129422
-0.00100509
-0.000779154
-0.000602942
-0.000465773
-0.000359195
-0.00027654
-0.000212553
-0.000163105
-0.000124961
-9.5586e-05
-7.30029e-05
-5.567e-05
-4.23884e-05
-3.22276e-05
-2.44667e-05
-1.85479e-05
-1.4041e-05
-1.06143e-05
-8.01288e-06
-6.04079e-06
-4.54793e-06
-3.41948e-06
-2.56767e-06
-1.92557e-06
-1.44226e-06
-1.07885e-06
-8.06022e-07
-6.01452e-07
-4.48253e-07
-3.33689e-07
-2.48113e-07
-1.84286e-07
-1.36691e-07
-1.01308e-07
-7.49845e-08
-5.54334e-08
-4.09117e-08
-3.02092e-08
-2.226e-08
-1.64091e-08
-1.20792e-08
-8.91509e-09
-6.56142e-09
-4.85167e-09
-3.61933e-09
-2.70894e-09
-2.05391e-09
-1.64313e-09
-1.37668e-09
-1.24345e-09
-23.5138
-20.7811
-18.3077
-16.0775
-14.0738
-12.2806
-10.6816
-9.26112
-8.00403
-6.8955
-5.92167
-5.06941
-4.32624
-3.6805
-3.12142
-2.63911
-2.22455
-1.86948
-1.56641
-1.30862
-1.09008
-0.905415
-0.749892
-0.619335
-0.510088
-0.418961
-0.343185
-0.280367
-0.228448
-0.185663
-0.150509
-0.121706
-0.0981732
-0.0789992
-0.0634189
-0.0507922
-0.0405858
-0.0323569
-0.0257391
-0.0204299
-0.016181
-0.0127886
-0.0100864
-0.00793889
-0.00623604
-0.00488875
-0.00382508
-0.00298711
-0.00232833
-0.00181148
-0.00140679
-0.00109056
-0.00084392
-0.000651929
-0.000502756
-0.000387066
-0.000297505
-0.000228295
-0.000174906
-0.00013379
-0.000102181
-7.79208e-05
-5.93309e-05
-4.5109e-05
-3.42461e-05
-2.59616e-05
-1.96533e-05
-1.48571e-05
-1.12158e-05
-8.45544e-06
-6.36585e-06
-4.78637e-06
-3.59407e-06
-2.69532e-06
-2.01876e-06
-1.51014e-06
-1.12825e-06
-8.41882e-07
-6.27465e-07
-4.67115e-07
-3.47311e-07
-2.57927e-07
-1.91336e-07
-1.41787e-07
-1.04972e-07
-7.76157e-08
-5.72986e-08
-4.22773e-08
-3.11751e-08
-2.29594e-08
-1.69087e-08
-1.24678e-08
-9.18154e-09
-6.77236e-09
-5.06262e-09
-3.80806e-09
-2.89768e-09
-2.29816e-09
-1.92069e-09
-1.73195e-09
-30.222
-26.7098
-23.5308
-20.6642
-18.089
-15.7842
-13.7289
-11.9032
-10.2875
-8.86273
-7.61109
-6.51568
-5.56048
-4.7305
-4.01192
-3.39203
-2.8592
-2.40283
-2.0133
-1.68197
-1.40107
-1.16372
-0.963828
-0.796025
-0.65561
-0.538486
-0.441092
-0.360352
-0.293621
-0.238631
-0.193447
-0.156427
-0.126181
-0.101537
-0.0815117
-0.0652828
-0.0521646
-0.0415881
-0.0330823
-0.0262585
-0.0207973
-0.0164371
-0.012964
-0.0102038
-0.00801516
-0.00628349
-0.00491637
-0.00383933
-0.0029926
-0.0023283
-0.00180816
-0.0014017
-0.0010847
-0.00083793
-0.000646199
-0.000497502
-0.000382388
-0.000293433
-0.00022481
-0.000171964
-0.000131336
-0.000100154
-7.626e-05
-5.79803e-05
-4.40179e-05
-3.33697e-05
-2.52614e-05
-1.90966e-05
-1.44163e-05
-1.08683e-05
-8.18252e-06
-6.15227e-06
-4.61975e-06
-3.46454e-06
-2.59491e-06
-1.94113e-06
-1.45024e-06
-1.0822e-06
-8.06566e-07
-6.00431e-07
-4.46465e-07
-3.31546e-07
-2.45959e-07
-1.82288e-07
-1.34903e-07
-9.97313e-08
-7.36744e-08
-5.43454e-08
-4.00791e-08
-2.95208e-08
-2.17382e-08
-1.60094e-08
-1.18239e-08
-8.72635e-09
-6.4837e-09
-4.88498e-09
-3.71925e-09
-2.9754e-09
-2.4647e-09
-2.24265e-09
-36.9227
-32.6318
-28.748
-25.2459
-22.0997
-19.2838
-16.7729
-14.5424
-12.5684
-10.8278
-9.29863
-7.96034
-6.79334
-5.77933
-4.90143
-4.1441
-3.49314
-2.93559
-2.4597
-2.05489
-1.71171
-1.42174
-1.17753
-0.972517
-0.800971
-0.657877
-0.538889
-0.440249
-0.358723
-0.29154
-0.236338
-0.19111
-0.154158
-0.12405
-0.0995845
-0.0797573
-0.0637306
-0.0508091
-0.0404173
-0.0320805
-0.0254086
-0.0200816
-0.0158384
-0.0124663
-0.00979232
-0.00767671
-0.00600646
-0.00469063
-0.00365616
-0.00284455
-0.00220908
-0.00171251
-0.00132521
-0.00102373
-0.000789487
-0.000607819
-0.000467182
-0.000358501
-0.000274662
-0.000210098
-0.000160461
-0.000122364
-9.31718e-05
-7.08386e-05
-5.37799e-05
-4.07703e-05
-3.0864e-05
-2.33319e-05
-1.76137e-05
-1.32788e-05
-9.99741e-06
-7.51691e-06
-5.6445e-06
-4.23305e-06
-3.1705e-06
-2.37171e-06
-1.77198e-06
-1.32228e-06
-9.85523e-07
-7.33635e-07
-5.45497e-07
-4.05143e-07
-3.00526e-07
-2.22711e-07
-1.64846e-07
-1.21902e-07
-9.00391e-08
-6.64135e-08
-4.89719e-08
-3.60711e-08
-2.65454e-08
-1.95621e-08
-1.44551e-08
-1.0647e-08
-7.91589e-09
-5.973e-09
-4.54081e-09
-3.60822e-09
-3.0087e-09
-2.76446e-09
-43.6144
-38.5458
-33.9582
-29.8213
-26.1049
-22.7787
-19.8128
-17.178
-14.8463
-12.7901
-10.9839
-9.40303
-8.02452
-6.82674
-5.78973
-4.89516
-4.12623
-3.46762
-2.90549
-2.42732
-2.02194
-1.67941
-1.39093
-1.14877
-0.946133
-0.777106
-0.636554
-0.520037
-0.423735
-0.344377
-0.279171
-0.225746
-0.182097
-0.146532
-0.117633
-0.0942121
-0.0752809
-0.0600176
-0.0477424
-0.0378947
-0.0300136
-0.0237212
-0.018709
-0.0147257
-0.0115671
-0.00906805
-0.00709509
-0.00554078
-0.00431882
-0.00336012
-0.00260948
-0.0020229
-0.00156541
-0.00120929
-0.000932587
-0.000717992
-0.000551864
-0.000423484
-0.000324449
-0.000248183
-0.000189549
-0.000144546
-0.000110062
-8.36806e-05
-6.35296e-05
-4.81617e-05
-3.64595e-05
-2.75621e-05
-2.08072e-05
-1.56865e-05
-1.18101e-05
-8.87992e-06
-6.66802e-06
-5.00066e-06
-3.74547e-06
-2.8018e-06
-2.09336e-06
-1.56207e-06
-1.16425e-06
-8.66707e-07
-6.44451e-07
-4.78639e-07
-3.5506e-07
-2.63101e-07
-1.94755e-07
-1.44007e-07
-1.06348e-07
-7.84928e-08
-5.78426e-08
-4.26548e-08
-3.1386e-08
-2.31259e-08
-1.70419e-08
-1.25788e-08
-9.34808e-09
-7.01661e-09
-5.38458e-09
-4.27436e-09
-3.59712e-09
-3.23075e-09
-50.2953
-44.4503
-39.1599
-34.3894
-30.1037
-26.268
-22.8477
-19.8094
-17.1204
-14.7494
-12.6664
-10.8434
-9.25372
-7.87246
-6.67661
-5.64501
-4.75829
-3.99881
-3.35056
-2.79914
-2.33166
-1.93666
-1.604
-1.32474
-1.09106
-0.896143
-0.734061
-0.599696
-0.488643
-0.397129
-0.321935
-0.260326
-0.209991
-0.168978
-0.135652
-0.108644
-0.0868126
-0.0692113
-0.0550558
-0.0436996
-0.0346112
-0.0273549
-0.0215749
-0.0169814
-0.013339
-0.0104572
-0.00818199
-0.00638957
-0.00498043
-0.00387487
-0.00300924
-0.0023328
-0.00180523
-0.00139455
-0.00107546
-0.000827994
-0.000636415
-0.000488367
-0.00037416
-0.000286209
-0.000218592
-0.000166694
-0.000126927
-9.65032e-05
-7.32647e-05
-5.55421e-05
-4.20468e-05
-3.17861e-05
-2.39961e-05
-1.80906e-05
-1.36202e-05
-1.0241e-05
-7.69013e-06
-5.76719e-06
-4.3196e-06
-3.23134e-06
-2.41425e-06
-1.80156e-06
-1.34275e-06
-9.99589e-07
-7.43272e-07
-5.52014e-07
-4.09528e-07
-3.03468e-07
-2.24609e-07
-1.66089e-07
-1.2268e-07
-9.05276e-08
-6.67577e-08
-4.91718e-08
-3.62155e-08
-2.66565e-08
-1.96509e-08
-1.45328e-08
-1.07803e-08
-8.09353e-09
-6.20615e-09
-4.92939e-09
-4.14113e-09
-3.73035e-09
-56.9639
-50.3438
-44.352
-38.949
-34.0951
-29.7508
-25.877
-22.4358
-19.3904
-16.7049
-14.3458
-12.2811
-10.4806
-8.91624
-7.56184
-6.39347
-5.38918
-4.529
-3.7948
-3.17027
-2.64081
-2.19344
-1.81667
-1.50038
-1.23572
-1.01496
-0.831387
-0.679207
-0.55343
-0.449783
-0.364619
-0.294842
-0.237833
-0.191382
-0.153638
-0.123049
-0.098323
-0.0783879
-0.0623556
-0.0494937
-0.0392003
-0.0309819
-0.0244356
-0.019233
-0.0151077
-0.0118437
-0.00926689
-0.00723681
-0.00564083
-0.00438868
-0.00340827
-0.00264214
-0.00204462
-0.00157948
-0.00121808
-0.000937796
-0.000720813
-0.000553134
-0.000423781
-0.000324167
-0.000247583
-0.000188803
-0.000143762
-0.000109303
-8.29828e-05
-6.29096e-05
-4.76245e-05
-3.60027e-05
-2.71794e-05
-2.04907e-05
-1.54273e-05
-1.15997e-05
-8.71047e-06
-6.53247e-06
-4.8928e-06
-3.66013e-06
-2.73462e-06
-2.04067e-06
-1.52097e-06
-1.13227e-06
-8.4196e-07
-6.25311e-07
-4.63884e-07
-3.43769e-07
-2.54452e-07
-1.88127e-07
-1.38978e-07
-1.02551e-07
-7.56284e-08
-5.5711e-08
-4.10116e-08
-3.02092e-08
-2.226e-08
-1.64535e-08
-1.22236e-08
-9.15934e-09
-7.00551e-09
-5.59552e-09
-4.69624e-09
-4.22995e-09
-63.6183
-56.225
-49.5332
-43.499
-38.078
-33.2262
-28.9
-25.0568
-21.6555
-18.6564
-16.0217
-13.7158
-11.705
-9.95782
-8.4452
-7.14035
-6.01875
-5.05808
-4.23811
-3.54062
-2.94931
-2.44967
-2.02888
-1.67565
-1.38007
-1.13352
-0.928508
-0.758551
-0.618081
-0.502326
-0.407213
-0.329285
-0.265616
-0.213739
-0.171586
-0.137423
-0.109809
-0.0875452
-0.06964
-0.0552757
-0.0437798
-0.0346013
-0.0272903
-0.0214799
-0.0168727
-0.0132274
-0.0103495
-0.00808228
-0.00629985
-0.00490142
-0.00380647
-0.00295084
-0.0022835
-0.00176403
-0.0013604
-0.00104737
-0.000805038
-0.000617767
-0.000473301
-0.000362048
-0.000276516
-0.000210867
-0.000160563
-0.000122078
-9.26814e-05
-7.02625e-05
-5.3191e-05
-4.0211e-05
-3.03566e-05
-2.2886e-05
-1.72308e-05
-1.29559e-05
-9.72885e-06
-7.29624e-06
-5.46494e-06
-4.08812e-06
-3.05442e-06
-2.27932e-06
-1.69885e-06
-1.26472e-06
-9.40426e-07
-6.98464e-07
-5.18185e-07
-3.83982e-07
-2.84217e-07
-2.10154e-07
-1.55231e-07
-1.14564e-07
-8.44547e-08
-6.22391e-08
-4.58078e-08
-3.37397e-08
-2.4869e-08
-1.83742e-08
-1.36446e-08
-1.02363e-08
-7.86038e-09
-6.22835e-09
-5.22915e-09
-4.75175e-09
-70.2571
-62.0922
-54.7021
-48.0382
-42.0516
-36.6935
-31.9158
-27.6715
-23.9154
-20.6032
-17.6936
-15.147
-12.9264
-10.9969
-9.32648
-7.88547
-6.64683
-5.58591
-4.68038
-3.9101
-3.25708
-2.7053
-2.2406
-1.85051
-1.52409
-1.25181
-1.0254
-0.837707
-0.682579
-0.554744
-0.449707
-0.363647
-0.293334
-0.236044
-0.189491
-0.151764
-0.121268
-0.096681
-0.0769073
-0.061044
-0.0483485
-0.0382122
-0.0301382
-0.0237216
-0.0186335
-0.0146078
-0.0114296
-0.00892578
-0.00695733
-0.00541296
-0.00420374
-0.00325881
-0.00252184
-0.00194815
-0.0015024
-0.00115669
-0.000889068
-0.000682252
-0.000522708
-0.000399842
-0.000305382
-0.000232881
-0.000177326
-0.000134823
-0.000102358
-7.75988e-05
-5.8745e-05
-4.44099e-05
-3.35266e-05
-2.5276e-05
-1.90303e-05
-1.4309e-05
-1.0745e-05
-8.05837e-06
-6.03578e-06
-4.51522e-06
-3.37352e-06
-2.51748e-06
-1.87639e-06
-1.39688e-06
-1.03871e-06
-7.71461e-07
-5.72331e-07
-4.24116e-07
-3.13938e-07
-2.32137e-07
-1.71452e-07
-1.26532e-07
-9.33031e-08
-6.8745e-08
-5.06151e-08
-3.72591e-08
-2.74558e-08
-2.02838e-08
-1.50879e-08
-1.13354e-08
-8.67084e-09
-6.88338e-09
-5.77316e-09
-5.25135e-09
-76.8785
-67.9441
-59.8576
-52.5656
-46.0148
-40.1517
-34.9237
-30.2794
-26.1693
-22.545
-19.3611
-16.5746
-14.1447
-12.0334
-10.2055
-8.62864
-7.27327
-6.11237
-5.12148
-4.27861
-3.56404
-2.96026
-2.45177
-2.02491
-1.66772
-1.36978
-1.12204
-0.916657
-0.746909
-0.607026
-0.492089
-0.397919
-0.320979
-0.25829
-0.20735
-0.166067
-0.132697
-0.105793
-0.0841557
-0.0667973
-0.0529052
-0.0418137
-0.0329787
-0.0259573
-0.0203897
-0.0159847
-0.0125069
-0.00976708
-0.00761311
-0.00592318
-0.00459999
-0.00356599
-0.00275955
-0.00213179
-0.00164403
-0.00126574
-0.000972883
-0.000746572
-0.000571988
-0.00043754
-0.000334175
-0.000254839
-0.000194046
-0.000147536
-0.000112011
-8.49167e-05
-6.42852e-05
-4.85984e-05
-3.66888e-05
-2.76602e-05
-2.08255e-05
-1.56589e-05
-1.17587e-05
-8.81865e-06
-6.60529e-06
-4.94128e-06
-3.69189e-06
-2.75504e-06
-2.05348e-06
-1.52874e-06
-1.13674e-06
-8.44291e-07
-6.26377e-07
-4.64173e-07
-3.43581e-07
-2.54052e-07
-1.87661e-07
-1.385e-07
-1.02096e-07
-7.52176e-08
-5.54001e-08
-4.07896e-08
-3.00426e-08
-2.21934e-08
-1.64979e-08
-1.24345e-08
-9.49241e-09
-7.52731e-09
-6.32827e-09
-5.75096e-09
-83.481
-73.7793
-64.9982
-57.0801
-49.9666
-43.6
-37.923
-32.8799
-28.4167
-24.4812
-21.0239
-17.998
-15.3594
-13.0668
-11.0819
-9.36968
-7.89791
-6.63731
-5.56133
-4.64606
-3.87013
-3.21449
-2.66233
-2.19881
-1.81095
-1.48742
-1.2184
-0.99538
-0.811054
-0.659158
-0.534351
-0.432093
-0.348545
-0.280473
-0.225158
-0.180329
-0.144094
-0.114879
-0.0913833
-0.0725341
-0.057449
-0.0454049
-0.0358112
-0.0281867
-0.022141
-0.0173576
-0.0135811
-0.010606
-0.00826702
-0.00643195
-0.00499511
-0.0038723
-0.0029966
-0.00231491
-0.00178525
-0.00137447
-0.00105646
-0.000810711
-0.00062113
-0.000475132
-0.000362887
-0.000276736
-0.00021072
-0.000160214
-0.000121636
-9.22144e-05
-6.98101e-05
-5.27753e-05
-3.98423e-05
-3.00378e-05
-2.26157e-05
-1.7005e-05
-1.27697e-05
-9.57688e-06
-7.17327e-06
-5.36621e-06
-4.00938e-06
-2.992e-06
-2.23009e-06
-1.66025e-06
-1.23455e-06
-9.16933e-07
-6.80267e-07
-5.04119e-07
-3.73146e-07
-2.75924e-07
-2.03826e-07
-1.50402e-07
-1.10889e-07
-8.17013e-08
-6.0163e-08
-4.42868e-08
-3.26295e-08
-2.41029e-08
-1.79412e-08
-1.34781e-08
-1.0314e-08
-8.18234e-09
-6.90559e-09
-6.23945e-09
-90.0628
-79.5962
-70.1229
-61.5804
-53.9061
-47.0375
-40.9129
-35.4722
-30.6572
-26.4114
-22.6815
-19.4171
-16.5704
-14.097
-11.9557
-10.1084
-8.52061
-7.16062
-5.9998
-5.01237
-4.17526
-3.46793
-2.87223
-2.37217
-1.95373
-1.60469
-1.31446
-1.07386
-0.874999
-0.711128
-0.57648
-0.46616
-0.376026
-0.302586
-0.24291
-0.194547
-0.155455
-0.123936
-0.0985884
-0.0782531
-0.0619786
-0.0489849
-0.0386348
-0.0304092
-0.0238868
-0.0187262
-0.014652
-0.0114423
-0.0089189
-0.00693914
-0.00538901
-0.00417767
-0.00323291
-0.00249747
-0.00192605
-0.00148287
-0.00113978
-0.000874652
-0.000670121
-0.000512609
-0.000391512
-0.000298566
-0.000227343
-0.000172854
-0.000131233
-9.949e-05
-7.53184e-05
-5.69397e-05
-4.29864e-05
-3.24083e-05
-2.44006e-05
-1.83472e-05
-1.37776e-05
-1.03328e-05
-7.73955e-06
-5.78988e-06
-4.32595e-06
-3.22825e-06
-2.40623e-06
-1.79138e-06
-1.33205e-06
-9.89353e-07
-7.34013e-07
-5.43943e-07
-4.02645e-07
-2.9774e-07
-2.19913e-07
-1.62304e-07
-1.19671e-07
-8.81406e-08
-6.49036e-08
-4.77951e-08
-3.52274e-08
-2.60236e-08
-1.93512e-08
-1.45328e-08
-1.11244e-08
-8.85958e-09
-7.42739e-09
-6.75016e-09
-96.6225
-85.3935
-75.2302
-66.0655
-57.8323
-50.4634
-43.8928
-38.0558
-32.8901
-28.335
-24.3335
-20.8313
-17.7773
-15.1238
-12.8264
-10.8447
-9.1412
-7.68216
-6.43679
-5.37744
-4.47936
-3.72051
-3.08142
-2.54494
-2.09602
-1.72157
-1.4102
-1.15207
-0.938728
-0.762922
-0.618467
-0.500113
-0.403413
-0.324624
-0.260602
-0.208717
-0.166777
-0.132963
-0.105769
-0.0839528
-0.066493
-0.0525529
-0.0414489
-0.0326242
-0.0256267
-0.0200903
-0.0157193
-0.0122758
-0.00956859
-0.00744462
-0.00578158
-0.00448201
-0.00346843
-0.00267942
-0.00206637
-0.00159091
-0.00122283
-0.000938381
-0.000718949
-0.000549961
-0.000420042
-0.000320324
-0.000243911
-0.000185451
-0.000140797
-0.000106742
-8.08085e-05
-6.10904e-05
-4.61202e-05
-3.47711e-05
-2.61797e-05
-1.9685e-05
-1.47823e-05
-1.10864e-05
-8.30401e-06
-6.21215e-06
-4.64153e-06
-3.46378e-06
-2.58177e-06
-1.92206e-06
-1.42927e-06
-1.06157e-06
-7.87581e-07
-5.83644e-07
-4.32043e-07
-3.19478e-07
-2.35978e-07
-1.74138e-07
-1.28408e-07
-9.4591e-08
-6.96332e-08
-5.13034e-08
-3.78253e-08
-2.79221e-08
-2.07501e-08
-1.55986e-08
-1.19571e-08
-9.4813e-09
-7.9714e-09
-7.24976e-09
-103.158
-91.1698
-80.319
-70.5344
-61.7442
-53.8769
-46.8618
-40.63
-35.1148
-30.2517
-25.9794
-22.2404
-18.9798
-16.1468
-13.694
-11.5782
-9.75954
-8.2018
-6.8722
-5.74119
-4.78235
-3.97218
-3.28986
-2.71708
-2.2378
-1.83802
-1.50558
-1.23
-1.00223
-0.814527
-0.660302
-0.533941
-0.430701
-0.346583
-0.27823
-0.222835
-0.178059
-0.141957
-0.112924
-0.0896318
-0.0709909
-0.0561079
-0.0442528
-0.0348311
-0.0273603
-0.0214494
-0.0167827
-0.0131063
-0.0102159
-0.00794828
-0.00617274
-0.00478525
-0.0037031
-0.00286071
-0.00220618
-0.00169856
-0.00130557
-0.00100188
-0.000767602
-0.00058718
-0.000448469
-0.000342003
-0.00026042
-0.000198004
-0.000150328
-0.000113968
-8.62792e-05
-6.52265e-05
-4.92429e-05
-3.71255e-05
-2.79525e-05
-2.10181e-05
-1.57835e-05
-1.18373e-05
-8.86654e-06
-6.63302e-06
-4.956e-06
-3.69845e-06
-2.75669e-06
-2.05231e-06
-1.52616e-06
-1.13355e-06
-8.40972e-07
-6.23213e-07
-4.61331e-07
-3.41138e-07
-2.51965e-07
-1.85973e-07
-1.37113e-07
-1.0103e-07
-7.43516e-08
-5.47673e-08
-4.03899e-08
-2.98428e-08
-2.21489e-08
-1.66533e-08
-1.27787e-08
-1.01141e-08
-8.49321e-09
-7.78266e-09
-109.669
-96.9235
-85.3879
-74.9858
-65.6409
-57.2771
-49.8193
-43.1942
-37.3309
-32.1608
-27.619
-23.644
-20.1776
-17.1658
-14.5583
-12.3089
-10.3755
-8.71942
-7.30591
-6.10352
-5.08417
-4.22286
-3.49748
-2.88856
-2.37903
-1.95401
-1.6006
-1.30762
-1.06548
-0.865932
-0.701974
-0.567639
-0.457883
-0.368456
-0.29579
-0.236899
-0.189296
-0.150917
-0.120051
-0.0952887
-0.0754714
-0.0596491
-0.0470457
-0.0370295
-0.0290872
-0.0228032
-0.017842
-0.0139335
-0.0108608
-0.00844999
-0.00656238
-0.00508731
-0.00393686
-0.0030413
-0.00234546
-0.00180579
-0.001388
-0.00106514
-0.000816067
-0.000624255
-0.000476788
-0.0003636
-0.000276866
-0.000210509
-0.000159823
-0.000121166
-9.1729e-05
-6.93468e-05
-5.23537e-05
-3.9471e-05
-2.97186e-05
-2.23462e-05
-1.67809e-05
-1.25854e-05
-9.4269e-06
-7.05227e-06
-5.2693e-06
-3.93227e-06
-2.931e-06
-2.18211e-06
-1.62267e-06
-1.20522e-06
-8.94163e-07
-6.62648e-07
-4.90508e-07
-3.62721e-07
-2.6793e-07
-1.97742e-07
-1.45783e-07
-1.07414e-07
-7.90812e-08
-5.82423e-08
-4.29323e-08
-3.17413e-08
-2.35811e-08
-1.7697e-08
-1.3578e-08
-1.07581e-08
-9.05942e-09
-8.23785e-09
-116.152
-102.653
-90.4358
-79.4188
-69.5214
-60.6632
-52.7644
-45.7477
-39.5378
-34.0621
-29.2518
-25.0417
-21.3705
-18.1806
-15.4189
-13.0366
-10.9888
-9.23489
-7.73781
-6.46434
-5.38473
-4.4725
-3.70424
-3.05932
-2.51967
-2.06953
-1.69522
-1.38492
-1.12846
-0.917123
-0.743472
-0.601196
-0.484952
-0.390238
-0.313276
-0.250904
-0.200487
-0.159839
-0.127148
-0.100922
-0.0799333
-0.0631755
-0.0498271
-0.0392188
-0.0308069
-0.0241514
-0.0188969
-0.0147573
-0.0115029
-0.00894962
-0.00695041
-0.00538813
-0.00416966
-0.00322115
-0.00248416
-0.00191258
-0.00147009
-0.00112813
-0.000864333
-0.000661178
-0.000504989
-0.000385108
-0.000293244
-0.000222962
-0.000169278
-0.000128335
-9.71566e-05
-7.34503e-05
-5.54519e-05
-4.1807e-05
-3.14775e-05
-2.36689e-05
-1.77742e-05
-1.33305e-05
-9.98505e-06
-7.46986e-06
-5.58131e-06
-4.16517e-06
-3.10459e-06
-2.31135e-06
-1.71877e-06
-1.27665e-06
-9.47153e-07
-7.01905e-07
-5.19618e-07
-3.84215e-07
-2.83795e-07
-2.09455e-07
-1.54421e-07
-1.13809e-07
-8.37996e-08
-6.1684e-08
-4.54858e-08
-3.36065e-08
-2.498e-08
-1.87517e-08
-1.43663e-08
-1.14242e-08
-9.58122e-09
-8.72635e-09
-122.607
-108.358
-95.4614
-83.8321
-73.3847
-64.0343
-55.6966
-48.2899
-41.735
-35.955
-30.8773
-26.4333
-22.558
-19.1909
-16.2758
-13.761
-11.5995
-9.74808
-8.16781
-6.82357
-5.68396
-4.72104
-3.91008
-3.22932
-2.65968
-2.18453
-1.78943
-1.46189
-1.19117
-0.968088
-0.784787
-0.634605
-0.511901
-0.411924
-0.330685
-0.264847
-0.211628
-0.168721
-0.134214
-0.106531
-0.0843754
-0.0666864
-0.0525963
-0.0413984
-0.032519
-0.0254936
-0.0199471
-0.0155775
-0.0121423
-0.00944705
-0.00733673
-0.00568762
-0.00440143
-0.0034002
-0.00262225
-0.0020189
-0.00155181
-0.00119085
-0.000912387
-0.000697939
-0.000533068
-0.000406522
-0.00030955
-0.000235362
-0.000178692
-0.000135472
-0.000102561
-7.75359e-05
-5.85366e-05
-4.41328e-05
-3.32288e-05
-2.49859e-05
-1.87633e-05
-1.40723e-05
-1.05408e-05
-7.88563e-06
-5.89201e-06
-4.39706e-06
-3.27748e-06
-2.44006e-06
-1.81447e-06
-1.34773e-06
-9.99911e-07
-7.41018e-07
-5.4855e-07
-4.05631e-07
-2.99638e-07
-2.21134e-07
-1.63036e-07
-1.20148e-07
-8.84404e-08
-6.51368e-08
-4.8006e-08
-3.54938e-08
-2.63678e-08
-1.97953e-08
-1.51545e-08
-1.20459e-08
-1.01363e-08
-9.22595e-09
-129.031
-114.036
-100.463
-88.2248
-77.23
-67.3895
-58.615
-50.8203
-43.9218
-37.8389
-32.4952
-27.8184
-23.74
-20.1965
-17.1286
-14.4821
-12.2073
-10.2589
-8.59579
-7.18111
-5.98179
-4.96841
-4.11496
-3.39853
-2.79905
-2.299
-1.88319
-1.53849
-1.25359
-1.01881
-0.825909
-0.667857
-0.538724
-0.433509
-0.348013
-0.278724
-0.222718
-0.177562
-0.141247
-0.112113
-0.0887968
-0.0701809
-0.0553524
-0.0435677
-0.0342231
-0.0268296
-0.0209925
-0.0163939
-0.0127786
-0.00994215
-0.00772124
-0.00598571
-0.00463212
-0.00357842
-0.0027597
-0.00212473
-0.00163316
-0.00125327
-0.000960218
-0.000734529
-0.000561016
-0.000427836
-0.000325781
-0.000247703
-0.000188063
-0.000142577
-0.000107939
-8.16027e-05
-6.16071e-05
-4.64479e-05
-3.49721e-05
-2.62968e-05
-1.97478e-05
-1.48108e-05
-1.1094e-05
-8.29951e-06
-6.20128e-06
-4.62789e-06
-3.44955e-06
-2.56818e-06
-1.90978e-06
-1.4185e-06
-1.05242e-06
-7.79932e-07
-5.77371e-07
-4.26981e-07
-3.15359e-07
-2.32758e-07
-1.71607e-07
-1.26432e-07
-9.31255e-08
-6.85785e-08
-5.05374e-08
-3.73479e-08
-2.77445e-08
-2.08389e-08
-1.59761e-08
-1.26898e-08
-1.06581e-08
-9.68114e-09
-135.423
-119.685
-105.441
-92.5957
-81.0562
-70.7282
-61.5189
-53.338
-46.0978
-39.7136
-34.1051
-29.1966
-24.9162
-21.197
-17.9772
-15.1996
-12.8121
-10.7671
-9.02165
-7.53688
-6.27814
-5.21456
-4.31883
-3.5669
-2.93772
-2.41289
-1.97649
-1.61471
-1.31569
-1.06929
-0.866826
-0.700944
-0.565414
-0.454986
-0.365254
-0.292533
-0.233752
-0.186359
-0.148245
-0.117668
-0.0931962
-0.0736581
-0.0580949
-0.0457264
-0.0359188
-0.028159
-0.0220326
-0.0172062
-0.0134118
-0.0104348
-0.00810385
-0.00628233
-0.00486167
-0.00375575
-0.00289646
-0.00223003
-0.0017141
-0.00131539
-0.00100781
-0.000770939
-0.000588826
-0.000449045
-0.000341932
-0.000259984
-0.000197387
-0.000149647
-0.000113292
-8.56495e-05
-6.46625e-05
-4.87517e-05
-3.67068e-05
-2.76013e-05
-2.07276e-05
-1.55457e-05
-1.16444e-05
-8.71138e-06
-6.50906e-06
-4.85759e-06
-3.62079e-06
-2.69568e-06
-2.0046e-06
-1.48898e-06
-1.10468e-06
-8.18678e-07
-6.0606e-07
-4.48164e-07
-3.3108e-07
-2.44305e-07
-1.80134e-07
-1.32727e-07
-9.77329e-08
-7.19758e-08
-5.30465e-08
-3.9202e-08
-2.91211e-08
-2.19047e-08
-1.67644e-08
-1.33116e-08
-1.1191e-08
-1.01585e-08
-141.783
-125.305
-110.392
-96.9437
-84.8624
-74.0494
-64.4077
-55.8426
-48.2624
-41.5784
-35.7066
-30.5676
-26.0862
-22.1924
-18.8213
-15.9133
-13.4137
-11.2727
-9.44528
-7.89079
-6.57294
-5.45942
-4.52163
-3.73439
-3.07566
-2.5262
-2.0693
-1.69053
-1.37747
-1.1195
-0.90753
-0.733859
-0.591964
-0.476351
-0.382406
-0.30627
-0.244729
-0.195111
-0.155206
-0.123193
-0.0975727
-0.0771171
-0.0608231
-0.0478738
-0.0376056
-0.0294814
-0.0230674
-0.0180143
-0.0140417
-0.0109249
-0.00848447
-0.00657741
-0.00509002
-0.00393217
-0.00303252
-0.00233478
-0.00179462
-0.00137719
-0.00105516
-0.00080716
-0.000616492
-0.000470145
-0.000358
-0.000272201
-0.000206664
-0.00015668
-0.000118617
-8.96754e-05
-6.77021e-05
-5.10436e-05
-3.84326e-05
-2.88991e-05
-2.17022e-05
-1.62767e-05
-1.21921e-05
-9.12115e-06
-6.81525e-06
-5.08611e-06
-3.79115e-06
-2.82254e-06
-2.09893e-06
-1.55904e-06
-1.15671e-06
-8.57225e-07
-6.3457e-07
-4.6928e-07
-3.46656e-07
-2.55829e-07
-1.88616e-07
-1.38989e-07
-1.02329e-07
-7.53841e-08
-5.55445e-08
-4.10449e-08
-3.04978e-08
-2.29039e-08
-1.75748e-08
-1.39666e-08
-1.17018e-08
-1.06359e-08
-148.107
-130.895
-115.316
-101.268
-88.6476
-77.3523
-67.2806
-58.3335
-50.4152
-43.433
-37.2993
-31.931
-27.2497
-23.1823
-19.6609
-16.6231
-14.012
-11.7755
-9.86658
-8.24276
-6.86613
-5.70293
-4.72331
-3.90096
-3.21285
-2.63888
-2.16159
-1.76593
-1.43892
-1.16943
-0.94801
-0.766592
-0.618369
-0.497599
-0.399463
-0.319932
-0.255645
-0.203814
-0.162129
-0.128688
-0.101925
-0.0805571
-0.0635363
-0.0500093
-0.0392831
-0.0307965
-0.0240964
-0.0188179
-0.0146681
-0.0114123
-0.008863
-0.00687086
-0.00531712
-0.00410761
-0.00316783
-0.00243897
-0.0018747
-0.00143864
-0.00110225
-0.000843182
-0.000644006
-0.000491129
-0.000373979
-0.000284352
-0.000215889
-0.000163674
-0.000123913
-9.36794e-05
-7.07252e-05
-5.3323e-05
-4.0149e-05
-3.01899e-05
-2.26716e-05
-1.70038e-05
-1.27368e-05
-9.52866e-06
-7.11978e-06
-5.31338e-06
-3.96058e-06
-2.94871e-06
-2.19278e-06
-1.62875e-06
-1.20843e-06
-8.95573e-07
-6.62959e-07
-4.90263e-07
-3.62155e-07
-2.67275e-07
-1.97065e-07
-1.45195e-07
-1.06937e-07
-7.8737e-08
-5.80314e-08
-4.28879e-08
-3.18523e-08
-2.39364e-08
-1.83742e-08
-1.45661e-08
-1.22347e-08
-1.11244e-08
-154.394
-136.451
-120.211
-105.567
-92.411
-80.6362
-70.1369
-60.8099
-52.5554
-45.2769
-38.8828
-33.2866
-28.4066
-24.1664
-20.4955
-17.3288
-14.6069
-12.2754
-10.2855
-8.59269
-7.15761
-5.94504
-4.92383
-4.06657
-3.34924
-2.7509
-2.25336
-1.8409
-1.5
-1.21908
-0.988256
-0.799137
-0.64462
-0.518723
-0.416422
-0.333514
-0.266498
-0.212466
-0.169013
-0.134152
-0.106252
-0.0839772
-0.0662338
-0.0521326
-0.040951
-0.0321041
-0.0251195
-0.0196169
-0.0152909
-0.0118969
-0.00923934
-0.00716262
-0.00554291
-0.00428205
-0.00330236
-0.00254255
-0.00195432
-0.00149975
-0.00114906
-0.000878997
-0.000671362
-0.000511992
-0.000389867
-0.000296432
-0.000225062
-0.000170629
-0.000129178
-9.76604e-05
-7.3731e-05
-5.55894e-05
-4.18556e-05
-3.14732e-05
-2.36354e-05
-1.77268e-05
-1.32784e-05
-9.93386e-06
-7.42261e-06
-5.5394e-06
-4.12904e-06
-3.07416e-06
-2.28608e-06
-1.69809e-06
-1.25986e-06
-9.33675e-07
-6.91192e-07
-5.11136e-07
-3.77565e-07
-2.78666e-07
-2.0548e-07
-1.51379e-07
-1.11489e-07
-8.20788e-08
-6.05183e-08
-4.47087e-08
-3.3229e-08
-2.49356e-08
-1.91513e-08
-1.52101e-08
-1.27565e-08
-1.15685e-08
-160.644
-141.975
-125.077
-109.84
-96.1515
-83.9002
-72.9758
-63.2714
-54.6827
-47.1096
-40.4567
-34.6339
-29.5564
-25.1446
-21.3251
-18.0303
-15.1981
-12.7723
-10.7018
-8.9405
-7.44734
-6.18568
-5.12313
-4.23117
-3.48481
-2.86225
-2.34457
-1.91542
-1.56072
-1.26843
-1.02826
-0.831484
-0.670713
-0.53972
-0.433278
-0.347014
-0.277285
-0.221067
-0.175854
-0.139582
-0.110553
-0.0873766
-0.068915
-0.054243
-0.0426088
-0.0334037
-0.0261364
-0.0204111
-0.01591
-0.0123785
-0.00961341
-0.00745262
-0.00576733
-0.00445542
-0.00343607
-0.0026455
-0.00203346
-0.00156048
-0.0011956
-0.000914596
-0.000698553
-0.000532729
-0.000405658
-0.00030844
-0.000234179
-0.000177542
-0.000134412
-0.000101617
-7.67186e-05
-5.78421e-05
-4.35519e-05
-3.27489e-05
-2.45935e-05
-1.84454e-05
-1.38167e-05
-1.03366e-05
-7.72357e-06
-5.76406e-06
-4.29656e-06
-3.19884e-06
-2.37884e-06
-1.76695e-06
-1.31097e-06
-9.71589e-07
-7.19258e-07
-5.31875e-07
-3.92908e-07
-2.89968e-07
-2.13807e-07
-1.57541e-07
-1.16007e-07
-8.54317e-08
-6.29718e-08
-4.65405e-08
-3.45723e-08
-2.5957e-08
-1.99063e-08
-1.58207e-08
-1.32672e-08
-1.2057e-08
-166.854
-147.463
-129.912
-114.086
-99.8684
-87.1434
-75.7968
-65.7172
-56.7966
-48.9306
-42.0206
-35.9728
-30.6989
-26.1166
-22.1495
-18.7272
-15.7856
-13.2661
-11.1155
-9.28611
-7.73522
-6.42479
-5.32117
-4.39473
-3.61952
-2.97289
-2.4352
-1.98946
-1.62105
-1.31746
-1.06801
-0.863626
-0.696641
-0.560584
-0.450027
-0.360428
-0.288005
-0.229613
-0.182652
-0.144978
-0.114827
-0.0907545
-0.0715792
-0.05634
-0.044256
-0.0346952
-0.0271469
-0.0212002
-0.0165251
-0.0128571
-0.00998511
-0.00774077
-0.00599034
-0.00462771
-0.00356894
-0.0027478
-0.0021121
-0.00162083
-0.00124184
-0.000949969
-0.000725572
-0.000553335
-0.00042135
-0.000320372
-0.000243239
-0.000184411
-0.000139613
-0.000105549
-7.96875e-05
-6.00807e-05
-4.52375e-05
-3.40165e-05
-2.55455e-05
-1.91595e-05
-1.43517e-05
-1.07369e-05
-8.02268e-06
-5.9873e-06
-4.46296e-06
-3.32278e-06
-2.47099e-06
-1.83542e-06
-1.36178e-06
-1.00923e-06
-7.47136e-07
-5.52514e-07
-4.0814e-07
-3.01215e-07
-2.22089e-07
-1.63647e-07
-1.20526e-07
-8.87401e-08