/*--------------------------------*- C++ -*----------------------------------*\
| =========                 |                                                 |
| \\      /  F ield         | OpenFOAM: The Open Source CFD Toolbox           |
|  \\    /   O peration     | Version:  2406                                  |
|   \\  /    A nd           | Website:  www.openfoam.com                      |
|    \\/     M anipulation  |                                                 |
\*---------------------------------------------------------------------------*/
FoamFile
{
    version     2.0;
    format      ascii;
    arch        "LSB;label=32;scalar=64";
    class       volScalarField;
    location    "105";
    object      gradTx;
}
// * * * * * * * * * * * * * * * * * * * * * * * * * * * * * * * * * * * * * //

dimensions      [0 -1 0 1 0 0 0];

internalField   nonuniform List<scalar> 
20000
(
1.06475
0.748074
0.452476
0.177114
-0.0786753
-0.315263
-0.533529
-0.735756
-0.921466
-1.09041
-1.24471
-1.38545
-1.51272
-1.62683
-1.72863
-1.819
-1.8987
-1.96826
-2.02819
-2.079
-2.12124
-2.15547
-2.18224
-2.20206
-2.21541
-2.22276
-2.22454
-2.22115
-2.21301
-2.20047
-2.18392
-2.16368
-2.14011
-2.1135
-2.08415
-2.05236
-2.01838
-1.98246
-1.94486
-1.90578
-1.86543
-1.82403
-1.78175
-1.73877
-1.69524
-1.65132
-1.60715
-1.56286
-1.51857
-1.47439
-1.43042
-1.38677
-1.34351
-1.30072
-1.25848
-1.21686
-1.1759
-1.13567
-1.09621
-1.05757
-1.01978
-0.982871
-0.946876
-0.911819
-0.877719
-0.844596
-0.812462
-0.781328
-0.751204
-0.722096
-0.694008
-0.666941
-0.640895
-0.61587
-0.591863
-0.568868
-0.546882
-0.525898
-0.50591
-0.486909
-0.468888
-0.451838
-0.435751
-0.420619
-0.406432
-0.393181
-0.380858
-0.369455
-0.358964
-0.349376
-0.340684
-0.332883
-0.325964
-0.319924
-0.314756
-0.310456
-0.307021
-0.304447
-0.302732
-0.301875
3.19396
2.24404
1.3572
0.531359
-0.235281
-0.945835
-1.60161
-2.207
-2.76327
-3.27091
-3.73433
-4.15626
-4.53763
-4.87987
-5.18537
-5.45662
-5.69572
-5.90436
-6.08408
-6.23646
-6.36317
-6.46586
-6.54617
-6.60563
-6.6457
-6.66774
-6.67307
-6.66292
-6.63847
-6.60087
-6.55121
-6.49052
-6.41979
-6.33997
-6.25195
-6.15657
-6.05463
-5.9469
-5.83409
-5.71686
-5.59584
-5.47164
-5.34481
-5.21587
-5.08529
-4.95355
-4.82105
-4.68819
-4.55532
-4.4228
-4.29091
-4.15996
-4.03019
-3.90184
-3.77514
-3.65027
-3.52742
-3.40674
-3.28837
-3.17245
-3.05908
-2.94837
-2.84039
-2.73523
-2.63294
-2.53358
-2.43718
-2.34379
-2.25343
-2.16611
-2.08185
-2.00066
-1.92253
-1.84746
-1.77544
-1.70646
-1.64051
-1.57757
-1.5176
-1.46061
-1.40655
-1.3554
-1.30715
-1.26175
-1.21919
-1.17945
-1.14248
-1.10827
-1.0768
-1.04804
-1.02197
-0.998566
-0.977813
-0.959692
-0.944189
-0.931291
-0.920986
-0.913265
-0.908122
-0.905551
5.32186
3.73886
2.26193
0.885804
-0.391727
-1.57606
-2.66954
-3.67761
-4.60402
-5.45066
-6.22336
-6.92617
-7.56128
-8.13151
-8.64075
-9.09294
-9.49144
-9.83907
-10.1385
-10.3924
-10.6035
-10.7746
-10.9085
-11.0076
-11.0743
-11.1111
-11.12
-11.103
-11.0623
-10.9997
-10.9169
-10.8158
-10.6979
-10.5649
-10.4182
-10.2593
-10.0894
-9.90987
-9.72188
-9.52653
-9.32487
-9.11791
-8.90655
-8.69168
-8.4741
-8.25455
-8.03376
-7.81236
-7.59096
-7.37012
-7.15035
-6.93212
-6.71587
-6.502
-6.29086
-6.08278
-5.87806
-5.67696
-5.47972
-5.28655
-5.09763
-4.91314
-4.73321
-4.55797
-4.38751
-4.22194
-4.06131
-3.90568
-3.7551
-3.60959
-3.46918
-3.33388
-3.20369
-3.07859
-2.95858
-2.84364
-2.73374
-2.62884
-2.52892
-2.43394
-2.34386
-2.25863
-2.17822
-2.10258
-2.03166
-1.96542
-1.90382
-1.84682
-1.79437
-1.74645
-1.703
-1.664
-1.62942
-1.59922
-1.57339
-1.5519
-1.53472
-1.52186
-1.51329
-1.509
7.44881
5.23252
3.16551
1.23982
-0.548449
-2.20577
-3.73641
-5.14729
-6.44381
-7.62922
-8.7109
-9.69429
-10.5829
-11.3811
-12.094
-12.7271
-13.2849
-13.7714
-14.1904
-14.5457
-14.8412
-15.0807
-15.2681
-15.4068
-15.5003
-15.5517
-15.5641
-15.5404
-15.4834
-15.3957
-15.2799
-15.1383
-14.9734
-14.7872
-14.5819
-14.3594
-14.1217
-13.8704
-13.6073
-13.3338
-13.0516
-12.7619
-12.4661
-12.1653
-11.8608
-11.5535
-11.2445
-10.9346
-10.6247
-10.3156
-10.008
-9.70258
-9.3999
-9.10055
-8.80503
-8.51379
-8.22725
-7.94578
-7.66971
-7.39934
-7.13493
-6.8767
-6.62486
-6.37958
-6.141
-5.90925
-5.68442
-5.4666
-5.25584
-5.05218
-4.85566
-4.66628
-4.48405
-4.30896
-4.14099
-3.98011
-3.82629
-3.67947
-3.53962
-3.40668
-3.28059
-3.16131
-3.04876
-2.94288
-2.84362
-2.75091
-2.66469
-2.58491
-2.51151
-2.44442
-2.38361
-2.32903
-2.28062
-2.23836
-2.2022
-2.17212
-2.14808
-2.13008
-2.11808
-2.11208
9.57465
6.72559
4.06809
1.59342
-0.704984
-2.83491
-4.80233
-6.61576
-8.2821
-9.80594
-11.1962
-12.4599
-13.6019
-14.6278
-15.5444
-16.3581
-17.0751
-17.7003
-18.2388
-18.6954
-19.0752
-19.383
-19.6239
-19.8022
-19.9224
-19.9885
-20.0044
-19.974
-19.9007
-19.788
-19.6391
-19.4572
-19.2451
-19.0058
-18.742
-18.456
-18.1505
-17.8275
-17.4893
-17.1379
-16.7751
-16.4028
-16.0226
-15.636
-15.2446
-14.8496
-14.4524
-14.0541
-13.6559
-13.2586
-12.8632
-12.4706
-12.0816
-11.6969
-11.317
-10.9427
-10.5744
-10.2126
-9.85781
-9.51031
-9.17046
-8.83856
-8.51488
-8.19962
-7.89298
-7.59511
-7.30614
-7.02617
-6.75528
-6.49352
-6.24093
-5.99753
-5.76331
-5.53827
-5.32238
-5.1156
-4.91789
-4.72919
-4.54944
-4.37858
-4.21652
-4.0632
-3.91854
-3.78246
-3.65488
-3.53572
-3.42491
-3.32236
-3.22802
-3.1418
-3.06364
-2.99348
-2.93127
-2.87695
-2.83047
-2.79181
-2.76091
-2.73777
-2.72235
-2.71464
11.6981
8.21728
4.96995
1.94668
-0.861294
-3.46338
-5.86712
-8.08266
-10.1184
-11.9802
-13.6788
-15.2225
-16.6176
-17.871
-18.9909
-19.9852
-20.8611
-21.6249
-22.2826
-22.8404
-23.3044
-23.6806
-23.9748
-24.1927
-24.3395
-24.4203
-24.4398
-24.4026
-24.3131
-24.1754
-23.9935
-23.7712
-23.5122
-23.2198
-22.8974
-22.5481
-22.1748
-21.7802
-21.367
-20.9377
-20.4945
-20.0396
-19.5751
-19.1028
-18.6246
-18.1421
-17.6568
-17.1702
-16.6836
-16.1983
-15.7152
-15.2356
-14.7603
-14.2903
-13.8262
-13.3689
-12.919
-12.477
-12.0435
-11.6189
-11.2037
-10.7982
-10.4028
-10.0176
-9.64301
-9.27909
-8.92605
-8.58401
-8.25306
-7.93326
-7.62467
-7.3273
-7.04115
-6.76622
-6.50246
-6.24983
-6.00829
-5.77775
-5.55814
-5.34939
-5.1514
-4.96409
-4.78735
-4.6211
-4.46523
-4.31966
-4.18427
-4.05899
-3.94373
-3.83839
-3.74291
-3.65719
-3.58119
-3.51482
-3.45804
-3.4108
-3.37306
-3.34478
-3.32595
-3.31653
13.8184
9.70679
5.87074
2.29952
-1.01739
-4.09104
-6.93051
-9.54757
-11.9521
-14.1515
-16.1579
-17.9812
-19.6291
-21.1098
-22.4328
-23.6073
-24.6419
-25.5441
-26.321
-26.9799
-27.5279
-27.9723
-28.3199
-28.5773
-28.7507
-28.8462
-28.8692
-28.8253
-28.7195
-28.5568
-28.3419
-28.0794
-27.7734
-27.428
-27.0472
-26.6346
-26.1936
-25.7275
-25.2395
-24.7323
-24.2088
-23.6715
-23.1228
-22.5649
-22
-21.4301
-20.8569
-20.2821
-19.7073
-19.1339
-18.5634
-17.9968
-17.4354
-16.8802
-16.332
-15.7918
-15.2603
-14.7382
-14.2262
-13.7247
-13.2342
-12.7553
-12.2881
-11.8332
-11.3907
-10.9608
-10.5438
-10.1397
-9.7488
-9.37105
-9.00652
-8.65526
-8.31725
-7.99249
-7.68093
-7.38252
-7.0972
-6.82488
-6.56547
-6.31889
-6.08502
-5.86376
-5.65499
-5.45861
-5.27449
-5.10253
-4.94261
-4.79463
-4.65847
-4.53404
-4.42125
-4.32
-4.23022
-4.15183
-4.08476
-4.02896
-3.98438
-3.95098
-3.92872
-3.9176
15.9352
11.1938
6.77009
2.65179
-1.17324
-4.71771
-7.99219
-11.0101
-13.7829
-16.3192
-18.633
-20.7356
-22.6359
-24.3434
-25.8691
-27.2237
-28.4167
-29.457
-30.3528
-31.1126
-31.7446
-32.2571
-32.658
-32.9548
-33.1548
-33.2649
-33.2914
-33.2408
-33.1188
-32.9312
-32.6834
-32.3806
-32.0277
-31.6295
-31.1904
-30.7145
-30.206
-29.6685
-29.1057
-28.5208
-27.9171
-27.2975
-26.6647
-26.0215
-25.37
-24.7128
-24.0517
-23.3889
-22.7261
-22.0649
-21.407
-20.7536
-20.1062
-19.4659
-18.8338
-18.2108
-17.5979
-16.9959
-16.4054
-15.827
-15.2615
-14.7091
-14.1705
-13.6458
-13.1355
-12.6398
-12.1589
-11.693
-11.2421
-10.8065
-10.3862
-9.98109
-9.5913
-9.21679
-8.85751
-8.51339
-8.18436
-7.87032
-7.57118
-7.28682
-7.01713
-6.76197
-6.52123
-6.29476
-6.08244
-5.88414
-5.69973
-5.52907
-5.37206
-5.22858
-5.09851
-4.98175
-4.87821
-4.78781
-4.71047
-4.64612
-4.59471
-4.55619
-4.53053
-4.51771
18.048
12.6779
7.66773
3.00338
-1.32882
-5.34322
-9.05189
-12.4699
-15.6103
-18.483
-21.1035
-23.4848
-25.637
-27.571
-29.2991
-30.8333
-32.1844
-33.3626
-34.3772
-35.2377
-35.9535
-36.5339
-36.988
-37.3242
-37.5507
-37.6754
-37.7055
-37.6481
-37.5099
-37.2974
-37.0168
-36.6739
-36.2742
-35.8232
-35.3258
-34.7869
-34.2109
-33.6022
-32.9647
-32.3023
-31.6186
-30.9168
-30.2001
-29.4716
-28.7338
-27.9894
-27.2407
-26.49
-25.7393
-24.9904
-24.2452
-23.5053
-22.772
-22.0468
-21.3309
-20.6254
-19.9312
-19.2493
-18.5805
-17.9255
-17.2849
-16.6594
-16.0493
-15.4551
-14.8771
-14.3156
-13.771
-13.2433
-12.7327
-12.2393
-11.7632
-11.3044
-10.863
-10.4388
-10.0319
-9.64215
-9.26949
-8.91382
-8.57502
-8.25296
-7.94751
-7.65853
-7.38586
-7.12937
-6.8889
-6.6643
-6.45544
-6.26216
-6.08433
-5.92182
-5.7745
-5.64226
-5.525
-5.42261
-5.33502
-5.26214
-5.20391
-5.16028
-5.13122
-5.1167
20.1564
14.1589
8.56346
3.35423
-1.48407
-5.9674
-10.1093
-13.9266
-17.4338
-20.6421
-23.5688
-26.2283
-28.6319
-30.7919
-32.7218
-34.4352
-35.9442
-37.26
-38.393
-39.354
-40.1535
-40.8017
-41.3088
-41.6844
-41.9374
-42.0766
-42.1102
-42.0461
-41.8918
-41.6545
-41.3411
-40.9581
-40.5117
-40.008
-39.4525
-38.8506
-38.2074
-37.5276
-36.8156
-36.0759
-35.3122
-34.5285
-33.7281
-32.9144
-32.0904
-31.259
-30.4229
-29.5845
-28.7461
-27.9098
-27.0775
-26.2511
-25.4322
-24.6223
-23.8228
-23.0348
-22.2595
-21.498
-20.7511
-20.0195
-19.3042
-18.6055
-17.9241
-17.2605
-16.615
-15.988
-15.3797
-14.7904
-14.2201
-13.6691
-13.1374
-12.625
-12.132
-11.6583
-11.2038
-10.7685
-10.3523
-9.95513
-9.57675
-9.21706
-8.87593
-8.55319
-8.24867
-7.96221
-7.69365
-7.44282
-7.20955
-6.9937
-6.79509
-6.6136
-6.44907
-6.30139
-6.17043
-6.05608
-5.95825
-5.87686
-5.81183
-5.7631
-5.73065
-5.71442
22.2597
15.6365
9.45707
3.70424
-1.63894
-6.5901
-11.1643
-15.3799
-19.253
-22.7962
-26.0283
-28.9653
-31.6196
-34.0051
-36.1365
-38.0287
-39.6952
-41.1481
-42.3994
-43.4607
-44.3436
-45.0595
-45.6195
-46.0343
-46.3137
-46.4674
-46.5046
-46.4338
-46.2634
-46.0013
-45.6551
-45.2322
-44.7392
-44.183
-43.5695
-42.9048
-42.1945
-41.4437
-40.6575
-39.8405
-38.9972
-38.1316
-37.2477
-36.3491
-35.4392
-34.521
-33.5976
-32.6717
-31.7458
-30.8223
-29.9032
-28.9905
-28.0862
-27.1917
-26.3087
-25.4385
-24.5824
-23.7414
-22.9165
-22.1086
-21.3186
-20.547
-19.7946
-19.0617
-18.3488
-17.6564
-16.9846
-16.3338
-15.704
-15.0955
-14.5083
-13.9425
-13.398
-12.8748
-12.373
-11.8923
-11.4326
-10.994
-10.5761
-10.1789
-9.80216
-9.44574
-9.10944
-8.79309
-8.49651
-8.2195
-7.96189
-7.72351
-7.50418
-7.30375
-7.12205
-6.95896
-6.81433
-6.68805
-6.58001
-6.49012
-6.41831
-6.3645
-6.32866
-6.31074
24.3576
17.1101
10.3484
4.05335
-1.79341
-7.21116
-12.2165
-16.8294
-21.0674
-24.9447
-28.4815
-31.6951
-34.5996
-37.2099
-39.5423
-41.6128
-43.4363
-45.0261
-46.3953
-47.5566
-48.5227
-49.3061
-49.919
-50.3728
-50.6786
-50.8468
-50.8874
-50.81
-50.6235
-50.3367
-49.9579
-49.4951
-48.9557
-48.347
-47.6758
-46.9484
-46.1711
-45.3496
-44.4892
-43.5953
-42.6725
-41.7254
-40.7582
-39.7749
-38.7791
-37.7745
-36.7641
-35.7509
-34.7377
-33.7271
-32.7214
-31.7228
-30.7332
-29.7544
-28.7882
-27.836
-26.8992
-25.9789
-25.0763
-24.1923
-23.3278
-22.4835
-21.6601
-20.8582
-20.0781
-19.3204
-18.5853
-17.8732
-17.1841
-16.5182
-15.8757
-15.2565
-14.6607
-14.0882
-13.5391
-13.0131
-12.5101
-12.0301
-11.5729
-11.1382
-10.726
-10.336
-9.96797
-9.62181
-9.29727
-8.99415
-8.71227
-8.45142
-8.21142
-7.99209
-7.79328
-7.61481
-7.45655
-7.31837
-7.20015
-7.10179
-7.02321
-6.96433
-6.92511
-6.9055
26.4495
18.5796
11.2371
4.40147
-1.94743
-7.83044
-13.2657
-18.2748
-22.8767
-27.087
-30.9275
-34.4171
-37.5711
-40.4056
-42.9383
-45.1867
-47.1667
-48.8931
-50.3798
-51.6408
-52.6899
-53.5406
-54.2061
-54.6989
-55.031
-55.2137
-55.2578
-55.1736
-54.9711
-54.6597
-54.2484
-53.7458
-53.1601
-52.4991
-51.7702
-50.9804
-50.1364
-49.2443
-48.3101
-47.3393
-46.3373
-45.3088
-44.2585
-43.1908
-42.1096
-41.0186
-39.9214
-38.8212
-37.7211
-36.6237
-35.5316
-34.4472
-33.3726
-32.3098
-31.2606
-30.2266
-29.2093
-28.21
-27.2299
-26.27
-25.3312
-24.4144
-23.5203
-22.6495
-21.8025
-20.9797
-20.1815
-19.4081
-18.6599
-17.9368
-17.2391
-16.5668
-15.9198
-15.2982
-14.7018
-14.1306
-13.5845
-13.0633
-12.5668
-12.0948
-11.6471
-11.2236
-10.824
-10.4481
-10.0957
-9.76659
-9.46049
-9.17724
-8.91663
-8.67847
-8.46258
-8.26878
-8.09693
-7.94688
-7.81851
-7.7117
-7.62637
-7.56244
-7.51985
-7.49856
28.5348
20.0444
12.1231
4.7485
-2.10096
-8.4478
-14.3116
-19.7156
-24.6803
-29.2226
-33.366
-37.1307
-40.5333
-43.5912
-46.3237
-48.7493
-50.8854
-52.7479
-54.3518
-55.7122
-56.844
-57.7618
-58.4798
-59.0115
-59.3698
-59.5669
-59.6145
-59.5237
-59.3052
-58.9693
-58.5255
-57.9833
-57.3514
-56.6383
-55.8519
-54.9999
-54.0892
-53.1268
-52.119
-51.0717
-49.9906
-48.8811
-47.748
-46.5961
-45.4296
-44.2526
-43.0689
-41.882
-40.6951
-39.5112
-38.333
-37.1631
-36.0038
-34.8572
-33.7253
-32.6098
-31.5123
-30.4342
-29.3767
-28.3412
-27.3284
-26.3393
-25.3747
-24.4352
-23.5214
-22.6338
-21.7726
-20.9383
-20.131
-19.351
-18.5983
-17.8729
-17.1749
-16.5043
-15.861
-15.2447
-14.6556
-14.0932
-13.5576
-13.0484
-12.5654
-12.1085
-11.6774
-11.2719
-10.8917
-10.5366
-10.2064
-9.9008
-9.61964
-9.3627
-9.12979
-8.92072
-8.73532
-8.57344
-8.43494
-8.31972
-8.22766
-8.15868
-8.11273
-8.08977
30.6131
21.5044
13.006
5.09436
-2.25399
-9.06307
-15.354
-21.1516
-26.4779
-31.351
-35.7962
-39.835
-43.4854
-46.7662
-49.6976
-52.3
-54.5916
-56.5897
-58.3104
-59.7699
-60.9842
-61.9688
-62.7391
-63.3096
-63.6939
-63.9054
-63.9564
-63.8591
-63.6247
-63.2642
-62.7882
-62.2065
-61.5286
-60.7635
-59.9199
-59.0057
-58.0288
-56.9962
-55.915
-54.7914
-53.6316
-52.4413
-51.2257
-49.9898
-48.7384
-47.4757
-46.2058
-44.9324
-43.6591
-42.3889
-41.1249
-39.8698
-38.6261
-37.396
-36.1816
-34.9849
-33.8074
-32.6508
-31.5164
-30.4054
-29.3188
-28.2577
-27.2229
-26.215
-25.2346
-24.2823
-23.3584
-22.4633
-21.5973
-20.7604
-19.9529
-19.1747
-18.4259
-17.7064
-17.0162
-16.3551
-15.723
-15.1197
-14.545
-13.9987
-13.4806
-12.9904
-12.5279
-12.0929
-11.685
-11.304
-10.9498
-10.6219
-10.3203
-10.0446
-9.79475
-9.57045
-9.37154
-9.19788
-9.04929
-8.92567
-8.82691
-8.75291
-8.70362
-8.67898
32.6839
22.959
13.8858
5.43896
-2.40646
-9.67611
-16.3926
-22.5823
-28.2689
-33.4717
-38.2176
-42.5296
-46.4269
-49.9295
-53.0593
-55.8377
-58.2844
-60.4176
-62.2547
-63.8129
-65.1093
-66.1606
-66.983
-67.592
-68.0024
-68.2281
-68.2826
-68.1787
-67.9284
-67.5436
-67.0354
-66.4143
-65.6905
-64.8737
-63.973
-62.997
-61.954
-60.8516
-59.6972
-58.4977
-57.2594
-55.9885
-54.6907
-53.3713
-52.0352
-50.6871
-49.3313
-47.9718
-46.6123
-45.2562
-43.9067
-42.5667
-41.2388
-39.9255
-38.629
-37.3513
-36.0942
-34.8594
-33.6482
-32.462
-31.302
-30.1691
-29.0643
-27.9882
-26.9415
-25.9248
-24.9385
-23.9828
-23.0582
-22.1647
-21.3025
-20.4717
-19.6722
-18.9041
-18.1672
-17.4614
-16.7865
-16.1424
-15.5289
-14.9456
-14.3925
-13.8691
-13.3754
-12.9109
-12.4754
-12.0687
-11.6904
-11.3404
-11.0184
-10.7241
-10.4573
-10.2178
-10.0055
-9.82005
-9.66141
-9.52943
-9.42398
-9.34498
-9.29235
-9.26605
34.7466
24.4079
14.7621
5.78221
-2.55834
-10.2868
-17.4271
-24.0075
-30.0529
-35.5842
-40.6296
-45.2136
-49.3569
-53.0806
-56.4079
-59.3617
-61.9627
-64.2305
-66.1835
-67.8401
-69.2183
-70.336
-71.2103
-71.8578
-72.2941
-72.5341
-72.592
-72.4815
-72.2154
-71.8063
-71.266
-70.6057
-69.8363
-68.9679
-68.0104
-66.9728
-65.8639
-64.692
-63.4647
-62.1895
-60.8731
-59.522
-58.1423
-56.7396
-55.3192
-53.886
-52.4446
-50.9993
-49.554
-48.1123
-46.6777
-45.2531
-43.8414
-42.4453
-41.0669
-39.7086
-38.3722
-37.0594
-35.7718
-34.5107
-33.2775
-32.0731
-30.8985
-29.7546
-28.6418
-27.5609
-26.5123
-25.4964
-24.5134
-23.5635
-22.6469
-21.7637
-20.9138
-20.0971
-19.3137
-18.5634
-17.8459
-17.1612
-16.5089
-15.8889
-15.3008
-14.7444
-14.2195
-13.7257
-13.2627
-12.8303
-12.4282
-12.0561
-11.7137
-11.4009
-11.1173
-10.8627
-10.6369
-10.4398
-10.2711
-10.1308
-10.0187
-9.93475
-9.8788
-9.85083
36.8007
25.8509
15.6348
6.12404
-2.70958
-10.8949
-18.4574
-25.4268
-31.8295
-37.6878
-43.0315
-47.8865
-52.2747
-56.2185
-59.7426
-62.871
-65.6258
-68.0276
-70.0961
-71.8505
-73.3102
-74.494
-75.4201
-76.1058
-76.5679
-76.8221
-76.8834
-76.7664
-76.4846
-76.0513
-75.479
-74.7797
-73.9648
-73.0451
-72.0309
-70.932
-69.7576
-68.5164
-67.2166
-65.8659
-64.4717
-63.0408
-61.5795
-60.0938
-58.5895
-57.0716
-55.545
-54.0142
-52.4835
-50.9566
-49.4371
-47.9283
-46.4332
-44.9545
-43.4947
-42.056
-40.6406
-39.2502
-37.8865
-36.5509
-35.2448
-33.9692
-32.7252
-31.5136
-30.335
-29.1902
-28.0797
-27.0036
-25.9625
-24.9565
-23.9857
-23.0503
-22.1501
-21.2852
-20.4555
-19.6608
-18.9009
-18.1757
-17.4849
-16.8282
-16.2053
-15.6161
-15.0601
-14.5371
-14.0468
-13.5888
-13.1629
-12.7688
-12.4062
-12.0749
-11.7745
-11.5048
-11.2657
-11.057
-10.8783
-10.7297
-10.611
-10.5221
-10.4628
-10.4332
38.8457
27.2874
16.5037
6.46435
-2.86017
-11.5003
-19.4831
-26.8398
-33.5983
-39.7822
-45.4228
-50.5476
-55.1796
-59.3426
-63.0626
-66.3647
-69.2726
-71.8079
-73.9913
-75.8433
-77.3841
-78.6337
-79.6112
-80.3351
-80.8228
-81.0912
-81.1559
-81.0323
-80.7349
-80.2775
-79.6734
-78.9353
-78.0751
-77.1043
-76.0337
-74.8738
-73.6341
-72.3239
-70.9518
-69.5261
-68.0544
-66.544
-65.0015
-63.4333
-61.8453
-60.2431
-58.6316
-57.0158
-55.4
-53.7883
-52.1844
-50.5917
-49.0135
-47.4526
-45.9117
-44.3931
-42.899
-41.4314
-39.9919
-38.5821
-37.2033
-35.8569
-34.5437
-33.2648
-32.0208
-30.8124
-29.6401
-28.5043
-27.4053
-26.3434
-25.3186
-24.3312
-23.381
-22.4681
-21.5922
-20.7533
-19.9513
-19.1857
-18.4565
-17.7633
-17.1059
-16.4839
-15.897
-15.3449
-14.8274
-14.344
-13.8944
-13.4784
-13.0956
-12.7459
-12.4288
-12.1442
-11.8918
-11.6714
-11.4829
-11.326
-11.2007
-11.1068
-11.0442
-11.013
40.8812
28.7172
17.3684
6.80307
-3.01004
-12.1029
-20.504
-28.2461
-35.3588
-41.8667
-47.8029
-53.1962
-58.0709
-62.4521
-66.3669
-69.8422
-72.9024
-75.5705
-77.8683
-79.8173
-81.4389
-82.7539
-83.7827
-84.5445
-85.0578
-85.3402
-85.4084
-85.2783
-84.9653
-84.484
-83.8482
-83.0714
-82.1661
-81.1444
-80.0178
-78.797
-77.4924
-76.1135
-74.6696
-73.1692
-71.6204
-70.0308
-68.4074
-66.7571
-65.0859
-63.3997
-61.7038
-60.0034
-58.3029
-56.6067
-54.9187
-53.2426
-51.5817
-49.9391
-48.3174
-46.7192
-45.1469
-43.6023
-42.0874
-40.6037
-39.1527
-37.7357
-36.3538
-35.0078
-33.6986
-32.4269
-31.1931
-29.9978
-28.8413
-27.7237
-26.6453
-25.6061
-24.6061
-23.6453
-22.7236
-21.8408
-20.9967
-20.191
-19.4236
-18.6941
-18.0022
-17.3476
-16.73
-16.149
-15.6043
-15.0956
-14.6224
-14.1846
-13.7818
-13.4137
-13.08
-12.7805
-12.5149
-12.283
-12.0846
-11.9195
-11.7876
-11.6888
-11.6229
-11.59
42.9065
30.1399
18.2289
7.14011
-3.15917
-12.7025
-21.5198
-29.6455
-37.1105
-43.9409
-50.1712
-55.8317
-60.9478
-65.5461
-69.6549
-73.3024
-76.5142
-79.3145
-81.7261
-83.7717
-85.4736
-86.8538
-87.9335
-88.7331
-89.2719
-89.5682
-89.6398
-89.5033
-89.1747
-88.6695
-88.0023
-87.1869
-86.2368
-85.1645
-83.9821
-82.7009
-81.3316
-79.8844
-78.3689
-76.7942
-75.1686
-73.5003
-71.7965
-70.0644
-68.3104
-66.5407
-64.7608
-62.9761
-61.1914
-59.4111
-57.6396
-55.8804
-54.1372
-52.4132
-50.7112
-49.0338
-47.3835
-45.7625
-44.1725
-42.6153
-41.0925
-39.6053
-38.1548
-36.7422
-35.3681
-34.0334
-32.7385
-31.484
-30.2702
-29.0972
-27.9654
-26.8747
-25.8252
-24.8168
-23.8494
-22.9228
-22.0369
-21.1913
-20.3859
-19.6202
-18.8941
-18.207
-17.5588
-16.9491
-16.3774
-15.8434
-15.3469
-14.8874
-14.4646
-14.0783
-13.7281
-13.4137
-13.1349
-12.8915
-12.6833
-12.51
-12.3716
-12.2678
-12.1988
-12.1642
44.9213
31.5552
19.0849
7.47539
-3.30752
-13.299
-22.5303
-31.0376
-38.8531
-46.0042
-52.5271
-58.4534
-63.8097
-68.624
-72.9258
-76.7445
-80.1071
-83.0389
-85.5637
-87.7053
-89.4872
-90.9322
-92.0627
-92.8998
-93.4638
-93.7741
-93.849
-93.7061
-93.3622
-92.8332
-92.1347
-91.281
-90.2863
-89.1636
-87.9257
-86.5843
-85.1507
-83.6356
-82.0489
-80.4002
-78.6984
-76.9516
-75.1679
-73.3544
-71.5181
-69.6653
-67.8018
-65.9333
-64.0648
-62.2009
-60.3462
-58.5044
-56.6794
-54.8744
-53.0924
-51.3363
-49.6086
-47.9113
-46.2467
-44.6164
-43.0221
-41.465
-39.9465
-38.4675
-37.0289
-35.6315
-34.2758
-32.9624
-31.6916
-30.4636
-29.2786
-28.1367
-27.0379
-25.9821
-24.9693
-23.9992
-23.0717
-22.1864
-21.3432
-20.5416
-19.7813
-19.062
-18.3833
-17.7449
-17.1464
-16.5874
-16.0675
-15.5865
-15.1438
-14.7394
-14.3727
-14.0436
-13.7517
-13.4969
-13.2788
-13.0974
-12.9525
-12.8439
-12.7716
-12.7354
46.925
32.9627
19.9362
7.80883
-3.45505
-13.8922
-23.5353
-32.422
-40.5861
-48.0562
-54.8701
-61.0606
-66.6559
-71.6849
-76.1786
-80.1676
-83.6803
-86.7428
-89.3802
-91.6173
-93.4787
-94.9882
-96.1691
-97.0435
-97.6328
-97.9569
-98.0351
-97.8859
-97.5266
-96.974
-96.2443
-95.3526
-94.3135
-93.1407
-91.8476
-90.4463
-88.9488
-87.3661
-85.7087
-83.9864
-82.2087
-80.384
-78.5207
-76.6264
-74.7081
-72.7726
-70.8261
-68.8742
-66.9223
-64.9754
-63.0379
-61.114
-59.2075
-57.322
-55.4606
-53.6262
-51.8213
-50.0484
-48.3095
-46.6065
-44.941
-43.3145
-41.7283
-40.1833
-38.6806
-37.2208
-35.8047
-34.4327
-33.1051
-31.8224
-30.5845
-29.3917
-28.2439
-27.141
-26.083
-25.0697
-24.1008
-23.176
-22.2952
-21.4578
-20.6636
-19.9123
-19.2033
-18.5364
-17.9112
-17.3273
-16.7842
-16.2817
-15.8193
-15.3968
-15.0138
-14.67
-14.3651
-14.0989
-13.8711
-13.6816
-13.5302
-13.4168
-13.3413
-13.3035
48.9171
34.3621
20.7825
8.14034
-3.60173
-14.4819
-24.5344
-33.7984
-42.3091
-50.0964
-57.1995
-63.6529
-69.4856
-74.7281
-79.4126
-83.571
-87.2328
-90.4252
-93.1747
-95.5068
-97.4471
-99.0207
-100.252
-101.163
-101.778
-102.116
-102.197
-102.041
-101.667
-101.091
-100.33
-99.4006
-98.3174
-97.0949
-95.7468
-94.2861
-92.725
-91.0751
-89.3473
-87.5519
-85.6987
-83.7966
-81.8542
-79.8794
-77.8797
-75.8621
-73.8329
-71.7981
-69.7634
-67.7338
-65.714
-63.7085
-61.7211
-59.7555
-57.8151
-55.9028
-54.0213
-52.1731
-50.3604
-48.5851
-46.8489
-45.1534
-43.4998
-41.8892
-40.3227
-38.801
-37.3247
-35.8945
-34.5106
-33.1733
-31.8829
-30.6395
-29.4429
-28.2933
-27.1904
-26.134
-25.1239
-24.1599
-23.2417
-22.3687
-21.5409
-20.7576
-20.0186
-19.3234
-18.6716
-18.0629
-17.4968
-16.9729
-16.4909
-16.0504
-15.6512
-15.2928
-14.9749
-14.6974
-14.46
-14.2625
-14.1046
-13.9864
-13.9076
-13.8683
50.8972
35.753
21.6237
8.46984
-3.74752
-15.0681
-25.5275
-35.1665
-44.0216
-52.1242
-59.5148
-66.2294
-72.2982
-77.7529
-82.6271
-86.9538
-90.7637
-94.0854
-96.9461
-99.3726
-101.392
-103.029
-104.31
-105.258
-105.897
-106.249
-106.334
-106.172
-105.782
-105.183
-104.391
-103.424
-102.297
-101.025
-99.6224
-98.1025
-96.4782
-94.7616
-92.9639
-91.0958
-89.1675
-87.1885
-85.1674
-83.1127
-81.0321
-78.9328
-76.8214
-74.7043
-72.5872
-70.4755
-68.374
-66.2872
-64.2194
-62.1743
-60.1553
-58.1656
-56.2079
-54.2849
-52.3989
-50.5517
-48.7452
-46.9811
-45.2605
-43.5848
-41.9549
-40.3715
-38.8355
-37.3474
-35.9075
-34.5161
-33.1735
-31.8797
-30.6347
-29.4385
-28.291
-27.1918
-26.1409
-25.1379
-24.1824
-23.2742
-22.4128
-21.5978
-20.8289
-20.1055
-19.4274
-18.794
-18.205
-17.6599
-17.1584
-16.7001
-16.2847
-15.9118
-15.5811
-15.2923
-15.0453
-14.8398
-14.6756
-14.5525
-14.4706
-14.4296
52.8647
37.1351
22.4596
8.79725
-3.89239
-15.6506
-26.5143
-36.5259
-45.7233
-54.1391
-61.8154
-68.7895
-75.093
-80.7585
-85.8211
-90.3151
-94.2723
-97.7224
-100.694
-103.214
-105.311
-107.012
-108.342
-109.327
-109.991
-110.356
-110.444
-110.276
-109.871
-109.249
-108.427
-107.422
-106.251
-104.93
-103.473
-101.895
-100.208
-98.4247
-96.5575
-94.6172
-92.6144
-90.5588
-88.4597
-86.3255
-84.1645
-81.984
-79.7911
-77.5921
-75.3932
-73.1998
-71.017
-68.8496
-66.7019
-64.5777
-62.4806
-60.414
-58.3807
-56.3834
-54.4244
-52.5058
-50.6295
-48.7972
-47.0101
-45.2696
-43.5767
-41.9322
-40.3368
-38.7911
-37.2955
-35.8504
-34.4558
-33.112
-31.8189
-30.5765
-29.3846
-28.243
-27.1514
-26.1096
-25.1172
-24.1739
-23.2792
-22.4327
-21.634
-20.8827
-20.1784
-19.5205
-18.9087
-18.3426
-17.8217
-17.3457
-16.9142
-16.5269
-16.1834
-15.8835
-15.6269
-15.4134
-15.2429
-15.1151
-15.03
-14.9874
54.8191
38.508
23.29
9.1225
-4.03629
-16.2292
-27.4946
-37.8763
-47.4137
-56.1407
-64.1008
-71.3327
-77.8692
-83.7442
-88.994
-93.6541
-97.7576
-101.335
-104.416
-107.03
-109.204
-110.968
-112.347
-113.369
-114.057
-114.436
-114.527
-114.353
-113.933
-113.288
-112.435
-111.394
-110.18
-108.81
-107.299
-105.662
-103.912
-102.063
-100.127
-98.1153
-96.0384
-93.9069
-91.7301
-89.5171
-87.2761
-85.015
-82.741
-80.4608
-78.1805
-75.906
-73.6426
-71.395
-69.1679
-66.9652
-64.7906
-62.6476
-60.5391
-58.4679
-56.4365
-54.447
-52.5014
-50.6012
-48.7481
-46.9433
-45.1877
-43.4824
-41.828
-40.2252
-38.6743
-37.1758
-35.7297
-34.3362
-32.9953
-31.7069
-30.4709
-29.2871
-28.1552
-27.0749
-26.0458
-25.0676
-24.1398
-23.2621
-22.4339
-21.6548
-20.9244
-20.2422
-19.6078
-19.0207
-18.4806
-17.987
-17.5395
-17.1379
-16.7817
-16.4707
-16.2046
-15.9833
-15.8064
-15.6739
-15.5856
-15.5415
56.76
39.8714
24.1146
9.44549
-4.1792
-16.8038
-28.4681
-39.2173
-49.0924
-58.1284
-66.3704
-73.8583
-80.6262
-86.7092
-92.1449
-96.97
-101.219
-104.923
-108.113
-110.819
-113.071
-114.897
-116.325
-117.383
-118.096
-118.488
-118.582
-118.402
-117.967
-117.299
-116.416
-115.338
-114.081
-112.662
-111.098
-109.403
-107.592
-105.677
-103.672
-101.589
-99.4388
-97.2317
-94.9779
-92.6865
-90.3662
-88.025
-85.6705
-83.3095
-80.9486
-78.5935
-76.25
-73.9228
-71.6168
-69.3361
-67.0846
-64.8657
-62.6825
-60.538
-58.4347
-56.3747
-54.3602
-52.3928
-50.4741
-48.6053
-46.7876
-45.0219
-43.309
-41.6494
-40.0436
-38.492
-36.9947
-35.5519
-34.1635
-32.8295
-31.5498
-30.3241
-29.1521
-28.0335
-26.968
-25.9551
-24.9945
-24.0857
-23.2282
-22.4215
-21.6652
-20.9589
-20.302
-19.6942
-19.1349
-18.6238
-18.1605
-17.7446
-17.3759
-17.0539
-16.7784
-16.5492
-16.3661
-16.2289
-16.1375
-16.0918
58.6869
41.225
24.9332
9.76615
-4.32108
-17.3742
-29.4345
-40.5487
-50.759
-60.1018
-68.6236
-76.3657
-83.3633
-89.6529
-95.2731
-100.262
-104.655
-108.485
-111.784
-114.581
-116.909
-118.797
-120.274
-121.368
-122.105
-122.51
-122.608
-122.421
-121.972
-121.281
-120.368
-119.253
-117.953
-116.487
-114.869
-113.117
-111.244
-109.265
-107.192
-105.038
-102.815
-100.533
-98.2022
-95.833
-93.434
-91.0133
-88.5789
-86.1378
-83.6966
-81.2617
-78.8385
-76.4324
-74.0481
-71.69
-69.362
-67.0677
-64.8105
-62.5932
-60.4184
-58.2886
-56.2056
-54.1715
-52.1876
-50.2554
-48.376
-46.5504
-44.7793
-43.0633
-41.4031
-39.7987
-38.2506
-36.7588
-35.3233
-33.944
-32.6209
-31.3535
-30.1417
-28.9852
-27.8835
-26.8363
-25.843
-24.9033
-24.0167
-23.1827
-22.4007
-21.6704
-20.9912
-20.3628
-19.7845
-19.2561
-18.777
-18.3471
-17.9657
-17.6328
-17.348
-17.111
-16.9217
-16.7798
-16.6853
-16.6381
60.5994
42.5684
25.7457
10.0844
-4.46189
-17.9404
-30.3937
-41.8701
-52.4131
-62.0603
-70.8598
-78.8542
-86.0799
-92.5744
-98.3778
-103.529
-108.065
-112.02
-115.426
-118.315
-120.719
-122.669
-124.194
-125.323
-126.084
-126.503
-126.604
-126.411
-125.947
-125.233
-124.291
-123.139
-121.797
-120.283
-118.613
-116.803
-114.869
-112.825
-110.685
-108.461
-106.165
-103.809
-101.402
-98.956
-96.4787
-93.9792
-91.4654
-88.9447
-86.4241
-83.9097
-81.4076
-78.9231
-76.4611
-74.0261
-71.6223
-69.2533
-66.9225
-64.6329
-62.3873
-60.188
-58.0372
-55.9368
-53.8882
-51.8931
-49.9524
-48.0673
-46.2385
-44.4667
-42.7523
-41.0957
-39.4971
-37.9567
-36.4744
-35.0502
-33.6839
-32.3752
-31.124
-29.9297
-28.7922
-27.7108
-26.6852
-25.7149
-24.7993
-23.9381
-23.1307
-22.3766
-21.6753
-21.0263
-20.4292
-19.8836
-19.3889
-18.9449
-18.5512
-18.2074
-17.9133
-17.6686
-17.4731
-17.3266
-17.229
-17.1803
62.4969
43.9013
26.5519
10.4002
-4.60161
-18.5022
-31.3454
-43.1811
-54.0542
-64.0035
-73.0786
-81.3233
-88.7752
-95.4731
-101.458
-106.771
-111.449
-115.528
-119.04
-122.02
-124.499
-126.51
-128.082
-129.247
-130.032
-130.464
-130.568
-130.369
-129.89
-129.154
-128.183
-126.995
-125.611
-124.049
-122.327
-120.461
-118.466
-116.358
-114.151
-111.857
-109.489
-107.059
-104.577
-102.054
-99.4996
-96.9219
-94.3294
-91.7298
-89.1302
-86.5371
-83.9567
-81.3943
-78.8552
-76.344
-73.8649
-71.4217
-69.0179
-66.6567
-64.3408
-62.0726
-59.8545
-57.6882
-55.5756
-53.5179
-51.5165
-49.5724
-47.6863
-45.859
-44.0909
-42.3825
-40.7338
-39.1452
-37.6165
-36.1477
-34.7386
-33.389
-32.0985
-30.8669
-29.6937
-28.5785
-27.5207
-26.52
-25.5759
-24.6877
-23.855
-23.0773
-22.354
-21.6847
-21.0689
-20.5062
-19.996
-19.5381
-19.1321
-18.7775
-18.4742
-18.2218
-18.0202
-17.8691
-17.7685
-17.7182
64.3789
45.2233
27.3515
10.7134
-4.74018
-19.0593
-32.2894
-44.4815
-55.682
-65.931
-75.2793
-83.7723
-91.4486
-98.3482
-104.514
-109.986
-114.805
-119.007
-122.625
-125.695
-128.248
-130.319
-131.94
-133.139
-133.948
-134.392
-134.5
-134.295
-133.802
-133.044
-132.043
-130.819
-129.394
-127.785
-126.011
-124.088
-122.034
-119.862
-117.588
-115.225
-112.786
-110.283
-107.727
-105.128
-102.496
-99.8406
-97.17
-94.4921
-91.8143
-89.1431
-86.485
-83.8455
-81.2299
-78.6431
-76.0893
-73.5725
-71.0964
-68.664
-66.2783
-63.9419
-61.657
-59.4255
-57.2492
-55.1296
-53.0679
-51.0652
-49.1224
-47.24
-45.4187
-43.6588
-41.9605
-40.324
-38.7493
-37.2362
-35.7847
-34.3945
-33.0652
-31.7964
-30.5879
-29.4391
-28.3495
-27.3187
-26.3461
-25.4311
-24.5734
-23.7722
-23.0272
-22.3377
-21.7034
-21.1237
-20.5982
-20.1265
-19.7082
-19.343
-19.0305
-18.7706
-18.5629
-18.4073
-18.3036
-18.2518
66.2451
46.5342
28.1443
11.0239
-4.87759
-19.6118
-33.2254
-45.7709
-57.2961
-67.8421
-77.4615
-86.2006
-94.0994
-101.199
-107.543
-113.175
-118.133
-122.457
-126.18
-129.338
-131.966
-134.097
-135.764
-136.999
-137.831
-138.288
-138.399
-138.188
-137.681
-136.901
-135.87
-134.611
-133.144
-131.489
-129.663
-127.685
-125.571
-123.337
-120.997
-118.566
-116.056
-113.48
-110.849
-108.175
-105.467
-102.735
-99.9867
-97.2312
-94.4757
-91.7272
-88.9919
-86.2759
-83.5846
-80.9227
-78.2949
-75.7052
-73.1573
-70.6544
-68.1996
-65.7954
-63.4442
-61.1481
-58.9087
-56.7277
-54.6062
-52.5455
-50.5463
-48.6094
-46.7353
-44.9243
-43.1768
-41.4929
-39.8725
-38.3156
-36.822
-35.3915
-34.0236
-32.7181