/*--------------------------------*- C++ -*----------------------------------*\
| =========                 |                                                 |
| \\      /  F ield         | OpenFOAM: The Open Source CFD Toolbox           |
|  \\    /   O peration     | Version:  2406                                  |
|   \\  /    A nd           | Website:  www.openfoam.com                      |
|    \\/     M anipulation  |                                                 |
\*---------------------------------------------------------------------------*/
FoamFile
{
    version     2.0;
    format      ascii;
    arch        "LSB;label=32;scalar=64";
    class       volScalarField;
    location    "105";
    object      gradTy;
}
// * * * * * * * * * * * * * * * * * * * * * * * * * * * * * * * * * * * * * //

dimensions      [0 -1 0 1 0 0 0];

internalField   nonuniform List<scalar> 
20000
(
173.916
175.458
176.165
176.116
175.383
174.038
172.144
169.763
166.953
163.768
160.259
156.471
152.449
148.232
143.858
139.361
134.772
130.119
125.429
120.724
116.027
111.355
106.726
102.156
97.6566
93.24
88.9163
84.694
80.5803
76.5813
72.7018
68.9456
65.3156
61.8138
58.4414
55.1989
52.0862
49.1027
46.247
43.5176
40.9123
38.4289
36.0646
33.8166
31.6816
29.6564
27.7375
25.9214
24.2045
22.5831
21.0535
19.6119
18.2547
16.9783
15.7789
14.653
13.5971
12.6077
11.6816
10.8154
10.006
9.25028
8.54534
7.88829
7.2764
6.70701
6.1776
5.68574
5.22913
4.80553
4.41286
4.04911
3.71236
3.40081
3.11275
2.84654
2.60065
2.37363
2.1641
1.97076
1.79239
1.62782
1.47598
1.33582
1.20639
1.08676
0.976066
0.873497
0.778274
0.689666
0.606975
0.529537
0.456721
0.38792
0.322551
0.260052
0.199878
0.141498
0.0843916
0.0280461
173.873
175.415
176.121
176.072
175.34
173.995
172.101
169.721
166.912
163.728
160.219
156.433
152.411
148.196
143.823
139.326
134.738
130.087
125.398
120.694
115.998
111.328
106.7
102.131
97.6325
93.217
88.8944
84.6731
80.5605
76.5624
72.6838
68.9286
65.2995
61.7985
58.427
55.1853
52.0734
49.0905
46.2356
43.5068
40.9022
38.4194
36.0557
33.8082
31.6738
29.6491
27.7307
25.915
24.1986
22.5775
21.0483
19.6071
18.2502
16.9741
15.775
14.6494
13.5937
12.6046
11.6787
10.8127
10.0035
9.248
8.54323
7.88635
7.2746
6.70535
6.17607
5.68434
5.22784
4.80435
4.41177
4.04811
3.71144
3.39997
3.11198
2.84584
2.60001
2.37305
2.16357
1.97027
1.79194
1.62742
1.47561
1.33549
1.20609
1.08649
0.975826
0.873281
0.778082
0.689496
0.606825
0.529407
0.456609
0.387825
0.322472
0.259988
0.199829
0.141463
0.0843708
0.0280392
173.787
175.328
176.035
175.985
175.254
173.909
172.016
169.637
166.83
163.647
160.14
156.355
152.336
148.122
143.752
139.258
134.672
130.023
125.336
120.635
115.941
111.273
106.648
102.08
97.5843
93.171
88.8505
84.6313
80.5207
76.5246
72.648
68.8945
65.2672
61.768
58.3981
55.158
52.0477
49.0663
46.2128
43.4853
40.882
38.4005
36.0379
33.7915
31.6581
29.6344
27.717
25.9022
24.1866
22.5664
21.0379
19.5974
18.2412
16.9657
15.7672
14.6421
13.587
12.5984
11.6729
10.8074
9.99858
9.24344
8.53902
7.88246
7.27101
6.70205
6.17303
5.68154
5.22526
4.80198
4.4096
4.04611
3.70961
3.3983
3.11045
2.84444
2.59873
2.37188
2.1625
1.9693
1.79106
1.62662
1.47488
1.33483
1.2055
1.08595
0.975345
0.872851
0.777699
0.689156
0.606526
0.529146
0.456384
0.387633
0.322313
0.25986
0.199731
0.141394
0.0843293
0.0280254
173.659
175.198
175.904
175.855
175.124
173.78
171.889
169.512
166.706
163.526
160.022
156.24
152.223
148.013
143.645
139.155
134.572
129.926
125.243
120.545
115.855
111.19
106.569
102.005
97.512
93.102
88.7847
84.5686
80.4611
76.4679
72.5942
68.8435
65.2189
61.7223
58.3549
55.1172
52.0091
49.03
46.1785
43.4531
40.8518
38.372
36.0112
33.7665
31.6347
29.6125
27.6965
25.8831
24.1687
22.5497
21.0223
19.5829
18.2277
16.9531
15.7555
14.6313
13.577
12.5891
11.6643
10.7994
9.99118
9.2366
8.53269
7.87662
7.26563
6.69708
6.16846
5.67733
5.22139
4.79842
4.40633
4.04312
3.70687
3.39578
3.10814
2.84233
2.59681
2.37012
2.1609
1.96784
1.78973
1.62541
1.47379
1.33385
1.2046
1.08515
0.974623
0.872205
0.777124
0.688646
0.606077
0.528755
0.456046
0.387347
0.322074
0.259668
0.199583
0.141289
0.0842669
0.0280047
173.488
175.025
175.73
175.681
174.951
173.608
171.719
169.344
166.542
163.365
159.864
156.085
152.073
147.867
143.503
139.017
134.439
129.798
125.119
120.426
115.74
111.08
106.463
101.904
97.4157
93.01
88.697
84.4851
80.3816
76.3924
72.5224
68.7755
65.1545
61.6613
58.2972
55.0627
51.9578
48.9815
46.1329
43.4102
40.8114
38.3341
35.9757
33.7331
31.6034
29.5832
27.6691
25.8575
24.1448
22.5274
21.0015
19.5636
18.2097
16.9364
15.74
14.6168
13.5635
12.5766
11.6528
10.7887
9.98131
9.22747
8.52427
7.86884
7.25845
6.69047
6.16237
5.67172
5.21623
4.79369
4.40198
4.03912
3.70321
3.39243
3.10507
2.83952
2.59424
2.36778
2.15877
1.9659
1.78797
1.62381
1.47234
1.33253
1.20341
1.08408
0.973661
0.871344
0.776357
0.687967
0.605479
0.528233
0.455596
0.386965
0.321757
0.259412
0.199386
0.14115
0.0841838
0.0279771
173.273
174.809
175.513
175.464
174.735
173.394
171.507
169.135
166.336
163.163
159.666
155.892
151.885
147.684
143.326
138.846
134.273
129.638
124.965
120.278
115.597
110.943
106.332
101.778
97.2953
92.8951
88.5874
84.3807
80.2822
76.298
72.4328
68.6905
65.074
61.5851
58.2252
54.9947
51.8936
48.921
46.0759
43.3566
40.761
38.2867
35.9312
33.6915
31.5644
29.5467
27.6349
25.8256
24.115
22.4996
20.9756
19.5394
18.1872
16.9155
15.7205
14.5988
13.5468
12.5611
11.6384
10.7754
9.96898
9.21608
8.51374
7.85912
7.24949
6.68221
6.15476
5.66472
5.20979
4.78777
4.39655
4.03414
3.69863
3.38824
3.10124
2.83602
2.59104
2.36486
2.1561
1.96348
1.78576
1.6218
1.47052
1.33088
1.20193
1.08274
0.97246
0.870269
0.775399
0.687118
0.604732
0.527581
0.455034
0.386487
0.32136
0.259092
0.19914
0.140976
0.08408
0.0279426
173.016
174.549
175.253
175.204
174.476
173.137
171.253
168.884
166.089
162.921
159.429
155.661
151.66
147.465
143.113
138.64
134.074
129.445
124.779
120.099
115.426
110.779
106.174
101.627
97.1509
92.7573
88.4559
84.2555
80.1631
76.1848
72.3254
68.5886
64.9774
61.4937
58.1388
54.9131
51.8165
48.8484
46.0075
43.2922
40.7005
38.2299
35.8779
33.6415
31.5176
29.5028
27.5939
25.7872
24.0792
22.4662
20.9445
19.5104
18.1602
16.8904
15.6972
14.5771
13.5267
12.5425
11.6211
10.7594
9.95419
9.2024
8.50111
7.84746
7.23873
6.67229
6.14563
5.65632
5.20206
4.78066
4.39003
4.02815
3.69315
3.38321
3.09664
2.83181
2.5872
2.36135
2.1529
1.96056
1.78311
1.6194
1.46834
1.32891
1.20015
1.08114
0.971018
0.868979
0.774249
0.686099
0.603836
0.526799
0.45436
0.385914
0.320884
0.258708
0.198845
0.140767
0.0839554
0.0279012
172.716
174.247
174.949
174.9
174.173
172.837
170.956
168.592
165.801
162.638
159.153
155.391
151.397
147.209
142.865
138.399
133.842
129.221
124.563
119.891
115.226
110.587
105.99
101.451
96.9826
92.5965
88.3026
84.1095
80.0242
76.0528
72.2
68.4697
64.8648
61.3872
58.038
54.8179
51.7268
48.7638
45.9278
43.2172
40.63
38.1637
35.8157
33.5832
31.4629
29.4517
27.5461
25.7426
24.0375
22.4273
20.9082
19.4766
18.1288
16.8611
15.67
14.5519
13.5033
12.5207
11.601
10.7408
9.93695
9.18646
8.48638
7.83387
7.2262
6.66074
6.13498
5.64652
5.19305
4.77238
4.38242
4.02118
3.68675
3.37736
3.09128
2.82691
2.58272
2.35726
2.14918
1.95717
1.78002
1.6166
1.4658
1.32661
1.19807
1.07926
0.969337
0.867475
0.772909
0.684912
0.602791
0.525887
0.453573
0.385247
0.320328
0.25826
0.198501
0.140523
0.0838101
0.0278529
172.374
173.901
174.602
174.554
173.828
172.494
170.617
168.257
165.472
162.316
158.837
155.083
151.097
146.917
142.582
138.125
133.576
128.965
124.316
119.653
114.997
110.367
105.78
101.25
96.7903
92.4129
88.1276
83.9427
79.8655
75.902
72.0569
68.334
64.7362
61.2654
57.923
54.7093
51.6242
48.6671
45.8368
43.1315
40.5494
38.088
35.7447
33.5166
31.4006
29.3933
27.4915
25.6915
23.9898
22.3828
20.8667
19.438
18.0928
16.8277
15.6389
14.523
13.4765
12.4959
11.578
10.7195
9.91725
9.16825
8.46956
7.81834
7.21187
6.64754
6.12282
5.63533
5.18276
4.76293
4.37374
4.01321
3.67945
3.37066
3.08515
2.82131
2.5776
2.35259
2.14492
1.95329
1.7765
1.61339
1.46289
1.32398
1.1957
1.07713
0.967417
0.865756
0.771378
0.683555
0.601597
0.524846
0.452675
0.384484
0.319694
0.257749
0.198108
0.140245
0.0836441
0.0277977
171.989
173.513
174.212
174.164
173.44
172.109
170.236
167.882
165.103
161.953
158.483
154.737
150.759
146.589
142.264
137.817
133.278
128.677
124.039
119.386
114.741
110.121
105.544
101.024
96.5742
92.2066
87.9308
83.7553
79.6872
75.7325
71.896
68.1814
64.5916
61.1286
57.7936
54.5871
51.5089
48.5584
45.7344
43.0352
40.4589
38.003
35.6649
33.4418
31.3304
29.3277
27.4301
25.6341
23.9363
22.3328
20.8201
19.3946
18.0524
16.7901
15.604
14.4906
13.4464
12.468
11.5521
10.6956
9.89511
9.14778
8.45065
7.80089
7.19577
6.63269
6.10915
5.62275
5.17119
4.75229
4.36397
4.00425
3.67123
3.36314
3.07827
2.81501
2.57185
2.34734
2.14013
1.94893
1.77253
1.60979
1.45963
1.32103
1.19303
1.07472
0.965258
0.863825
0.769657
0.68203
0.600255
0.523675
0.451665
0.383626
0.318981
0.257174
0.197666
0.139932
0.0834576
0.0277357
171.561
173.082
173.78
173.731
173.009
171.681
169.813
167.464
164.693
161.551
158.089
154.352
150.385
146.225
141.91
137.474
132.947
128.357
123.73
119.09
114.456
109.847
105.281
100.773
96.3342
91.9774
87.7123
83.5471
79.4892
75.5443
71.7173
68.012
64.4311
60.9767
57.65
54.4514
51.3809
48.4377
45.6207
42.9283
40.3583
37.9085
35.5763
33.3587
31.2526
29.2548
27.3619
25.5705
23.8768
22.2773
20.7684
19.3464
18.0076
16.7484
15.5652
14.4546
13.413
12.437
11.5234
10.669
9.87052
9.12506
8.42966
7.78151
7.1779
6.61622
6.09398
5.60878
5.15834
4.74049
4.35313
3.9943
3.66212
3.35479
3.07062
2.80802
2.56546
2.34151
2.13482
1.94409
1.76813
1.60579
1.45601
1.31775
1.19007
1.07205
0.962862
0.86168
0.767746
0.680337
0.598764
0.522375
0.450544
0.382673
0.318189
0.256535
0.197175
0.139585
0.0832504
0.0276669
171.092
172.608
173.304
173.255
172.535
171.211
169.348
167.006
164.242
161.109
157.656
153.93
149.973
145.825
141.522
137.098
132.583
128.006
123.392
118.763
114.142
109.547
104.993
100.497
96.0704
91.7256
87.4721
83.3184
79.2715
75.3374
71.5209
67.8257
64.2547
60.8098
57.4922
54.3024
51.2402
48.3051
45.4958
42.8107
40.2478
37.8047
35.4789
33.2673
31.167
29.1747
27.287
25.5004
23.8114
22.2163
20.7116
19.2934
17.9583
16.7026
15.5226
14.415
13.3763
12.403
11.4919
10.6398
9.8435
9.10008
8.40658
7.76021
7.15825
6.59811
6.0773
5.59343
5.14423
4.72751
4.34122
3.98337
3.65209
3.3456
3.06222
2.80033
2.55844
2.3351
2.12897
1.93877
1.76329
1.6014
1.45202
1.31414
1.18681
1.06912
0.960227
0.859322
0.765646
0.678476
0.597126
0.520946
0.449311
0.381627
0.317318
0.255834
0.196636
0.139203
0.0830227
0.0275912
170.58
172.092
172.785
172.737
172.019
170.699
168.841
166.506
163.75
160.627
157.184
153.469
149.524
145.389
141.098
136.688
132.186
127.623
123.022
118.408
113.801
109.219
104.679
100.196
95.783
91.4511
87.2104
83.0691
79.0343
75.112
71.3069
67.6228
64.0624
60.6278
57.3201
54.1399
51.0869
48.1606
45.3597
42.6826
40.1274
37.6916
35.3727
33.1678
31.0738
29.0874
27.2054
25.4242
23.7402
22.1499
20.6496
19.2357
17.9046
16.6526
15.4762
14.3719
13.3363
12.3659
11.4575
10.6079
9.81406
9.07286
8.38144
7.73699
7.13684
6.57837
6.05912
5.5767
5.12884
4.71337
4.32824
3.97146
3.64117
3.3356
3.05306
2.79196
2.55079
2.32812
2.12261
1.93297
1.75802
1.59661
1.44768
1.31021
1.18326
1.06592
0.957356
0.856753
0.763357
0.676447
0.595341
0.519388
0.447968
0.380486
0.31637
0.255069
0.196048
0.138787
0.0827745
0.0275087
170.026
171.533
172.224
172.176
171.46
170.145
168.293
165.965
163.219
160.105
156.674
152.971
149.039
144.916
140.64
136.244
131.757
127.208
122.623
118.024
113.431
108.864
104.339
99.8706
95.4719
91.1541
86.9271
82.7993
78.7776
74.8681
71.0753
67.4032
63.8544
60.4309
57.134
53.964
50.921
48.0042
45.2124
42.544
39.9971
37.5692
35.2578
33.0601
30.9729
28.993
27.117
25.3416
23.6631
22.0779
20.5825
19.1732
17.8464
16.5985
15.4259
14.3252
13.293
12.3257
11.4203
10.5735
9.78219
9.0434
8.35422
7.71187
7.11366
6.55701
6.03944
5.55859
5.11219
4.69807
4.31418
3.95856
3.62935
3.32477
3.04315
2.78289
2.54251
2.32056
2.11572
1.9267
1.75231
1.59143
1.44298
1.30596
1.17942
1.06246
0.954249
0.853972
0.760879
0.674252
0.593409
0.517703
0.446514
0.379251
0.315343
0.254241
0.195412
0.138336
0.0825059
0.0274194
169.43
170.931
171.62
171.573
170.859
169.548
167.703
165.384
162.646
159.544
156.125
152.435
148.516
144.408
140.147
135.766
131.295
126.762
122.193
117.61
113.033
108.482
103.973
99.5205
95.1372
90.8346
86.6224
82.509
78.5015
74.6056
70.8262
67.1669
63.6305
60.2191
56.9337
53.7749
50.7425
47.8359
45.0539
42.3949
39.8569
37.4375
35.1343
32.9442
30.8643
28.8913
27.022
25.2528
23.5801
22.0006
20.5104
19.106
17.7839
16.5403
15.3719
14.275
13.2464
12.2825
11.3803
10.5364
9.74791
9.0117
8.32494
7.68485
7.08873
6.53403
6.01828
5.53911
5.09427
4.68161
4.29907
3.94469
3.61663
3.31312
3.03248
2.77314
2.5336
2.31243
2.1083
1.91995
1.74617
1.58585
1.43792
1.30138
1.17529
1.05874
0.950906
0.850981
0.758214
0.67189
0.59133
0.515889
0.44495
0.377923
0.314239
0.25335
0.194727
0.137852
0.0822169
0.0273234
168.792
170.288
170.974
170.927
170.216
168.91
167.072
164.761
162.034
158.943
155.537
151.861
147.957
143.865
139.62
135.255
130.801
126.285
121.733
117.167
112.608
108.074
103.582
99.1459
94.7791
90.4927
86.2964
82.1985
78.206
74.3248
70.5596
66.9141
63.391
59.9924
56.7194
53.5725
50.5515
47.6559
44.8843
42.2353
39.7069
37.2966
35.002
32.8202
30.7481
28.7826
26.9203
25.1577
23.4914
21.9178
20.4332
19.0341
17.7169
16.4781
15.314
14.2213
13.1965
12.2363
11.3375
10.4968
9.71122
8.97779
8.29361
7.65592
7.06206
6.50944
5.99563
5.51827
5.0751
4.66399
4.28289
3.92985
3.60302
3.30065
3.02107
2.76271
2.52407
2.30373
2.10037
1.91273
1.7396
1.57989
1.43252
1.29649
1.17087
1.05476
0.947329
0.84778
0.755361
0.669362
0.589106
0.513949
0.443277
0.376501
0.313057
0.252398
0.193995
0.137333
0.0819076
0.0272206
168.113
169.603
170.286
170.239
169.531
168.23
166.399
164.098
161.382
158.303
154.911
151.25
147.362
143.286
139.058
134.711
130.274
125.777
121.243
116.696
112.155
107.639
103.165
98.7468
94.3976
90.1284
85.949
81.8676
77.8912
74.0256
70.2756
66.6447
63.1359
59.7509
56.4911
53.3568
50.348
47.464
44.7037
42.0653
39.547
37.1465
34.8611
32.6881
30.6244
28.6667
26.8119
25.0565
23.3968
21.8295
20.351
18.9575
17.6456
16.4118
15.2524
14.1641
13.1434
12.1871
11.2918
10.4545
9.67214
8.94166
8.26024
7.62511
7.03364
6.48325
5.9715
5.49606
5.05468
4.64522
4.26565
3.91403
3.58852
3.28737
3.00892
2.75159
2.51391
2.29446
2.09192
1.90503
1.73261
1.57353
1.42675
1.29127
1.16616
1.05052
0.943518
0.844369
0.752323
0.66667
0.586736
0.511881
0.441494
0.374987
0.311797
0.251382
0.193215
0.136781
0.0815782
0.0271111
167.392
168.875
169.556
169.509
168.804
167.509
165.686
163.394
160.69
157.625
154.247
150.601
146.73
142.671
138.461
134.133
129.716
125.238
120.723
116.195
111.674
107.177
102.723
98.3234
93.9928
89.7419
85.5804
81.5165
77.5572
73.7082
69.9742
66.3589
62.8651
59.4947
56.2488
53.128
50.1321
47.2605
44.512
41.8849
39.3774
36.9872
34.7116
32.5479
30.493
28.5438
26.6969
24.949
23.2965
21.7359
20.2637
18.8762
17.57
16.3414
15.187
14.1033
13.087
12.1348
11.2434
10.4097
9.63067
8.90332
8.22482
7.59242
7.00348
6.45545
5.9459
5.4725
5.03301
4.62531
4.24737
3.89726
3.57314
3.27328
2.99602
2.7398
2.50313
2.28463
2.08295
1.89686
1.72518
1.56679
1.42064
1.28574
1.16116
1.04601
0.939474
0.84075
0.749098
0.663812
0.584222
0.509688
0.439601
0.37338
0.310461
0.250305
0.192387
0.136195
0.0812286
0.026995
166.63
168.106
168.784
168.737
168.035
166.746
164.931
162.65
159.958
156.907
153.544
149.915
146.062
142.022
137.831
133.522
129.125
124.667
120.173
115.666
111.165
106.689
102.255
97.8757
93.5648
89.3333
85.1907
81.1453
77.204
73.3726
69.6556
66.0568
62.5789
59.2238
55.9927
52.8861
49.9039
47.0453
44.3093
41.6942
39.1981
36.8188
34.5536
32.3997
30.3542
28.4139
26.5754
24.8354
23.1904
21.637
20.1714
18.7903
17.49
16.267
15.1178
14.0391
13.0275
12.0796
11.1922
10.3623
9.58682
8.86279
8.18738
7.55786
6.9716
6.42606
5.91883
5.44759
5.0101
4.60425
4.22803
3.87951
3.55687
3.25838
2.98238
2.72733
2.49174
2.27423
2.07347
1.88823
1.71733
1.55966
1.41417
1.27989
1.15587
1.04125
0.935198
0.836924
0.745689
0.660791
0.581563
0.507368
0.437601
0.37168
0.309048
0.249166
0.191511
0.135575
0.0808589
0.0268721
165.826
167.296
167.97
167.923
167.225
165.942
164.136
161.866
159.187
156.151
152.804
149.193
145.358
141.337
137.166
132.878
128.503
124.066
119.594
115.108
110.629
106.175
101.762
97.4038
93.1137
88.9026
84.78
80.7541
76.8318
73.0188
69.3198
65.7383
62.2772
58.9383
55.7228
52.6311
49.6633
46.8185
44.0957
41.4932
39.0092
36.6413
34.387
32.2435
30.2079
28.2769
26.4473
24.7157
23.0787
21.5327
20.0742
18.6997
17.4057
16.1886
15.045
13.9714
12.9647
12.0213
11.1383
10.3124
9.54061
8.82007
8.14791
7.52143
6.93799
6.39509
5.89031
5.42133
4.98595
4.58206
4.20765
3.86082
3.53973
3.24267
2.96801
2.71418
2.47973
2.26327
2.06348
1.87913
1.70905
1.55214
1.40736
1.27372
1.1503
1.03624
0.930692
0.832891
0.742096
0.657607
0.578761
0.504923
0.435492
0.369889
0.307559
0.247965
0.190588
0.134922
0.0804693
0.0267426
164.982
166.444
167.115
167.069
166.374
165.097
163.301
161.042
158.377
155.356
152.026
148.433
144.618
140.617
136.468
132.202
127.848
123.435
118.985
114.522
110.066
105.635
101.244
96.9079
92.6397
88.45
84.3484
80.343
76.4407
72.6471
68.9669
65.4036
61.9601
58.6382
55.4391
52.3632
49.4104
46.5802
43.8712
41.282
38.8106
36.4548
34.2119
32.0794
30.0541
28.1329
26.3126
24.5899
22.9612
21.423
19.972
18.6045
17.3171
16.1062
14.9684
13.9003
12.8987
11.9601
11.0816
10.2599
9.49205
8.77517
8.10644
7.48314
6.90268
6.36254
5.86032
5.39373
4.96057
4.55874
4.18624
3.84117
3.52172
3.22617
2.9529
2.70037
2.46711
2.25175
2.05298
1.86957
1.70035
1.54424
1.40019
1.26724
1.14445
1.03096
0.925956
0.828653
0.73832
0.654261
0.575815
0.502354
0.433276
0.368007
0.305994
0.246704
0.189619
0.134235
0.0800599
0.0266066
164.097
165.551
166.219
166.172
165.482
164.212
162.425
160.178
157.527
154.522
151.211
147.637
143.842
139.863
135.736
131.493
127.163
122.773
118.347
113.908
109.476
105.068
100.701
96.3881
92.1428
87.9756
83.896
79.9121
76.0307
72.2574
68.5969
65.0528
61.6278
58.3237
55.1417
52.0823
49.1454
46.3303
43.6359
41.0606
38.6024
36.2592
34.0284
31.9073
29.8929
27.982
26.1715
24.458
22.838
21.3081
19.8649
18.5047
17.2242
16.0198
14.8881
13.8258
12.8295
11.896
11.0221
10.2049
9.44114
8.72811
8.06296
7.44301
6.86566
6.32842
5.8289
5.36481
4.93397
4.53429
4.16379
3.82057
3.50283
3.20887
2.93707
2.68589
2.45388
2.23967
2.04197
1.85954
1.69124
1.53596
1.39269
1.26044
1.13831
1.02543
0.920991
0.82421
0.734361
0.650753
0.572728
0.499661
0.430953
0.366034
0.304354
0.245381
0.188602
0.133515
0.0796307
0.0264639
163.172
164.618
165.281
165.235
164.548
163.286
161.509
159.275
156.639
153.651
150.358
146.804
143.031
139.074
134.971
130.751
126.446
122.08
117.68
113.266
108.858
104.475
100.133
95.8445
91.6231
87.4794
83.4229
79.4614
75.6019
71.8499
68.2101
64.686
61.2802
57.9948
54.8308
51.7886
48.8683
46.069
43.3898
40.829
38.3847
36.0547
33.8365
31.7274
29.7243
27.8242
26.0239
24.3201
22.7092
21.188
19.7529
18.4004
17.127
15.9294
14.8041
13.7478
12.7571
11.8289
10.96
10.1473
9.3879
8.67889
8.0175
7.40104
6.82695
6.29273
5.79603
5.33456
4.90615
4.50873
4.14031
3.79903
3.48308
3.19078
2.92051
2.67074
2.44005
2.22705
2.03046
1.84906
1.6817
1.5273
1.38483
1.25334
1.1319
1.01965
0.915799
0.819563
0.730221
0.647085
0.5695
0.496844
0.428524
0.363971
0.302638
0.243998
0.187539
0.132763
0.0791818
0.0263148
162.206
163.644
164.303
164.257
163.575
162.319
160.553
158.333
155.712
152.742
149.468
145.936
142.184
138.251
134.172
129.978
125.697
121.358
116.983
112.595
108.214
103.857
99.5402
95.2773
91.0809
86.9617
82.9291
78.9911
75.1545
71.4247
67.8064
64.3031
60.9176
57.6516
54.5063
51.4821
48.5791
45.7964
43.133
40.5874
38.1576
35.8414
33.6363
31.5396
29.5484
27.6596
25.8699
24.1761
22.5748
21.0626
19.636
18.2915
17.0257
15.8352
14.7165
13.6665
12.6816
11.7589
10.8951
10.0873
9.33235
8.62753
7.97005
7.35725
6.78655
6.2555
5.76173
5.30299
4.87712
4.48205
4.11581
3.77655
3.46247
3.1719
2.90323
2.65494
2.42561
2.21387
2.01844
1.83812
1.67175
1.51826
1.37664
1.24592
1.1252
1.01362
0.910381
0.814715
0.725901
0.643257
0.566131
0.493905
0.425989
0.361818
0.300848
0.242554
0.186429
0.131977
0.0787134
0.0261591
161.2
162.629
163.285
163.239
162.56
161.313
159.557
157.351
154.746
151.795
148.541
145.031
141.303
137.394
133.34
129.172
124.918
120.605
116.258
111.897
107.543
103.213
98.923
94.6866
90.5162
86.4225
82.415
78.5014
74.6885
70.9819
67.386
63.9045
60.5399
57.2941
54.1683
51.1629
48.2779
45.5125
42.8656
40.3357
37.921
35.6192
33.4278
31.3441
29.3652
27.4881
25.7095
24.0262
22.4349
20.932
19.5142
18.1781
16.9201
15.737
14.6253
13.5817
12.603
11.686
10.8276
10.0247
9.27449
8.57405
7.92064
7.31164
6.74448
6.21672
5.72601
5.27012
4.84688
4.45426
4.0903
3.75314
3.44101
3.15224
2.88523
2.63848
2.41057
2.20015
2.00593
1.82672
1.66139
1.50885
1.36811
1.2382
1.11822
1.00734
0.904738
0.809665
0.721402
0.63927
0.562622
0.490844
0.423349
0.359575
0.298983
0.241051
0.185274
0.13116
0.0782255
0.025997
160.155
161.574
162.226
162.18
161.506
160.267
158.523
156.33
153.743
150.81
147.578
144.09
140.386
136.503
132.475
128.334
124.108
119.823
115.504
111.172
106.846
102.544
98.2814
94.0725
89.9291
85.862
81.8805
77.9923
74.2041
70.5215
66.949
63.49
60.1472
56.9225
53.817
50.8311
47.9648
45.2173
42.5876
40.0741
37.6751
35.3882
33.211
31.1408
29.1748
27.3098
25.5428
23.8704
22.2894
20.7963
19.3877
18.0602
16.8104
15.6349
14.5305
13.4936
12.5213
11.6102
10.7574
9.95972
9.21435
8.51845
7.86928
7.26422
6.70074
6.1764
5.68888
5.23594
4.81545
4.42538
4.06377
3.7288
3.41869
3.1318
2.86652
2.62138
2.39494
2.18588
1.99293
1.81488
1.65062
1.49907
1.35924
1.23017
1.11097
1.00081
0.898872
0.804415
0.716725
0.635125
0.558974
0.487661
0.420604
0.357244
0.297045
0.239488
0.184073
0.130309
0.0777184
0.0258284
159.07
160.48
161.127
161.082
160.412
159.181
157.449
155.271
152.701
149.788
146.578
143.114
139.435
135.578
131.578
127.464
123.267
119.011
114.721
110.418
106.122
101.849
97.6156
93.4352
89.3199
85.2804
81.3258
77.4639
73.7014
70.0438
66.4954
63.0599
59.7398
56.5369
53.4524
50.4868
47.6398
44.911
42.2991
39.8026
37.4198
35.1484
32.986
30.9298
28.9771
27.1248
25.3698
23.7087
22.1384
20.6554
19.2563
17.9378
16.6965
15.529
14.432
13.4022
12.4365
11.5316
10.6845
9.89225
9.15193
8.46074
7.81597
7.21501
6.65535
6.13457
5.65035
5.20048
4.78284
4.3954
4.03625
3.70354
3.39554
3.11058
2.84711
2.60362
2.37872
2.17108
1.97943
1.80259
1.63944
1.48892
1.35003
1.22184
1.10345
0.994029
0.892784
0.798967
0.711871
0.630823
0.555188
0.484359
0.417755
0.354825
0.295033
0.237866
0.182826
0.129427
0.077192
0.0256535
157.946
159.345
159.988
159.943
159.278
158.056
156.336
154.174
151.622
148.73
145.542
142.103
138.45
134.62
130.648
126.564
122.396
118.17
113.911
109.638
105.372
101.129
96.9257
92.7748
88.6886
84.6776
80.751
76.9164
73.1805
69.5487
66.0255
62.6142
59.3176
56.1373
53.0746
50.1299
47.3031
44.5935
42.0001
39.5213
37.1554
34.9
32.7529
30.7112
28.7723
26.9331
25.1905
23.5412
21.9819
20.5094
19.1202
17.8111
16.5785
15.4193
14.33
13.3075
12.3486
11.4501
10.609
9.82234
9.08725
8.40095
7.76074
7.16403
6.60832
6.09121
5.61042
5.16373
4.74904
4.36434
4.00773
3.67737
3.37154
3.0886
2.82699
2.58522
2.36191
2.15573
1.96544
1.78985
1.62785
1.4784
1.34049
1.2132
1.09565
0.987005
0.886476
0.793322
0.706841
0.626366
0.551265
0.480936
0.414804
0.352318
0.292948
0.236186
0.181534
0.128512
0.0766466
0.0254722
156.782
158.172
158.81
158.765
158.105
156.892
155.185
153.038
150.505
147.634
144.471
141.056
137.43
133.629
129.686
125.632
121.494
117.3
113.072
108.831
104.596
100.384
96.2119
92.0916
88.0355
84.054
80.1563
76.35
72.6416
69.0365
65.5392
62.1531
58.8807
55.7239
52.6838
49.7608
46.9548
44.2651
41.6908
39.2303
36.8817
34.643
32.5116
30.4851
28.5604
26.7348
25.0049
23.3678
21.82
20.3584
18.9794
17.6799
16.4564
15.3057
14.2245
13.2095
12.2576
11.3658
10.5309
9.75001
9.02033
8.33908
7.70359
7.11127
6.55965
6.04636
5.5691
5.1257
4.71407
4.3322
3.97821
3.65029
3.34672
3.06586
2.80617
2.56619
2.34452
2.13986
1.95097
1.77667
1.61587
1.46751
1.33062
1.20427
1.08759
0.979738
0.879949
0.787481
0.701637
0.621754
0.547207
0.477395
0.41175
0.349724
0.290791
0.234447
0.180198
0.127566
0.0760823
0.0252847
155.581
156.959
157.592
157.548
156.893
155.689
153.995
151.865
149.352
146.503
143.363
139.975
136.376
132.604
128.692
124.668
120.563
116.401
112.205
107.996
103.794
99.6149
95.4743
91.3856
87.3606
83.4097
79.5418
75.7647
72.0847
68.5073
65.0368
61.6766
58.4293
55.2967
52.2799
49.3793
46.5948
43.9258
41.3712
38.9296
36.599
34.3774
32.2624
30.2514
28.3415
26.5298
24.8133
23.1887
21.6528
20.2023
18.8339
17.5444
16.3303
15.1884
14.1155
13.1083
12.1637
11.2786
10.4501
9.67527
8.95119
8.27516
7.64454
7.05676
6.50937
6.00001
5.52641
5.08641
4.67793
4.299
3.94772
3.62231
3.32106
3.04236
2.78466
2.54652
2.32655
2.12346
1.93601
1.76305
1.60348
1.45626
1.32042
1.19504
1.07925
0.972229
0.873205
0.781445
0.696259
0.616989
0.543013
0.473736
0.408594
0.347043
0.288563
0.23265
0.178817
0.126588
0.0754992
0.0250909
154.34
155.708
156.336
156.292
155.642
154.448
152.767
150.655
148.161
145.335
142.22
138.859
135.289
131.547
127.666
123.675
119.602
115.473
111.31
107.135
102.967
98.8208
94.7132
90.6571
86.6642
82.7447
78.9077
75.1607
71.51
67.9612
64.5183
61.1849
57.9635
54.8559
51.8631
48.9857
46.2234
43.5756
41.0414
38.6192
36.3072
34.1034
32.0052
30.0102
28.1156
26.3183
24.6155
23.0038
21.4802
20.0413
18.6838
17.4045
16.2001
15.0673
14.0029
13.0038
12.0667
11.1887
10.3668
9.59814
8.87984
8.2092
7.5836
7.00051
6.45748
5.95218
5.48236
5.04587
4.64064
4.26473
3.91625
3.59344
3.29459
3.01811
2.76246
2.52622
2.30801
2.10653
1.92058
1.749
1.5907
1.44466
1.3099
1.18552
1.07065
0.96448
0.866245
0.775217
0.69071
0.612072
0.538685
0.469961
0.405337
0.344277
0.286263
0.230796
0.177392
0.125579
0.0748975
0.0248909
153.062
154.418
155.041
154.998
154.353
153.169
151.502
149.407
146.934
144.131
141.042
137.709
134.169
130.458
126.608
122.65
118.611
114.516
110.388
106.248
102.114
98.0023
93.9287
89.9062
85.9463
82.0594
78.2541
74.5381
70.9178
67.3983
63.9839
60.6782
57.4835
54.4016
51.4336
48.5799
45.8405
43.2147
40.7015
38.2993
36.0065
33.8209
31.7401
29.7617
27.8827
26.1003
24.4116
22.8133
21.3023
19.8753
18.5291
17.2604
16.0659
14.9425
13.887
12.8961
11.9668
11.0961
10.281
9.51865
8.80629
8.14121
7.52079
6.94253
6.404
5.90289
5.43696
5.00408
4.60221
4.22941
3.88382
3.56368
3.26731
2.99311
2.73959
2.5053
2.28889
2.08909
1.90468
1.73452
1.57753
1.43269
1.29905
1.1757
1.06178
0.956493
0.859071
0.768797
0.68499
0.607003
0.534224
0.466069
0.401981
0.341426
0.283892
0.228884
0.175923
0.12454
0.0742773
0.0246848
151.746
153.091
153.708
153.665
153.026
151.852
150.199
148.122
145.67
142.892
139.829
136.525
133.015
129.336
125.52
121.596
117.591
113.532
109.439
105.334
101.236
97.1596
93.1211
89.1331
85.2073
81.3538
77.5813
73.8972
70.308
66.8187
63.4338
60.1564
56.9892
53.9338
50.9913
48.1622
45.4463
42.8431
40.3515
37.97
35.6969
33.5301
31.4672
29.5058
27.6429
25.8759
24.2017
22.6171
21.1191
19.7044
18.3697
17.112
15.9278
14.814
13.7676
12.7852
11.8639
11.0007
10.1926
9.43681
8.73057
8.07121
7.45613
6.88284
6.34894
5.85213
5.39021
4.96105
4.56264
4.19304
3.85043
3.53304
3.23921
2.96738
2.71603
2.48376
2.26921
2.07113
1.8883
1.7196
1.56396
1.42037
1.28788
1.16559
1.05265
0.94827
0.851686
0.762188
0.679101
0.601785
0.529631
0.462062
0.398525
0.338491
0.281452
0.226917
0.17441
0.123469
0.0736387
0.0244726
150.392
151.725
152.337
152.294
151.661
150.497
148.86
146.801
144.371
141.617
138.582
135.307
131.829
128.182
124.4
120.511
116.542
112.519
108.463
104.395
100.333
96.293
92.2904
88.3381
84.4473
80.6281
76.8892
73.2381
69.6808
66.2227
62.8679
59.6198
56.4808
53.4527
50.5365
47.7326
45.041
42.461
39.9916
37.6313
35.3785
33.231
31.1865
29.2426
27.3964
25.6451
23.9858
22.4154
20.9307
19.5286
18.2059
16.9593
15.7857
14.6819
13.6448
12.6711
11.7581
10.9025
10.1017
9.35264
8.6527
7.99922
7.38962
6.82145
6.29231
5.79994
5.34213
4.9168
4.52194
4.15565
3.81608
3.50153
3.21032
2.94091
2.69181
2.46161
2.24897
2.05265
1.87146
1.70427
1.55002
1.40771
1.2764
1.1552
1.04326
0.939812
0.84409
0.75539
0.673044
0.596418
0.524908
0.457941
0.394971
0.335472
0.278942
0.224893
0.172855
0.122368
0.072982
0.0242544
149.002
150.322
150.928
150.886
150.259
149.106
147.483
145.443
143.036
140.308
137.301
134.056
130.61
126.997
123.25
119.397
115.465
111.479
107.46
103.429
99.4049
95.4026
91.437
87.5212
83.6664
79.8826
76.1783
72.5608
69.0365
65.6104
62.2866
59.0685
55.9586
52.9584
50.0692
47.2912
44.6245
42.0683
39.6218
37.2834
35.0514
32.9237
30.8982
28.9722
27.1431
25.408
23.764
22.2081
20.7372
19.348
18.0375
16.8025
15.6398
14.5462
13.5186
12.554
11.6493
10.8017
10.0083
9.26616
8.57269
7.92525
7.32129
6.75837
6.23413
5.74631
5.29274
4.87134
4.48013
4.11722
3.7808
3.46915
3.18064
2.91372
2.66692
2.43885
2.22818
2.03368
1.85416
1.68851
1.53568
1.39469
1.26459
1.14451
1.03362
0.931123
0.836286
0.748406
0.666822
0.590903
0.520055
0.453707
0.391319
0.332371
0.276363
0.222814
0.171257
0.121236
0.0723073
0.0240301
147.574
148.882
149.482
149.441
148.819
147.677
146.07
144.05
141.666
138.963
135.985
132.771
129.358
125.78
122.069
118.253
114.359
110.411
106.431
102.439
98.4526
94.4886
90.5611
86.6828
82.8649
79.1173
75.4485
71.8657
68.3751
64.9818
61.6899
58.5027
55.4225
52.4511
49.5895
46.8382
44.197
41.6653
39.2422
36.9262
34.7156
32.6083
30.6022
28.6946
26.883
25.1646
23.5364
21.9954
20.5385
19.1627
17.8647
16.6415
15.4899
14.4068
13.3891
12.4337
11.5377
10.6983
9.91239
9.17739
8.49057
7.84933
7.25116
6.69363
6.17441
5.69126
5.24204
4.82468
4.43722
4.07778
3.74458
3.43592
3.15017
2.88581
2.64137
2.41548
2.20684
2.0142
1.8364
1.67233
1.52097
1.38133
1.25248
1.13355
1.02372
0.922204
0.828275
0.741238
0.660434
0.585243
0.515073
0.449362
0.387571
0.329187
0.273716
0.22068
0.169616
0.120075
0.0716147
0.0238
146.11
147.405
147.999
147.958
147.343
146.212
144.621
142.621
140.261
137.585
134.636
131.454