/*--------------------------------*- C++ -*----------------------------------*\
| =========                 |                                                 |
| \\      /  F ield         | OpenFOAM: The Open Source CFD Toolbox           |
|  \\    /   O peration     | Version:  2406                                  |
|   \\  /    A nd           | Website:  www.openfoam.com                      |
|    \\/     M anipulation  |                                                 |
\*---------------------------------------------------------------------------*/
FoamFile
{
    version     2.0;
    format      ascii;
    arch        "LSB;label=32;scalar=64";
    class       volVectorField;
    location    "40";
    object      flux;
}
// * * * * * * * * * * * * * * * * * * * * * * * * * * * * * * * * * * * * * //

dimensions      [0 1 -1 1 0 0 0];

internalField   nonuniform List<vector> 
20000
(
(-0.00208004 0.0715644 0)
(-0.00198561 0.0675003 0)
(-0.00189384 0.0636224 0)
(-0.00180477 0.0599254 0)
(-0.00171838 0.0564038 0)
(-0.00163468 0.0530523 0)
(-0.00155378 0.0498654 0)
(-0.00147575 0.0468375 0)
(-0.00140038 0.0439629 0)
(-0.00132769 0.0412364 0)
(-0.00125784 0.0386524 0)
(-0.00119073 0.0362053 0)
(-0.00112624 0.0338898 0)
(-0.00106434 0.0317007 0)
(-0.00100505 0.0296327 0)
(-0.000948338 0.0276807 0)
(-0.000894127 0.0258396 0)
(-0.000842343 0.0241044 0)
(-0.000792922 0.0224704 0)
(-0.000745807 0.0209329 0)
(-0.000700943 0.0194874 0)
(-0.000658269 0.0181293 0)
(-0.000617719 0.0168545 0)
(-0.000579224 0.0156586 0)
(-0.000542711 0.0145377 0)
(-0.00050811 0.0134879 0)
(-0.000475351 0.0125054 0)
(-0.000444363 0.0115866 0)
(-0.000415078 0.010728 0)
(-0.000387428 0.00992638 0)
(-0.000361345 0.00917842 0)
(-0.000336763 0.00848109 0)
(-0.000313617 0.00783145 0)
(-0.000291843 0.0072267 0)
(-0.000271376 0.00666415 0)
(-0.000252156 0.00614126 0)
(-0.000234122 0.00565559 0)
(-0.000217216 0.00520483 0)
(-0.000201381 0.00478678 0)
(-0.000186562 0.00439936 0)
(-0.000172705 0.00404058 0)
(-0.00015976 0.00370858 0)
(-0.000147675 0.00340159 0)
(-0.000136405 0.00311792 0)
(-0.000125902 0.002856 0)
(-0.000116123 0.00261434 0)
(-0.000107025 0.00239154 0)
(-9.8568e-05 0.00218627 0)
(-9.07132e-05 0.00199729 0)
(-8.34237e-05 0.00182344 0)
(-7.66645e-05 0.00166361 0)
(-7.0402e-05 0.0015168 0)
(-6.46045e-05 0.00138202 0)
(-5.92417e-05 0.00125839 0)
(-5.42852e-05 0.00114507 0)
(-4.97078e-05 0.00104127 0)
(-4.54839e-05 0.000946252 0)
(-4.15894e-05 0.000859343 0)
(-3.80013e-05 0.000779905 0)
(-3.46983e-05 0.000707347 0)
(-3.16601e-05 0.00064112 0)
(-2.88677e-05 0.000580714 0)
(-2.63032e-05 0.000525656 0)
(-2.39499e-05 0.000475508 0)
(-2.17921e-05 0.000429863 0)
(-1.98151e-05 0.000388345 0)
(-1.80052e-05 0.000350607 0)
(-1.63496e-05 0.000316329 0)
(-1.48363e-05 0.000285213 0)
(-1.34542e-05 0.000256987 0)
(-1.2193e-05 0.000231399 0)
(-1.1043e-05 0.000208218 0)
(-9.99534e-06 0.00018723 0)
(-9.04162e-06 0.000168239 0)
(-8.17421e-06 0.000151066 0)
(-7.38599e-06 0.000135544 0)
(-6.67041e-06 0.000121524 0)
(-6.02138e-06 0.000108864 0)
(-5.43334e-06 9.74395e-05 0)
(-4.90112e-06 8.71323e-05 0)
(-4.42e-06 7.78362e-05 0)
(-3.98564e-06 6.94534e-05 0)
(-3.59405e-06 6.18946e-05 0)
(-3.24161e-06 5.50781e-05 0)
(-2.92499e-06 4.8929e-05 0)
(-2.64116e-06 4.33789e-05 0)
(-2.38738e-06 3.8365e-05 0)
(-2.16117e-06 3.38299e-05 0)
(-1.96028e-06 2.97209e-05 0)
(-1.78271e-06 2.59893e-05 0)
(-1.62664e-06 2.25905e-05 0)
(-1.49049e-06 1.94831e-05 0)
(-1.37285e-06 1.66289e-05 0)
(-1.2725e-06 1.39921e-05 0)
(-1.18838e-06 1.15392e-05 0)
(-1.1196e-06 9.23883e-06 0)
(-1.06545e-06 7.06106e-06 0)
(-1.02533e-06 4.97731e-06 0)
(-9.98817e-07 2.96e-06 0)
(-9.85631e-07 9.82283e-07 0)
(-0.00623961 0.0715468 0)
(-0.00595637 0.0674836 0)
(-0.00568106 0.0636067 0)
(-0.00541382 0.0599106 0)
(-0.00515467 0.05639 0)
(-0.00490375 0.0530393 0)
(-0.00466105 0.0498531 0)
(-0.00442678 0.0468259 0)
(-0.00420073 0.0439521 0)
(-0.00398281 0.0412262 0)
(-0.00377325 0.0386428 0)
(-0.00357186 0.0361963 0)
(-0.00337839 0.0338814 0)
(-0.00319275 0.0316929 0)
(-0.00301493 0.0296254 0)
(-0.0028448 0.0276739 0)
(-0.00268217 0.0258332 0)
(-0.00252682 0.0240984 0)
(-0.00237856 0.0224649 0)
(-0.00223723 0.0209278 0)
(-0.00210265 0.0194826 0)
(-0.00197465 0.0181249 0)
(-0.00185301 0.0168503 0)
(-0.00173753 0.0156547 0)
(-0.001628 0.0145341 0)
(-0.00152421 0.0134845 0)
(-0.00142594 0.0125023 0)
(-0.00133298 0.0115837 0)
(-0.00124513 0.0107254 0)
(-0.00116219 0.00992393 0)
(-0.00108395 0.00917616 0)
(-0.00101021 0.008479 0)
(-0.000940775 0.00782952 0)
(-0.000875456 0.00722492 0)
(-0.000814061 0.00666251 0)
(-0.000756405 0.00613975 0)
(-0.000702308 0.0056542 0)
(-0.000651594 0.00520355 0)
(-0.000604093 0.0047856 0)
(-0.000559639 0.00439827 0)
(-0.000518072 0.00403959 0)
(-0.000479239 0.00370767 0)
(-0.00044299 0.00340075 0)
(-0.000409181 0.00311715 0)
(-0.000377675 0.00285529 0)
(-0.00034834 0.00261369 0)
(-0.000321049 0.00239095 0)
(-0.00029568 0.00218573 0)
(-0.000272117 0.0019968 0)
(-0.000250251 0.00182299 0)
(-0.000229975 0.0016632 0)
(-0.000211189 0.00151642 0)
(-0.000193797 0.00138168 0)
(-0.000177711 0.00125808 0)
(-0.000162842 0.00114479 0)
(-0.000149111 0.00104101 0)
(-0.00013644 0.000946018 0)
(-0.000124758 0.000859131 0)
(-0.000113995 0.000779712 0)
(-0.000104086 0.000707172 0)
(-9.49725e-05 0.000640962 0)
(-8.65959e-05 0.000580571 0)
(-7.89031e-05 0.000525527 0)
(-7.18437e-05 0.000475391 0)
(-6.53708e-05 0.000429757 0)
(-5.94403e-05 0.000388249 0)
(-5.40111e-05 0.000350521 0)
(-4.90447e-05 0.000316251 0)
(-4.45053e-05 0.000285143 0)
(-4.03594e-05 0.000256924 0)
(-3.65761e-05 0.000231342 0)
(-3.31264e-05 0.000208167 0)
(-2.99836e-05 0.000187184 0)
(-2.71226e-05 0.000168198 0)
(-2.45206e-05 0.000151028 0)
(-2.21562e-05 0.000135511 0)
(-2.00096e-05 0.000121494 0)
(-1.80627e-05 0.000108838 0)
(-1.62987e-05 9.74154e-05 0)
(-1.47021e-05 8.71109e-05 0)
(-1.32589e-05 7.7817e-05 0)
(-1.19559e-05 6.94363e-05 0)
(-1.07813e-05 6.18794e-05 0)
(-9.72403e-06 5.50645e-05 0)
(-8.77424e-06 4.89169e-05 0)
(-7.92282e-06 4.33682e-05 0)
(-7.16156e-06 3.83556e-05 0)
(-6.48298e-06 3.38216e-05 0)
(-5.88037e-06 2.97135e-05 0)
(-5.34768e-06 2.59829e-05 0)
(-4.87952e-06 2.25849e-05 0)
(-4.47111e-06 1.94783e-05 0)
(-4.11822e-06 1.66248e-05 0)
(-3.81718e-06 1.39886e-05 0)
(-3.56484e-06 1.15364e-05 0)
(-3.35854e-06 9.23656e-06 0)
(-3.19608e-06 7.05933e-06 0)
(-3.07573e-06 4.97609e-06 0)
(-2.99621e-06 2.95928e-06 0)
(-2.95665e-06 9.82043e-07 0)
(-0.0103977 0.0715115 0)
(-0.0099257 0.0674503 0)
(-0.00946683 0.0635752 0)
(-0.00902149 0.059881 0)
(-0.00858967 0.0563621 0)
(-0.00817159 0.0530131 0)
(-0.00776719 0.0498285 0)
(-0.0073767 0.0468028 0)
(-0.00700002 0.0439304 0)
(-0.00663699 0.0412059 0)
(-0.00628776 0.0386237 0)
(-0.0059521 0.0361784 0)
(-0.00562967 0.0338647 0)
(-0.00532037 0.0316773 0)
(-0.00502408 0.0296108 0)
(-0.00474058 0.0276602 0)
(-0.00446955 0.0258204 0)
(-0.00421066 0.0240865 0)
(-0.0039636 0.0224538 0)
(-0.0037281 0.0209174 0)
(-0.00350384 0.019473 0)
(-0.00329054 0.0181159 0)
(-0.00308784 0.016842 0)
(-0.00289541 0.015647 0)
(-0.00271289 0.0145269 0)
(-0.00253993 0.0134779 0)
(-0.00237617 0.0124961 0)
(-0.00222127 0.011578 0)
(-0.00207488 0.0107201 0)
(-0.00193666 0.00991903 0)
(-0.00180628 0.00917163 0)
(-0.0016834 0.00847481 0)
(-0.0015677 0.00782566 0)
(-0.00145885 0.00722135 0)
(-0.00135654 0.00665922 0)
(-0.00126047 0.00613672 0)
(-0.00117032 0.00565141 0)
(-0.00108581 0.00520098 0)
(-0.00100666 0.00478324 0)
(-0.000932578 0.0043961 0)
(-0.000863312 0.00403759 0)
(-0.0007986 0.00370584 0)
(-0.000738195 0.00339907 0)
(-0.000681856 0.00311561 0)
(-0.000629355 0.00285388 0)
(-0.000580471 0.0026124 0)
(-0.000534993 0.00238977 0)
(-0.000492718 0.00218465 0)
(-0.000453454 0.00199581 0)
(-0.000417016 0.00182209 0)
(-0.000383228 0.00166238 0)
(-0.000351923 0.00151567 0)
(-0.000322943 0.001381 0)
(-0.000296136 0.00125746 0)
(-0.000271359 0.00114422 0)
(-0.000248478 0.0010405 0)
(-0.000227363 0.000945551 0)
(-0.000207895 0.000858707 0)
(-0.00018996 0.000779327 0)
(-0.000173449 0.000706823 0)
(-0.000158261 0.000640646 0)
(-0.000144303 0.000580284 0)
(-0.000131484 0.000525267 0)
(-0.00011972 0.000475156 0)
(-0.000108933 0.000429545 0)
(-9.90509e-05 0.000388058 0)
(-9.00037e-05 0.000350348 0)
(-8.17277e-05 0.000316095 0)
(-7.41632e-05 0.000285002 0)
(-6.72546e-05 0.000256797 0)
(-6.09501e-05 0.000231228 0)
(-5.52016e-05 0.000208064 0)
(-4.99644e-05 0.000187091 0)
(-4.5197e-05 0.000168115 0)
(-4.0861e-05 0.000150954 0)
(-3.69209e-05 0.000135444 0)
(-3.33438e-05 0.000121434 0)
(-3.00995e-05 0.000108784 0)
(-2.716e-05 9.73674e-05 0)
(-2.44996e-05 8.70679e-05 0)
(-2.20945e-05 7.77786e-05 0)
(-1.99233e-05 6.94021e-05 0)
(-1.79658e-05 6.18489e-05 0)
(-1.62041e-05 5.50374e-05 0)
(-1.46213e-05 4.88928e-05 0)
(-1.32025e-05 4.33468e-05 0)
(-1.1934e-05 3.83367e-05 0)
(-1.08032e-05 3.38049e-05 0)
(-9.799e-06 2.96989e-05 0)
(-8.91133e-06 2.59701e-05 0)
(-8.1312e-06 2.25738e-05 0)
(-7.45062e-06 1.94687e-05 0)
(-6.86257e-06 1.66166e-05 0)
(-6.36092e-06 1.39817e-05 0)
(-5.94043e-06 1.15307e-05 0)
(-5.59664e-06 9.23202e-06 0)
(-5.32592e-06 7.05585e-06 0)
(-5.12538e-06 4.97364e-06 0)
(-4.99286e-06 2.95782e-06 0)
(-4.92695e-06 9.8156e-07 0)
(-0.0145532 0.0714586 0)
(-0.0138926 0.0674005 0)
(-0.0132504 0.0635282 0)
(-0.012627 0.0598367 0)
(-0.0120226 0.0563203 0)
(-0.0114374 0.0529738 0)
(-0.0108714 0.0497916 0)
(-0.0103248 0.0467681 0)
(-0.00979761 0.0438979 0)
(-0.00928953 0.0411754 0)
(-0.00880071 0.0385951 0)
(-0.00833084 0.0361517 0)
(-0.00787956 0.0338397 0)
(-0.00744668 0.0316538 0)
(-0.00703199 0.0295889 0)
(-0.00663519 0.0276397 0)
(-0.00625583 0.0258013 0)
(-0.00589346 0.0240687 0)
(-0.00554766 0.0224371 0)
(-0.00521804 0.0209019 0)
(-0.00490417 0.0194585 0)
(-0.00460562 0.0181025 0)
(-0.00432192 0.0168295 0)
(-0.00405258 0.0156354 0)
(-0.00379711 0.0145162 0)
(-0.00355502 0.0134679 0)
(-0.00332581 0.0124869 0)
(-0.003109 0.0115694 0)
(-0.00290411 0.0107122 0)
(-0.00271065 0.00991169 0)
(-0.00252816 0.00916484 0)
(-0.00235618 0.00846854 0)
(-0.00219424 0.00781986 0)
(-0.00204189 0.007216 0)
(-0.00189869 0.00665429 0)
(-0.00176422 0.00613217 0)
(-0.00163804 0.00564722 0)
(-0.00151976 0.00519713 0)
(-0.00140897 0.0047797 0)
(-0.00130529 0.00439285 0)
(-0.00120834 0.0040346 0)
(-0.00111776 0.00370309 0)
(-0.00103322 0.00339655 0)
(-0.000954363 0.0031133 0)
(-0.00088088 0.00285177 0)
(-0.00081246 0.00261047 0)
(-0.000748806 0.002388 0)
(-0.000689636 0.00218303 0)
(-0.000634679 0.00199433 0)
(-0.000583678 0.00182074 0)
(-0.000536387 0.00166115 0)
(-0.000492571 0.00151455 0)
(-0.000452008 0.00137998 0)
(-0.000414487 0.00125653 0)
(-0.000379809 0.00114338 0)
(-0.000347783 0.00103973 0)
(-0.00031823 0.000944851 0)
(-0.000290982 0.000858071 0)
(-0.000265878 0.00077875 0)
(-0.000242768 0.0007063 0)
(-0.000221511 0.000640171 0)
(-0.000201974 0.000579855 0)
(-0.000184031 0.000524878 0)
(-0.000167566 0.000474804 0)
(-0.000152469 0.000429227 0)
(-0.000138637 0.00038777 0)
(-0.000125974 0.000350089 0)
(-0.000114391 0.000315861 0)
(-0.000103803 0.000284791 0)
(-9.41333e-05 0.000256607 0)
(-8.53092e-05 0.000231057 0)
(-7.72632e-05 0.00020791 0)
(-6.99329e-05 0.000186953 0)
(-6.32601e-05 0.00016799 0)
(-5.71912e-05 0.000150842 0)
(-5.16764e-05 0.000135344 0)
(-4.66698e-05 0.000121344 0)
(-4.21289e-05 0.000108703 0)
(-3.80146e-05 9.72954e-05 0)
(-3.42909e-05 8.70035e-05 0)
(-3.09247e-05 7.77211e-05 0)
(-2.78857e-05 6.93507e-05 0)
(-2.5146e-05 6.18031e-05 0)
(-2.26801e-05 5.49967e-05 0)
(-2.04648e-05 4.88567e-05 0)
(-1.8479e-05 4.33147e-05 0)
(-1.67034e-05 3.83083e-05 0)
(-1.51207e-05 3.37799e-05 0)
(-1.37152e-05 2.96769e-05 0)
(-1.24728e-05 2.59509e-05 0)
(-1.13809e-05 2.25571e-05 0)
(-1.04283e-05 1.94543e-05 0)
(-9.60522e-06 1.66043e-05 0)
(-8.9031e-06 1.39714e-05 0)
(-8.31455e-06 1.15222e-05 0)
(-7.83337e-06 9.22519e-06 0)
(-7.45446e-06 7.05064e-06 0)
(-7.17376e-06 4.96997e-06 0)
(-6.98829e-06 2.95564e-06 0)
(-6.89604e-06 9.80836e-07 0)
(-0.018705 0.0713879 0)
(-0.0178561 0.0673339 0)
(-0.0170306 0.0634655 0)
(-0.0162294 0.0597776 0)
(-0.0154525 0.0562647 0)
(-0.0147003 0.0529215 0)
(-0.0139729 0.0497424 0)
(-0.0132704 0.0467219 0)
(-0.0125928 0.0438545 0)
(-0.0119398 0.0411347 0)
(-0.0113115 0.038557 0)
(-0.0107075 0.036116 0)
(-0.0101275 0.0338062 0)
(-0.00957116 0.0316225 0)
(-0.00903818 0.0295596 0)
(-0.00852817 0.0276124 0)
(-0.00804056 0.0257758 0)
(-0.0075748 0.0240449 0)
(-0.00713035 0.022415 0)
(-0.00670669 0.0208813 0)
(-0.00630328 0.0194393 0)
(-0.00591956 0.0180846 0)
(-0.00555493 0.0168129 0)
(-0.00520875 0.01562 0)
(-0.0048804 0.0145018 0)
(-0.00456924 0.0134546 0)
(-0.00427464 0.0124745 0)
(-0.00399597 0.011558 0)
(-0.00373262 0.0107016 0)
(-0.00348398 0.00990189 0)
(-0.00324943 0.00915578 0)
(-0.00302838 0.00846017 0)
(-0.00282023 0.00781214 0)
(-0.00262442 0.00720888 0)
(-0.00244037 0.00664772 0)
(-0.00226754 0.00612612 0)
(-0.00210536 0.00564164 0)
(-0.00195334 0.005192 0)
(-0.00181094 0.00477498 0)
(-0.00167767 0.00438851 0)
(-0.00155307 0.00403062 0)
(-0.00143665 0.00369944 0)
(-0.00132799 0.0033932 0)
(-0.00122664 0.00311023 0)
(-0.00113219 0.00284895 0)
(-0.00104425 0.00260789 0)
(-0.000962433 0.00238564 0)
(-0.000886383 0.00218087 0)
(-0.000815748 0.00199236 0)
(-0.000750196 0.00181894 0)
(-0.000689413 0.00165951 0)
(-0.000633097 0.00151306 0)
(-0.000580962 0.00137861 0)
(-0.000532737 0.00125529 0)
(-0.000488165 0.00114225 0)
(-0.000447002 0.0010387 0)
(-0.000409019 0.000943918 0)
(-0.000373996 0.000857224 0)
(-0.000341731 0.000777981 0)
(-0.000312028 0.000705603 0)
(-0.000284707 0.000639539 0)
(-0.000259596 0.000579282 0)
(-0.000236534 0.00052436 0)
(-0.000215372 0.000474335 0)
(-0.000195967 0.000428803 0)
(-0.000178189 0.000387387 0)
(-0.000161913 0.000349743 0)
(-0.000147025 0.000315549 0)
(-0.000133417 0.00028451 0)
(-0.000120989 0.000256354 0)
(-0.000109647 0.000230829 0)
(-9.93057e-05 0.000207705 0)
(-8.98841e-05 0.000186768 0)
(-8.13077e-05 0.000167824 0)
(-7.35074e-05 0.000150693 0)
(-6.64193e-05 0.00013521 0)
(-5.99843e-05 0.000121224 0)
(-5.41479e-05 0.000108596 0)
(-4.88598e-05 9.71993e-05 0)
(-4.40738e-05 8.69176e-05 0)
(-3.97473e-05 7.76444e-05 0)
(-3.58413e-05 6.92823e-05 0)
(-3.23199e-05 6.17421e-05 0)
(-2.91505e-05 5.49424e-05 0)
(-2.63032e-05 4.88084e-05 0)
(-2.37509e-05 4.3272e-05 0)
(-2.14688e-05 3.82705e-05 0)
(-1.94346e-05 3.37466e-05 0)
(-1.76281e-05 2.96477e-05 0)
(-1.60312e-05 2.59253e-05 0)
(-1.46277e-05 2.25349e-05 0)
(-1.34034e-05 1.94352e-05 0)
(-1.23455e-05 1.65879e-05 0)
(-1.14431e-05 1.39576e-05 0)
(-1.06866e-05 1.15108e-05 0)
(-1.00682e-05 9.2161e-06 0)
(-9.58115e-06 7.04369e-06 0)
(-9.22038e-06 4.96507e-06 0)
(-8.98199e-06 2.95272e-06 0)
(-8.86342e-06 9.79869e-07 0)
(-0.0228522 0.0712996 0)
(-0.021815 0.0672506 0)
(-0.0208067 0.0633871 0)
(-0.0198277 0.0597037 0)
(-0.0188786 0.0561952 0)
(-0.0179597 0.0528561 0)
(-0.017071 0.049681 0)
(-0.0162127 0.0466642 0)
(-0.0153849 0.0438003 0)
(-0.0145871 0.0410839 0)
(-0.0138194 0.0385094 0)
(-0.0130816 0.0360713 0)
(-0.012373 0.0337645 0)
(-0.0116933 0.0315835 0)
(-0.0110421 0.0295231 0)
(-0.010419 0.0275783 0)
(-0.0098233 0.0257439 0)
(-0.00925427 0.0240152 0)
(-0.00871128 0.0223873 0)
(-0.00819369 0.0208555 0)
(-0.00770085 0.0194153 0)
(-0.00723205 0.0180623 0)
(-0.00678657 0.0167921 0)
(-0.00636364 0.0156007 0)
(-0.00596248 0.0144839 0)
(-0.00558233 0.013438 0)
(-0.00522241 0.0124591 0)
(-0.00488196 0.0115437 0)
(-0.00456022 0.0106883 0)
(-0.00425644 0.00988966 0)
(-0.00396989 0.00914447 0)
(-0.00369983 0.00844972 0)
(-0.00344553 0.00780248 0)
(-0.00320631 0.00719997 0)
(-0.00298145 0.0066395 0)
(-0.00277029 0.00611855 0)
(-0.00257216 0.00563467 0)
(-0.00238643 0.00518558 0)
(-0.00221246 0.00476908 0)
(-0.00204965 0.00438309 0)
(-0.00189741 0.00402564 0)
(-0.00175519 0.00369486 0)
(-0.00162243 0.003389 0)
(-0.0014986 0.00310638 0)
(-0.00138322 0.00284544 0)
(-0.00127578 0.00260467 0)
(-0.00117582 0.00238269 0)
(-0.00108291 0.00217818 0)
(-0.000996615 0.0019899 0)
(-0.000916529 0.00181669 0)
(-0.000842269 0.00165746 0)
(-0.000773467 0.00151119 0)
(-0.000709773 0.00137691 0)
(-0.000650855 0.00125374 0)
(-0.000596401 0.00114084 0)
(-0.000546111 0.00103742 0)
(-0.000499706 0.000942752 0)
(-0.000456919 0.000856165 0)
(-0.000417499 0.00077702 0)
(-0.000381211 0.000704731 0)
(-0.000347832 0.000638749 0)
(-0.000317153 0.000578567 0)
(-0.000288978 0.000523712 0)
(-0.000263124 0.00047375 0)
(-0.000239417 0.000428273 0)
(-0.000217697 0.000386909 0)
(-0.000197813 0.000349311 0)
(-0.000179624 0.000315159 0)
(-0.000162998 0.000284158 0)
(-0.000147814 0.000256037 0)
(-0.000133958 0.000230544 0)
(-0.000121324 0.000207448 0)
(-0.000109813 0.000186538 0)
(-9.93352e-05 0.000167617 0)
(-8.98054e-05 0.000150507 0)
(-8.11457e-05 0.000135043 0)
(-7.3284e-05 0.000121074 0)
(-6.61536e-05 0.000108462 0)
(-5.9693e-05 9.70793e-05 0)
(-5.38458e-05 8.68103e-05 0)
(-4.85601e-05 7.75485e-05 0)
(-4.3788e-05 6.91967e-05 0)
(-3.94859e-05 6.16659e-05 0)
(-3.56137e-05 5.48746e-05 0)
(-3.21352e-05 4.87482e-05 0)
(-2.90169e-05 4.32186e-05 0)
(-2.62288e-05 3.82233e-05 0)
(-2.37436e-05 3.3705e-05 0)
(-2.15365e-05 2.96111e-05 0)
(-1.95856e-05 2.58933e-05 0)
(-1.7871e-05 2.2507e-05 0)
(-1.63752e-05 1.94112e-05 0)
(-1.50828e-05 1.65675e-05 0)
(-1.39802e-05 1.39404e-05 0)
(-1.30561e-05 1.14966e-05 0)
(-1.23005e-05 9.20473e-06 0)
(-1.17055e-05 7.035e-06 0)
(-1.12647e-05 4.95894e-06 0)
(-1.09735e-05 2.94908e-06 0)
(-1.08286e-05 9.78661e-07 0)
(-0.0269938 0.0711939 0)
(-0.0257686 0.0671508 0)
(-0.0245776 0.063293 0)
(-0.0234212 0.0596151 0)
(-0.0223001 0.0561118 0)
(-0.0212146 0.0527777 0)
(-0.0201648 0.0496072 0)
(-0.0191511 0.046595 0)
(-0.0181731 0.0437353 0)
(-0.0172307 0.0410229 0)
(-0.016324 0.0384522 0)
(-0.0154524 0.0360178 0)
(-0.0146154 0.0337144 0)
(-0.0138125 0.0315366 0)
(-0.0130434 0.0294793 0)
(-0.0123073 0.0275373 0)
(-0.0116036 0.0257057 0)
(-0.0109315 0.0239796 0)
(-0.0102901 0.0223541 0)
(-0.00967867 0.0208246 0)
(-0.00909651 0.0193865 0)
(-0.00854276 0.0180355 0)
(-0.00801654 0.0167672 0)
(-0.00751696 0.0155775 0)
(-0.0070431 0.0144624 0)
(-0.00659404 0.013418 0)
(-0.00616889 0.0124406 0)
(-0.00576674 0.0115266 0)
(-0.00538669 0.0106725 0)
(-0.00502786 0.00987498 0)
(-0.00468937 0.0091309 0)
(-0.00437036 0.00843718 0)
(-0.00406998 0.00779091 0)
(-0.0037874 0.00718928 0)
(-0.0035218 0.00662965 0)
(-0.00327237 0.00610947 0)
(-0.00303833 0.00562631 0)
(-0.00281893 0.00517789 0)
(-0.00261343 0.004762 0)
(-0.00242111 0.00437658 0)
(-0.00224129 0.00401966 0)
(-0.00207329 0.00368938 0)
(-0.00191647 0.00338397 0)
(-0.0017702 0.00310178 0)
(-0.0016339 0.00284121 0)
(-0.00150699 0.00260081 0)
(-0.00138892 0.00237915 0)
(-0.00127917 0.00217495 0)
(-0.00117724 0.00198695 0)
(-0.00108264 0.001814 0)
(-0.000994918 0.001655 0)
(-0.000913646 0.00150894 0)
(-0.000838408 0.00137487 0)
(-0.000768813 0.00125188 0)
(-0.000704489 0.00113914 0)
(-0.000645086 0.00103588 0)
(-0.00059027 0.000941354 0)
(-0.000539728 0.000854894 0)
(-0.000493164 0.000775868 0)
(-0.000450299 0.000703685 0)
(-0.000410871 0.000637801 0)
(-0.000374632 0.000577708 0)
(-0.000341351 0.000522936 0)
(-0.000310811 0.000473047 0)
(-0.000282808 0.000427638 0)
(-0.000257151 0.000386335 0)
(-0.000233663 0.000348793 0)
(-0.000212178 0.000314692 0)
(-0.000192539 0.000283737 0)
(-0.000174603 0.000255657 0)
(-0.000158236 0.000230202 0)
(-0.000143312 0.000207141 0)
(-0.000129715 0.000186261 0)
(-0.000117338 0.000167369 0)
(-0.000106081 0.000150284 0)
(-9.58522e-05 0.000134843 0)
(-8.65656e-05 0.000120895 0)
(-7.81429e-05 0.000108301 0)
(-7.05115e-05 9.69354e-05 0)
(-6.36046e-05 8.66816e-05 0)
(-5.73608e-05 7.74335e-05 0)
(-5.17239e-05 6.90941e-05 0)
(-4.66421e-05 6.15745e-05 0)
(-4.20682e-05 5.47932e-05 0)
(-3.79592e-05 4.86759e-05 0)
(-3.42758e-05 4.31545e-05 0)
(-3.09824e-05 3.81666e-05 0)
(-2.80467e-05 3.3655e-05 0)
(-2.54397e-05 2.95672e-05 0)
(-2.31352e-05 2.58549e-05 0)
(-2.11099e-05 2.24737e-05 0)
(-1.9343e-05 1.93824e-05 0)
(-1.78163e-05 1.65429e-05 0)
(-1.6514e-05 1.39197e-05 0)
(-1.54223e-05 1.14796e-05 0)
(-1.45298e-05 9.19109e-06 0)
(-1.38269e-05 7.02458e-06 0)
(-1.33063e-05 4.9516e-06 0)
(-1.29623e-05 2.94471e-06 0)
(-1.27912e-05 9.77211e-07 0)
(-0.0311287 0.0710705 0)
(-0.0297159 0.0670345 0)
(-0.0283424 0.0631833 0)
(-0.0270089 0.0595118 0)
(-0.025716 0.0560146 0)
(-0.0244643 0.0526862 0)
(-0.0232537 0.0495213 0)
(-0.0220846 0.0465142 0)
(-0.0209569 0.0436596 0)
(-0.0198702 0.0409518 0)
(-0.0188245 0.0383856 0)
(-0.0178194 0.0359554 0)
(-0.0168542 0.033656 0)
(-0.0159284 0.031482 0)
(-0.0150414 0.0294282 0)
(-0.0141926 0.0274896 0)
(-0.0133811 0.0256612 0)
(-0.0126059 0.023938 0)
(-0.0118663 0.0223153 0)
(-0.0111613 0.0207885 0)
(-0.0104899 0.0193529 0)
(-0.00985136 0.0180042 0)
(-0.00924453 0.0167382 0)
(-0.00866842 0.0155505 0)
(-0.00812197 0.0144374 0)
(-0.00760413 0.0133948 0)
(-0.00711385 0.0124191 0)
(-0.00665009 0.0115066 0)
(-0.00621183 0.010654 0)
(-0.00579803 0.00985787 0)
(-0.00540769 0.00911508 0)
(-0.00503982 0.00842256 0)
(-0.00469343 0.00777741 0)
(-0.00436756 0.00717683 0)
(-0.00406127 0.00661816 0)
(-0.00377363 0.00609888 0)
(-0.00350375 0.00561656 0)
(-0.00325074 0.00516892 0)
(-0.00301376 0.00475375 0)
(-0.00279198 0.004369 0)
(-0.00258461 0.0040127 0)
(-0.00239088 0.00368299 0)
(-0.00221003 0.00337811 0)
(-0.00204137 0.0030964 0)
(-0.00188419 0.00283629 0)
(-0.00173784 0.0025963 0)
(-0.00160168 0.00237503 0)
(-0.00147512 0.00217118 0)
(-0.00135757 0.00198351 0)
(-0.00124848 0.00181085 0)
(-0.00114732 0.00165213 0)
(-0.0010536 0.00150633 0)
(-0.000966837 0.00137249 0)
(-0.000886581 0.00124971 0)
(-0.000812404 0.00113717 0)
(-0.000743901 0.00103408 0)
(-0.000680688 0.000939723 0)
(-0.000622405 0.000853413 0)
(-0.000568708 0.000774524 0)
(-0.000519277 0.000702466 0)
(-0.000473809 0.000636697 0)
(-0.000432019 0.000576708 0)
(-0.00039364 0.00052203 0)
(-0.000358421 0.000472227 0)
(-0.000326129 0.000426897 0)
(-0.000296542 0.000385666 0)
(-0.000269456 0.000348189 0)
(-0.000244679 0.000314147 0)
(-0.000222032 0.000283246 0)
(-0.000201349 0.000255214 0)
(-0.000182475 0.000229803 0)
(-0.000165265 0.000206782 0)
(-0.000149585 0.000185938 0)
(-0.000135312 0.000167079 0)
(-0.000122331 0.000150024 0)
(-0.000110535 0.000134609 0)
(-9.98259e-05 0.000120685 0)
(-9.0113e-05 0.000108114 0)
(-8.13126e-05 9.67675e-05 0)
(-7.33477e-05 8.65315e-05 0)
(-6.61475e-05 7.72995e-05 0)
(-5.9647e-05 6.89745e-05 0)
(-5.37868e-05 6.14679e-05 0)
(-4.85123e-05 5.46983e-05 0)
(-4.37739e-05 4.85917e-05 0)
(-3.95262e-05 4.30798e-05 0)
(-3.57284e-05 3.81005e-05 0)
(-3.2343e-05 3.35967e-05 0)
(-2.93366e-05 2.9516e-05 0)
(-2.66791e-05 2.58102e-05 0)
(-2.43435e-05 2.24348e-05 0)
(-2.2306e-05 1.93489e-05 0)
(-2.05454e-05 1.65143e-05 0)
(-1.90436e-05 1.38956e-05 0)
(-1.77847e-05 1.14597e-05 0)
(-1.67555e-05 9.17519e-06 0)
(-1.5945e-05 7.01242e-06 0)
(-1.53446e-05 4.94303e-06 0)
(-1.49479e-05 2.93962e-06 0)
(-1.47506e-05 9.7552e-07 0)
(-0.035256 0.0709297 0)
(-0.0336558 0.0669016 0)
(-0.0321002 0.0630581 0)
(-0.0305899 0.0593938 0)
(-0.0291257 0.0559036 0)
(-0.0277079 0.0525818 0)
(-0.0263369 0.0494231 0)
(-0.0250128 0.046422 0)
(-0.0237355 0.043573 0)
(-0.0225047 0.0408707 0)
(-0.0213204 0.0383095 0)
(-0.0201821 0.0358841 0)
(-0.0190889 0.0335892 0)
(-0.0180403 0.0314195 0)
(-0.0170357 0.0293699 0)
(-0.0160743 0.0274351 0)
(-0.0151552 0.0256103 0)
(-0.0142773 0.0238906 0)
(-0.0134396 0.0222711 0)
(-0.0126411 0.0207473 0)
(-0.0118808 0.0193146 0)
(-0.0111575 0.0179685 0)
(-0.0104702 0.016705 0)
(-0.00981775 0.0155197 0)
(-0.00919884 0.0144087 0)
(-0.00861234 0.0133682 0)
(-0.00805706 0.0123944 0)
(-0.00753181 0.0114838 0)
(-0.00703543 0.0106329 0)
(-0.00656677 0.00983833 0)
(-0.00612468 0.00909701 0)
(-0.00570803 0.00840586 0)
(-0.00531572 0.00776199 0)
(-0.00494664 0.0071626 0)
(-0.00459974 0.00660504 0)
(-0.00427397 0.00608679 0)
(-0.0039683 0.00560543 0)
(-0.00368175 0.00515867 0)
(-0.00341335 0.00474433 0)
(-0.00316217 0.00436034 0)
(-0.0029273 0.00400474 0)
(-0.00270788 0.00367569 0)
(-0.00250305 0.00337141 0)
(-0.00231202 0.00309026 0)
(-0.002134 0.00283067 0)
(-0.00196825 0.00259115 0)
(-0.00181404 0.00237032 0)
(-0.0016707 0.00216688 0)
(-0.00153756 0.00197957 0)
(-0.00141401 0.00180726 0)
(-0.00129944 0.00164886 0)
(-0.00119329 0.00150334 0)
(-0.00109503 0.00136977 0)
(-0.00100413 0.00124723 0)
(-0.000920118 0.00113492 0)
(-0.000842533 0.00103203 0)
(-0.000770939 0.00093786 0)
(-0.000704927 0.000851722 0)
(-0.000644111 0.000772988 0)
(-0.000588126 0.000701074 0)
(-0.00053663 0.000635435 0)
(-0.000489299 0.000575564 0)
(-0.000445831 0.000520995 0)
(-0.000405944 0.000471291 0)
(-0.000369369 0.000426051 0)
(-0.00033586 0.000384901 0)
(-0.000305183 0.000347498 0)
(-0.000277121 0.000313524 0)
(-0.000251471 0.000282684 0)
(-0.000228046 0.000254709 0)
(-0.000206669 0.000229348 0)
(-0.000187177 0.000206372 0)
(-0.000169418 0.00018557 0)
(-0.000153253 0.000166748 0)
(-0.000138551 0.000149726 0)
(-0.000125191 0.000134343 0)
(-0.000113062 0.000120446 0)
(-0.000102061 0.000107899 0)
(-9.20936e-05 9.65758e-05 0)
(-8.30726e-05 8.636e-05 0)
(-7.49178e-05 7.71463e-05 0)
(-6.75555e-05 6.88379e-05 0)
(-6.09182e-05 6.13461e-05 0)
(-5.49444e-05 5.459e-05 0)
(-4.95777e-05 4.84954e-05 0)
(-4.47669e-05 4.29945e-05 0)
(-4.04655e-05 3.80251e-05 0)
(-3.66313e-05 3.35302e-05 0)
(-3.32263e-05 2.94575e-05 0)
(-3.02164e-05 2.5759e-05 0)
(-2.75712e-05 2.23904e-05 0)
(-2.52635e-05 1.93105e-05 0)
(-2.32695e-05 1.64816e-05 0)
(-2.15685e-05 1.38681e-05 0)
(-2.01427e-05 1.1437e-05 0)
(-1.89771e-05 9.15702e-06 0)
(-1.80591e-05 6.99854e-06 0)
(-1.73791e-05 4.93324e-06 0)
(-1.69298e-05 2.9338e-06 0)
(-1.67063e-05 9.73589e-07 0)
(-0.0393745 0.0707713 0)
(-0.0375875 0.0667522 0)
(-0.0358501 0.0629173 0)
(-0.0341634 0.0592612 0)
(-0.0325281 0.0557787 0)
(-0.0309447 0.0524644 0)
(-0.0294135 0.0493127 0)
(-0.0279347 0.0463183 0)
(-0.0265082 0.0434757 0)
(-0.0251337 0.0407794 0)
(-0.0238111 0.0382239 0)
(-0.0225397 0.035804 0)
(-0.0213188 0.0335142 0)
(-0.0201477 0.0313494 0)
(-0.0190258 0.0293043 0)
(-0.0179521 0.0273739 0)
(-0.0169256 0.0255531 0)
(-0.0159452 0.0238372 0)
(-0.0150096 0.0222214 0)
(-0.0141178 0.0207009 0)
(-0.0132687 0.0192714 0)
(-0.0124609 0.0179284 0)
(-0.0116934 0.0166677 0)
(-0.0109647 0.015485 0)
(-0.0102734 0.0143766 0)
(-0.00961843 0.0133384 0)
(-0.00899827 0.0123668 0)
(-0.00841167 0.0114582 0)
(-0.0078573 0.0106091 0)
(-0.00733389 0.00981636 0)
(-0.00684016 0.00907669 0)
(-0.00637484 0.00838709 0)
(-0.00593669 0.00774465 0)
(-0.0055245 0.0071466 0)
(-0.00513708 0.00659029 0)
(-0.00477325 0.0060732 0)
(-0.00443187 0.00559291 0)
(-0.00411184 0.00514715 0)
(-0.00381209 0.00473373 0)
(-0.00353157 0.0043506 0)
(-0.00326926 0.0039958 0)
(-0.00302421 0.00366748 0)
(-0.00279546 0.00336389 0)
(-0.00258211 0.00308336 0)
(-0.0023833 0.00282435 0)
(-0.00219818 0.00258537 0)
(-0.00202596 0.00236503 0)
(-0.00186587 0.00216204 0)
(-0.00171718 0.00197515 0)
(-0.00157919 0.00180323 0)
(-0.00145124 0.00164518 0)
(-0.00133269 0.00149999 0)
(-0.00122295 0.00136671 0)
(-0.00112143 0.00124445 0)
(-0.00102761 0.00113238 0)
(-0.000940956 0.00102973 0)
(-0.000860999 0.000935766 0)
(-0.000787276 0.00084982 0)
(-0.000719356 0.000771262 0)
(-0.000656831 0.000699509 0)
(-0.000599318 0.000634016 0)
(-0.000546458 0.000574279 0)
(-0.000497913 0.000519832 0)
(-0.000453365 0.000470239 0)
(-0.000412519 0.0004251 0)
(-0.000375095 0.000384042 0)
(-0.000340834 0.000346723 0)
(-0.000309494 0.000312824 0)
(-0.000280848 0.000282053 0)
(-0.000254686 0.00025414 0)
(-0.000230811 0.000228836 0)
(-0.000209042 0.000205911 0)
(-0.00018921 0.000185156 0)
(-0.000171156 0.000166375 0)
(-0.000154736 0.000149392 0)
(-0.000139815 0.000134043 0)
(-0.000126269 0.000120177 0)
(-0.000113983 0.000107658 0)
(-0.000102852 9.63602e-05 0)
(-9.27771e-05 8.61673e-05 0)
(-8.36696e-05 7.69741e-05 0)
(-7.54473e-05 6.86842e-05 0)
(-6.80347e-05 6.12092e-05 0)
(-6.1363e-05 5.44682e-05 0)
(-5.53694e-05 4.83872e-05 0)
(-4.99966e-05 4.28985e-05 0)
(-4.51927e-05 3.79402e-05 0)
(-4.09105e-05 3.34554e-05 0)
(-3.71078e-05 2.93918e-05 0)
(-3.37463e-05 2.57016e-05 0)
(-3.0792e-05 2.23404e-05 0)
(-2.82147e-05 1.92675e-05 0)
(-2.59878e-05 1.64448e-05 0)
(-2.40882e-05 1.38372e-05 0)
(-2.24958e-05 1.14115e-05 0)
(-2.11939e-05 9.1366e-06 0)
(-2.01688e-05 6.98293e-06 0)
(-1.94093e-05 4.92224e-06 0)
(-1.89075e-05 2.92726e-06 0)
(-1.86579e-05 9.71417e-07 0)
(-0.0434834 0.0705954 0)
(-0.0415099 0.0665863 0)
(-0.0395912 0.0627609 0)
(-0.0377285 0.059114 0)
(-0.0359225 0.0556401 0)
(-0.0341739 0.052334 0)
(-0.0324829 0.0491902 0)
(-0.0308498 0.0462033 0)
(-0.0292745 0.0433677 0)
(-0.0277565 0.0406781 0)
(-0.0262958 0.038129 0)
(-0.0248918 0.035715 0)
(-0.0235435 0.0334309 0)
(-0.0222502 0.0312715 0)
(-0.0210112 0.0292315 0)
(-0.0198255 0.0273059 0)
(-0.0186919 0.0254897 0)
(-0.0176091 0.023778 0)
(-0.0165759 0.0221662 0)
(-0.015591 0.0206495 0)
(-0.0146533 0.0192235 0)
(-0.0137613 0.0178839 0)
(-0.0129136 0.0166262 0)
(-0.0121088 0.0154466 0)
(-0.0113455 0.0143408 0)
(-0.0106221 0.0133052 0)
(-0.00993727 0.012336 0)
(-0.00928945 0.0114297 0)
(-0.00867724 0.0105828 0)
(-0.00809921 0.00979196 0)
(-0.00755395 0.00905414 0)
(-0.00704007 0.00836625 0)
(-0.0065562 0.00772541 0)
(-0.006101 0.00712884 0)
(-0.00567315 0.00657392 0)
(-0.00527135 0.00605811 0)
(-0.00489435 0.00557901 0)
(-0.00454093 0.00513436 0)
(-0.00420989 0.00472197 0)
(-0.0039001 0.00433979 0)
(-0.00361042 0.00398587 0)
(-0.00333979 0.00365837 0)
(-0.00308717 0.00335553 0)
(-0.00285156 0.0030757 0)
(-0.002632 0.00281733 0)
(-0.00242757 0.00257894 0)
(-0.00223737 0.00235915 0)
(-0.00206058 0.00215666 0)
(-0.00189637 0.00197025 0)
(-0.00174398 0.00179875 0)
(-0.00160268 0.00164109 0)
(-0.00147176 0.00149626 0)
(-0.00135056 0.00136331 0)
(-0.00123846 0.00124136 0)
(-0.00113484 0.00112957 0)
(-0.00103915 0.00102717 0)
(-0.000950847 0.000933441 0)
(-0.000869431 0.000847709 0)
(-0.000794423 0.000769346 0)
(-0.000725373 0.000697771 0)
(-0.000661859 0.000632441 0)
(-0.000603483 0.000572853 0)
(-0.000549872 0.00051854 0)
(-0.000500676 0.000469071 0)
(-0.000455566 0.000424044 0)