/*--------------------------------*- C++ -*----------------------------------*\
| =========                 |                                                 |
| \\      /  F ield         | OpenFOAM: The Open Source CFD Toolbox           |
|  \\    /   O peration     | Version:  2406                                  |
|   \\  /    A nd           | Website:  www.openfoam.com                      |
|    \\/     M anipulation  |                                                 |
\*---------------------------------------------------------------------------*/
FoamFile
{
    version     2.0;
    format      ascii;
    arch        "LSB;label=32;scalar=64";
    class       volScalarField;
    location    "40";
    object      T;
}
// * * * * * * * * * * * * * * * * * * * * * * * * * * * * * * * * * * * * * //

dimensions      [0 0 0 1 0 0 0];

internalField   nonuniform List<scalar> 
20000
(
300.628
300.592
300.558
300.526
300.495
300.466
300.438
300.411
300.386
300.362
300.339
300.318
300.297
300.278
300.26
300.243
300.227
300.212
300.197
300.184
300.171
300.159
300.148
300.137
300.128
300.118
300.11
300.102
300.094
300.087
300.081
300.074
300.069
300.063
300.058
300.054
300.05
300.046
300.042
300.039
300.035
300.033
300.03
300.027
300.025
300.023
300.021
300.019
300.018
300.016
300.015
300.013
300.012
300.011
300.01
300.009
300.008
300.008
300.007
300.006
300.006
300.005
300.005
300.004
300.004
300.003
300.003
300.003
300.003
300.002
300.002
300.002
300.002
300.001
300.001
300.001
300.001
300.001
300.001
300.001
300.001
300.001
300.001
300
300
300
300
300
300
300
300
300
300
300
300
300
300
300
300
300
301.884
301.777
301.675
301.578
301.485
301.397
301.313
301.233
301.157
301.086
301.018
300.953
300.892
300.835
300.78
300.729
300.68
300.635
300.592
300.551
300.513
300.477
300.444
300.412
300.383
300.355
300.329
300.305
300.282
300.261
300.242
300.223
300.206
300.19
300.175
300.162
300.149
300.137
300.126
300.116
300.106
300.098
300.09
300.082
300.075
300.069
300.063
300.058
300.053
300.048
300.044
300.04
300.036
300.033
300.03
300.027
300.025
300.023
300.021
300.019
300.017
300.015
300.014
300.013
300.011
300.01
300.009
300.008
300.008
300.007
300.006
300.005
300.005
300.004
300.004
300.004
300.003
300.003
300.003
300.002
300.002
300.002
300.002
300.001
300.001
300.001
300.001
300.001
300.001
300.001
300.001
300.001
300
300
300
300
300
300
300
300
303.14
302.961
302.791
302.629
302.474
302.327
302.188
302.055
301.929
301.809
301.696
301.588
301.487
301.391
301.3
301.214
301.134
301.057
300.986
300.918
300.855
300.795
300.739
300.687
300.638
300.592
300.549
300.508
300.471
300.435
300.403
300.372
300.344
300.317
300.292
300.269
300.248
300.228
300.21
300.193
300.177
300.163
300.149
300.137
300.125
300.115
300.105
300.096
300.088
300.08
300.073
300.067
300.061
300.055
300.05
300.046
300.042
300.038
300.034
300.031
300.028
300.025
300.023
300.021
300.019
300.017
300.015
300.014
300.013
300.011
300.01
300.009
300.008
300.007
300.007
300.006
300.005
300.005
300.004
300.004
300.003
300.003
300.003
300.002
300.002
300.002
300.002
300.001
300.001
300.001
300.001
300.001
300.001
300.001
300.001
300
300
300
300
300
304.394
304.145
303.907
303.68
303.463
303.258
303.062
302.876
302.699
302.532
302.373
302.223
302.081
301.947
301.82
301.7
301.587
301.48
301.38
301.285
301.197
301.113
301.035
300.961
300.893
300.828
300.768
300.711
300.659
300.61
300.564
300.521
300.481
300.444
300.409
300.377
300.347
300.32
300.294
300.27
300.248
300.228
300.209
300.191
300.175
300.161
300.147
300.134
300.123
300.112
300.102
300.093
300.085
300.077
300.07
300.064
300.058
300.053
300.048
300.043
300.039
300.036
300.032
300.029
300.026
300.024
300.022
300.019
300.018
300.016
300.014
300.013
300.011
300.01
300.009
300.008
300.007
300.007
300.006
300.005
300.005
300.004
300.004
300.003
300.003
300.003
300.002
300.002
300.002
300.002
300.001
300.001
300.001
300.001
300.001
300.001
300
300
300
300
305.648
305.327
305.021
304.729
304.451
304.187
303.935
303.696
303.47
303.254
303.051
302.857
302.675
302.502
302.339
302.185
302.039
301.902
301.773
301.652
301.538
301.431
301.33
301.236
301.147
301.064
300.987
300.914
300.847
300.783
300.724
300.669
300.618
300.57
300.526
300.485
300.446
300.411
300.378
300.347
300.319
300.293
300.268
300.246
300.225
300.206
300.189
300.173
300.158
300.144
300.131
300.12
300.109
300.099
300.09
300.082
300.075
300.068
300.062
300.056
300.051
300.046
300.041
300.038
300.034
300.031
300.028
300.025
300.023
300.02
300.018
300.016
300.015
300.013
300.012
300.011
300.01
300.009
300.008
300.007
300.006
300.005
300.005
300.004
300.004
300.003
300.003
300.003
300.002
300.002
300.002
300.002
300.001
300.001
300.001
300.001
300.001
300
300
300
306.9
306.508
306.134
305.778
305.438
305.115
304.808
304.516
304.239
303.976
303.727
303.491
303.268
303.057
302.857
302.669
302.491
302.324
302.167
302.018
301.879
301.748
301.625
301.51
301.402
301.301
301.206
301.117
301.034
300.957
300.885
300.818
300.755
300.697
300.643
300.592
300.545
300.502
300.462
300.424
300.39
300.358
300.328
300.301
300.275
300.252
300.231
300.211
300.193
300.176
300.16
300.146
300.133
300.121
300.11
300.1
300.091
300.083
300.075
300.068
300.062
300.056
300.051
300.046
300.041
300.037
300.034
300.031
300.028
300.025
300.022
300.02
300.018
300.016
300.015
300.013
300.012
300.01
300.009
300.008
300.008
300.007
300.006
300.005
300.005
300.004
300.004
300.003
300.003
300.003
300.002
300.002
300.002
300.001
300.001
300.001
300.001
300
300
300
308.151
307.688
307.246
306.825
306.424
306.042
305.679
305.335
305.007
304.697
304.402
304.124
303.86
303.611
303.375
303.153
302.943
302.745
302.559
302.384
302.22
302.065
301.92
301.783
301.656
301.536
301.424
301.32
301.222
301.131
301.045
300.966
300.892
300.823
300.759
300.699
300.644
300.593
300.545
300.501
300.46
300.422
300.387
300.355
300.325
300.298
300.272
300.249
300.227
300.208
300.189
300.173
300.157
300.143
300.13
300.119
300.108
300.098
300.089
300.081
300.073
300.066
300.06
300.054
300.049
300.044
300.04
300.036
300.032
300.029
300.026
300.024
300.021
300.019
300.017
300.015
300.014
300.012
300.011
300.01
300.009
300.008
300.007
300.006
300.006
300.005
300.004
300.004
300.003
300.003
300.003
300.002
300.002
300.002
300.001
300.001
300.001
300.001
300
300
309.399
308.866
308.356
307.871
307.408
306.968
306.549
306.152
305.774
305.416
305.077
304.755
304.451
304.164
303.892
303.636
303.394
303.166
302.951
302.749
302.559
302.381
302.214
302.057
301.909
301.772
301.642
301.522
301.409
301.304
301.206
301.114
301.029
300.949
300.875
300.807
300.743
300.684
300.629
300.578
300.531
300.487
300.447
300.41
300.375
300.343
300.314
300.287
300.262
300.239
300.219
300.199
300.182
300.165
300.15
300.137
300.124
300.113
300.102
300.093
300.084
300.076
300.069
300.062
300.056
300.051
300.046
300.042
300.037
300.034
300.03
300.027
300.025
300.022
300.02
300.018
300.016
300.014
300.013
300.011
300.01
300.009
300.008
300.007
300.006
300.006
300.005
300.004
300.004
300.003
300.003
300.003
300.002
300.002
300.002
300.001
300.001
300.001
300
300
310.646
310.041
309.464
308.914
308.39
307.892
307.418
306.967
306.54
306.134
305.75
305.386
305.041
304.716
304.408
304.118
303.844
303.586
303.343
303.114
302.899
302.697
302.507
302.329
302.163
302.006
301.86
301.724
301.596
301.477
301.365
301.262
301.165
301.075
300.991
300.914
300.841
300.774
300.712
300.654
300.601
300.552
300.506
300.464
300.425
300.389
300.356
300.325
300.297
300.271
300.247
300.226
300.206
300.187
300.17
300.155
300.141
300.128
300.116
300.105
300.095
300.086
300.078
300.071
300.064
300.058
300.052
300.047
300.042
300.038
300.034
300.031
300.028
300.025
300.022
300.02
300.018
300.016
300.014
300.013
300.012
300.01
300.009
300.008
300.007
300.006
300.006
300.005
300.004
300.004
300.003
300.003
300.002
300.002
300.002
300.001
300.001
300.001
300
300
311.889
311.214
310.57
309.956
309.371
308.814
308.284
307.781
307.304
306.851
306.421
306.015
305.63
305.267
304.923
304.599
304.293
304.005
303.733
303.478
303.237
303.012
302.8
302.601
302.415
302.241
302.078
301.925
301.782
301.649
301.525
301.409
301.301
301.201
301.107
301.02
300.94
300.865
300.795
300.731
300.671
300.616
300.565
300.518
300.474
300.434
300.397
300.363
300.332
300.303
300.276
300.252
300.23
300.209
300.19
300.173
300.157
300.143
300.13
300.118
300.107
300.096
300.087
300.079
300.071
300.065
300.058
300.053
300.047
300.043
300.038
300.035
300.031
300.028
300.025
300.023
300.02
300.018
300.016
300.014
300.013
300.012
300.01
300.009
300.008
300.007
300.006
300.006
300.005
300.004
300.004
300.003
300.003
300.002
300.002
300.002
300.001
300.001
300
300
313.13
312.384
311.673
310.994
310.348
309.733
309.149
308.593
308.066
307.566
307.092
306.643
306.218
305.816
305.437
305.079
304.741
304.422
304.123
303.841
303.575
303.326
303.092
302.873
302.667
302.475
302.294
302.126
301.968
301.821
301.684
301.556
301.437
301.326
301.223
301.127
301.038
300.955
300.878
300.807
300.741
300.68
300.624
300.572
300.524
300.48
300.439
300.401
300.366
300.335
300.305
300.278
300.254
300.231
300.21
300.191
300.174
300.158
300.143
300.13
300.118
300.107
300.096
300.087
300.079
300.071
300.064
300.058
300.052
300.047
300.042
300.038
300.034
300.031
300.028
300.025
300.022
300.02
300.018
300.016
300.014
300.013
300.011
300.01
300.009
300.008
300.007
300.006
300.005
300.005
300.004
300.004
300.003
300.003
300.002
300.002
300.001
300.001
300.001
300
314.367
313.551
312.773
312.031
311.324
310.651
310.011
309.403
308.826
308.279
307.76
307.269
306.804
306.364
305.949
305.557
305.188
304.839
304.511
304.203
303.912
303.64
303.384
303.144
302.919
302.708
302.511
302.326
302.154
301.993
301.843
301.703
301.572
301.451
301.338
301.233
301.135
301.045
300.961
300.883
300.811
300.745
300.683
300.626
300.573
300.525
300.48
300.439
300.401
300.366
300.334
300.305
300.277
300.253
300.23
300.209
300.19
300.173
300.157
300.142
300.129
300.117
300.106
300.095
300.086
300.078
300.07
300.064
300.057
300.052
300.046
300.042
300.038
300.034
300.03
300.027
300.024
300.022
300.02
300.017
300.016
300.014
300.012
300.011
300.01
300.009
300.008
300.007
300.006
300.005
300.005
300.004
300.003
300.003
300.002
300.002
300.001
300.001
300.001
300
315.601
314.715
313.87
313.064
312.296
311.566
310.871
310.211
309.584
308.99
308.426
307.893
307.388
306.911
306.46
306.034
305.633
305.255
304.899
304.563
304.248
303.952
303.674
303.414
303.169
302.94
302.726
302.526
302.339
302.164
302.001
301.849
301.707
301.575
301.453
301.339
301.233
301.135
301.044
300.959
300.881
300.808
300.742
300.68
300.623
300.57
300.521
300.477
300.435
300.398
300.363
300.331
300.301
300.274
300.25
300.227
300.206
300.187
300.17
300.154
300.14
300.127
300.115
300.104
300.094
300.085
300.076
300.069
300.062
300.056
300.05
300.045
300.041
300.037
300.033
300.03
300.026
300.024
300.021
300.019
300.017
300.015
300.013
300.012
300.011
300.009
300.008
300.007
300.006
300.006
300.005
300.004
300.004
300.003
300.003
300.002
300.002
300.001
300.001
300
316.831
315.875
314.963
314.094
313.266
312.477
311.728
311.016
310.34
309.698
309.091
308.515
307.971
307.456
306.969
306.51
306.077
305.669
305.285
304.923
304.583
304.264
303.964
303.683
303.419
303.172
302.941
302.725
302.523
302.335
302.159
301.995
301.842
301.7
301.567
301.444
301.33
301.224
301.126
301.035
300.95
300.872
300.8
300.733
300.672
300.615
300.562
300.514
300.47
300.429
300.391
300.357
300.325
300.296
300.269
300.245
300.223
300.202
300.183
300.166
300.151
300.137
300.124
300.112
300.101
300.091
300.082
300.074
300.067
300.06
300.054
300.049
300.044
300.04
300.036
300.032
300.029
300.026
300.023
300.02
300.018
300.016
300.015
300.013
300.012
300.01
300.009
300.008
300.007
300.006
300.005
300.005
300.004
300.003
300.003
300.002
300.002
300.001
300.001
300
318.057
317.032
316.053
315.12
314.232
313.386
312.582
311.818
311.093
310.405
309.753
309.135
308.551
307.999
307.477
306.984
306.52
306.082
305.67
305.282
304.917
304.574
304.253
303.951
303.668
303.403
303.155
302.924
302.707
302.505
302.316
302.14
301.976
301.823
301.681
301.55
301.427
301.313
301.208
301.11
301.02
300.936
300.858
300.787
300.721
300.66
300.603
300.552
300.504
300.46
300.42
300.383
300.349
300.318
300.289
300.263
300.239
300.217
300.197
300.178
300.162
300.147
300.133
300.12
300.108
300.098
300.088
300.08
300.072
300.065
300.058
300.053
300.047
300.042
300.038
300.034
300.031
300.027
300.025
300.022
300.02
300.018
300.016
300.014
300.012
300.011
300.01
300.009
300.007
300.007
300.006
300.005
300.004
300.004
300.003
300.002
300.002
300.001
300.001
300
319.279
318.184
317.139
316.143
315.194
314.292
313.433
312.617
311.843
311.109
310.412
309.753
309.129
308.54
307.983
307.457
306.961
306.493
306.053
305.639
305.25
304.884
304.54
304.218
303.916
303.633
303.369
303.121
302.89
302.674
302.473
302.285
302.11
301.947
301.795
301.654
301.524
301.402
301.289
301.185
301.088
300.999
300.916
300.84
300.769
300.704
300.644
300.589
300.538
300.491
300.448
300.409
300.372
300.339
300.308
300.281
300.255
300.231
300.21
300.191
300.173
300.156
300.142
300.128
300.116
300.105
300.094
300.085
300.077
300.069
300.062
300.056
300.05
300.045
300.041
300.037
300.033
300.029
300.026
300.023
300.021
300.019
300.017
300.015
300.013
300.012
300.01
300.009
300.008
300.007
300.006
300.005
300.004
300.004
300.003
300.002
300.002
300.001
300.001
300
320.495
319.331
318.221
317.162
316.153
315.194
314.281
313.414
312.59
311.81
311.07
310.369
309.706
309.079
308.486
307.927
307.4
306.903
306.435
305.995
305.581
305.192
304.827
304.484
304.163
303.863
303.581
303.318
303.072
302.843
302.629
302.429
302.243
302.07
301.909
301.759
301.62
301.491
301.371
301.26
301.157
301.062
300.974
300.893
300.818
300.749
300.685
300.626
300.572
300.522
300.476
300.434
300.396
300.36
300.328
300.298
300.271
300.246
300.223
300.203
300.184
300.166
300.151
300.136
300.123
300.111
300.1
300.091
300.082
300.074
300.066
300.06
300.054
300.048
300.043
300.039
300.035
300.031
300.028
300.025
300.022
300.02
300.018
300.016
300.014
300.012
300.011
300.01
300.009
300.007
300.006
300.006
300.005
300.004
300.003
300.003
300.002
300.001
300.001
300
321.707
320.474
319.298
318.177
317.108
316.092
315.125
314.207
313.335
312.508
311.724
310.982
310.279
309.615
308.988
308.396
307.838
307.311
306.816
306.349
305.911
305.499
305.112
304.75
304.41
304.091
303.793
303.514
303.254
303.011
302.784
302.572
302.375
302.192
302.021
301.863
301.715
301.579
301.452
301.334
301.226
301.125
301.032
300.946
300.866
300.793
300.725
300.663
300.606
300.553
300.505
300.46
300.419
300.382
300.347
300.316
300.287
300.261
300.237
300.215
300.194
300.176
300.159
300.144
300.13
300.118
300.106
300.096
300.087
300.078
300.07
300.063
300.057
300.051
300.046
300.041
300.037
300.033
300.03
300.026
300.024
300.021
300.019
300.017
300.015
300.013
300.012
300.01
300.009
300.008
300.007
300.006
300.005
300.004
300.004
300.003
300.002
300.002
300.001
300
322.913
321.612
320.37
319.187
318.059
316.986
315.966
314.996
314.076
313.203
312.375
311.592
310.851
310.15
309.488
308.863
308.273
307.718
307.194
306.702
306.239
305.805
305.396
305.013
304.655
304.318
304.004
303.71
303.435
303.178
302.939
302.715
302.507
302.314
302.134
301.966
301.811
301.666
301.533
301.409
301.294
301.187
301.089
300.998
300.914
300.837
300.766
300.7
300.639
300.584
300.533
300.486
300.442
300.403
300.367
300.333
300.303
300.275
300.25
300.226
300.205
300.186
300.168
300.152
300.138
300.124
300.112
300.101
300.091
300.082
300.074
300.067
300.06
300.054
300.048
300.043
300.039
300.035
300.031
300.028
300.025
300.022
300.02
300.018
300.016
300.014
300.012
300.011
300.01
300.008
300.007
300.006
300.005
300.004
300.004
300.003
300.002
300.002
300.001
300
324.114
322.744
321.438
320.192
319.005
317.876
316.802
315.782
314.813
313.895
313.024
312.199
311.419
310.682
309.985
309.327
308.707
308.122
307.571
307.053
306.566
306.109
305.679
305.276
304.898
304.545
304.214
303.904
303.615
303.345
303.093
302.858
302.639
302.435
302.245
302.069
301.906
301.754
301.613
301.482
301.361
301.25
301.146
301.051
300.962
300.881
300.806
300.737
300.673
300.614
300.561
300.511
300.466
300.424
300.386
300.351
300.319
300.29
300.263
300.238
300.216
300.196
300.177
300.16
300.145
300.131
300.118
300.107
300.096
300.087
300.078
300.07
300.063
300.057
300.051
300.046
300.041
300.037
300.033
300.029
300.026
300.023
300.021
300.019
300.016
300.015
300.013
300.011
300.01
300.009
300.008
300.007
300.006
300.005
300.004
300.003
300.002
300.002
300.001
300
325.308
323.871
322.5
321.192
319.947
318.762
317.635
316.564
315.547
314.583
313.669
312.804
311.985
311.211
310.479
309.789
309.138
308.524
307.947
307.403
306.892
306.411
305.96
305.538
305.141
304.77
304.422
304.098
303.794
303.51
303.246
302.999
302.77
302.556
302.357
302.172
302
301.841
301.693
301.556
301.429
301.312
301.203
301.103
301.01
300.925
300.846
300.773
300.706
300.645
300.588
300.536
300.489
300.445
300.405
300.368
300.335
300.304
300.276
300.25
300.227
300.205
300.186
300.168
300.152
300.137
300.124
300.112
300.101
300.091
300.082
300.074
300.066
300.059
300.053
300.048
300.043
300.038
300.034
300.031
300.028
300.025
300.022
300.019
300.017
300.015
300.014
300.012
300.011
300.009
300.008
300.007
300.006
300.005
300.004
300.003
300.002
300.002
300.001
300
326.497
324.992
323.556
322.187
320.884
319.643
318.463
317.342
316.277
315.268
314.311
313.405
312.548
311.737
310.972
310.249
309.567
308.925
308.32
307.75
307.215
306.712
306.24
305.798
305.383
304.994
304.63
304.29
303.972
303.675
303.398
303.14
302.9
302.676
302.467
302.274
302.094
301.927
301.772
301.629
301.496
301.373
301.259
301.154
301.057
300.968
300.885
300.809
300.739
300.675
300.616
300.562
300.512
300.466
300.424
300.386
300.35
300.318
300.289
300.262
300.237
300.215
300.195
300.176
300.159
300.144
300.13
300.117
300.106
300.095
300.086
300.077
300.069
300.062
300.056
300.05
300.045
300.04
300.036
300.032
300.029
300.026
300.023
300.02
300.018
300.016
300.014
300.013
300.011
300.01
300.008
300.007
300.006
300.005
300.004
300.003
300.003
300.002
300.001
300
327.679
326.107
324.607
323.177
321.815
320.519
319.286
318.115
317.003
315.949
314.949
314.003
313.107
312.261
311.461
310.706
309.994
309.323
308.691
308.096
307.537
307.012
306.519
306.056
305.623
305.217
304.837
304.481
304.149
303.839
303.55
303.28
303.029
302.795
302.577
302.375
302.187
302.013
301.851
301.702
301.563
301.434
301.316
301.206
301.105
301.011
300.925
300.846
300.772
300.705
300.643
300.587
300.535
300.487
300.443
300.403
300.366
300.332
300.302
300.274
300.248
300.225
300.203
300.184
300.166
300.15
300.136
300.122
300.11
300.099
300.089
300.081
300.072
300.065
300.058
300.052
300.047
300.042
300.038
300.034
300.03
300.027
300.024
300.021
300.019
300.017
300.015
300.013
300.011
300.01
300.009
300.008
300.006
300.005
300.004
300.004
300.003
300.002
300.001
300
328.854
327.215
325.652
324.161
322.741
321.39
320.105
318.884
317.725
316.626
315.584
314.597
313.664
312.781
311.947
311.16
310.418
309.719
309.06
308.44
307.857
307.309
306.795
306.313
305.861
305.438
305.042
304.672
304.325
304.002
303.701
303.419
303.158
302.914
302.687
302.476
302.28
302.099
301.93
301.774
301.629
301.495
301.371
301.257
301.151
301.054
300.964
300.881
300.805
300.735
300.671
300.612
300.557
300.507
300.462
300.42
300.382
300.346
300.314
300.285
300.258
300.234
300.212
300.192
300.173
300.157
300.141
300.128
300.115
300.104
300.093
300.084
300.075
300.068
300.061
300.055
300.049
300.044
300.039
300.035
300.031
300.028
300.025
300.022
300.02
300.017
300.015
300.014
300.012
300.01
300.009
300.008
300.007
300.006
300.005
300.004
300.003
300.002
300.001
300
330.022
328.317
326.69
325.139
323.662
322.256
320.919
319.649
318.443
317.299
316.215
315.188
314.217
313.299
312.431
311.612
310.84
310.112
309.426
308.781
308.175
307.605
307.071
306.569
306.099
305.658
305.246
304.861
304.5
304.164
303.85
303.558
303.285
303.032
302.796
302.576
302.373
302.183
302.008
301.846
301.695
301.556
301.427
301.308
301.198
301.097
301.003
300.917
300.838
300.765
300.698
300.636
300.58
300.528
300.48
300.437
300.397
300.36
300.327
300.297
300.269
300.244
300.221
300.199
300.18
300.163
300.147
300.133
300.12
300.108
300.097
300.087
300.079
300.071
300.063
300.057
300.051
300.046
300.041
300.037
300.033
300.029
300.026
300.023
300.021
300.018
300.016
300.014
300.012
300.011
300.009
300.008
300.007
300.006
300.005
300.004
300.003
300.002
300.001
300
331.182
329.411
327.722
326.111
324.576
323.116
321.727
320.408
319.156
317.968
316.842
315.775
314.767
313.813
312.912
312.061
311.259
310.503
309.791
309.121
308.491
307.899
307.344
306.823
306.334
305.877
305.449
305.049
304.674
304.325
303.999
303.695
303.412
303.149
302.904
302.676
302.464
302.268
302.086
301.917
301.761
301.616
301.482
301.359
301.244
301.139
301.042
300.953
300.87
300.795
300.725
300.661
300.602
300.548
300.499
300.454
300.412
300.374
300.34
300.308
300.279
300.253
300.229
300.207
300.187
300.169
300.153
300.138
300.124
300.112
300.101
300.091
300.082
300.073
300.066
300.059
300.053
300.047
300.042
300.038
300.034
300.03
300.027
300.024
300.021
300.019
300.017
300.015
300.013
300.011
300.01
300.008
300.007
300.006
300.005
300.004
300.003
300.002
300.001
300
332.335
330.499
328.747
327.076
325.485
323.971
322.531
321.163
319.864
318.632
317.464
316.359
315.312
314.323
313.389
312.507
311.675
310.891
310.153
309.458
308.805
308.191
307.615
307.075
306.569
306.094
305.65
305.235
304.847
304.485
304.147
303.832
303.538
303.265
303.011
302.775
302.555
302.352
302.163
301.988
301.826
301.676
301.537
301.409
301.29
301.181
301.081
300.988
300.902
300.824
300.752
300.685
300.624
300.569
300.517
300.47
300.428
300.388
300.352
300.32
300.29
300.262
300.238
300.215
300.194
300.175
300.158
300.143
300.129
300.116
300.105
300.094
300.085
300.076
300.068
300.061
300.055
300.049
300.044
300.039
300.035
300.031
300.028
300.025
300.022
300.02
300.017
300.015
300.013
300.012
300.01
300.009
300.008
300.006
300.005
300.004
300.003
300.002
300.001
300
333.48
331.579
329.764
328.035
326.387
324.819
323.328
321.912
320.567
319.292
318.083
316.938
315.855
314.83
313.863
312.95
312.088
311.277
310.512
309.793
309.117
308.481
307.885
307.326
306.801
306.31
305.85
305.421
305.019
304.644
304.294
303.968
303.664
303.381
303.118
302.873
302.646
302.435
302.239
302.058
301.89
301.735
301.591
301.459
301.336
301.223
301.119
301.023
300.934
300.853
300.778
300.71
300.647
300.589
300.536
300.487
300.443
300.402
300.365
300.331
300.3
300.272
300.246
300.222
300.201
300.182
300.164
300.148
300.133
300.12
300.108
300.097
300.088
300.079
300.071
300.063
300.057
300.051
300.046
300.041
300.036
300.032
300.029
300.026
300.023
300.02
300.018
300.016
300.014
300.012
300.011
300.009
300.008
300.007
300.005
300.004
300.003
300.002
300.001
300
334.616
332.651
330.775
328.987
327.283
325.662
324.12
322.656
321.265
319.946
318.697
317.513
316.393
315.334
314.334
313.389
312.499
311.66
310.869
310.125
309.426
308.769
308.153
307.574
307.032
306.524
306.049
305.605
305.189
304.801
304.44
304.102
303.788
303.496
303.224
302.971
302.736
302.518
302.315
302.128
301.954
301.794
301.645
301.508
301.381
301.265
301.157
301.058
300.966
300.882
300.805
300.734
300.668
300.609
300.554
300.504
300.458
300.416
300.377
300.342
300.31
300.281
300.254
300.23
300.208
300.188
300.17
300.153
300.138
300.124
300.112
300.101
300.091
300.081
300.073
300.066
300.059
300.053
300.047
300.042
300.038
300.034
300.03
300.027
300.024
300.021
300.019
300.016
300.014
300.013
300.011
300.009
300.008
300.007
300.006
300.004
300.003
300.002
300.001
300
335.744
333.715
331.778
329.931
328.172
326.498
324.906
323.394
321.958
320.596
319.306
318.084
316.927
315.834
314.801
313.826
312.906
312.039
311.223
310.455
309.733
309.055
308.418
307.821
307.261
306.737
306.246
305.787
305.358
304.958
304.584
304.236
303.912
303.61
303.329
303.067
302.825
302.6
302.391
302.197
302.018
301.852
301.699
301.557
301.426
301.306
301.195
301.092
300.998
300.911
300.831
300.758
300.69
300.629
300.572
300.52
300.473
300.429
300.39
300.353
300.32
300.29
300.263
300.238
300.215
300.194
300.175
300.158
300.142
300.128
300.116
300.104
300.094
300.084
300.075
300.068
300.061
300.054
300.049
300.044
300.039
300.035
300.031
300.028
300.024
300.022
300.019
300.017
300.015
300.013
300.011
300.01
300.008
300.007
300.006
300.005
300.004
300.002
300.001
300
336.864
334.77
332.773
330.868
329.054
327.328
325.686
324.127
322.646
321.241
319.91
318.65
317.457
316.329
315.264
314.259
313.31
312.416
311.575
310.783
310.038
309.339
308.682
308.066
307.489
306.948
306.442
305.968
305.526
305.113
304.728
304.369
304.034
303.723
303.433
303.163
302.913
302.681
302.466
302.266
302.081
301.91
301.752
301.606
301.471
301.347
301.232
301.126
301.029
300.939
300.857
300.781
300.712
300.648
300.59
300.536
300.487
300.443
300.402
300.364
300.33
300.299
300.271
300.245
300.221
300.2
300.181
300.163
300.147
300.132
300.119
300.107
300.096
300.087
300.078
300.07
300.063
300.056
300.05
300.045
300.04
300.036
300.032
300.028
300.025
300.022
300.02
300.017
300.015
300.013
300.012
300.01
300.009
300.007
300.006
300.005
300.004
300.003
300.002
300.001
337.974
335.817
333.76
331.798
329.929
328.151
326.46
324.853
323.328
321.881
320.51
319.211
317.983
316.821
315.724
314.688
313.711
312.79
311.923
311.108
310.34
309.62
308.943
308.309
307.714
307.157
306.636
306.148
305.693
305.267
304.87
304.5
304.156
303.835
303.536
303.259
303.001
302.762
302.54
302.334
302.144
301.968
301.805
301.654
301.515
301.387
301.269
301.16
301.06
300.968
300.883
300.805
300.733
300.668
300.608
300.553
300.502
300.456
300.414
300.375
300.34
300.308
300.279
300.252
300.228
300.206
300.186
300.168
300.151
300.136
300.123
300.11
300.099
300.089
300.08
300.072
300.064
300.058
300.052
300.046
300.041
300.037
300.033
300.029
300.026
300.023
300.02
300.018
300.016
300.014
300.012
300.01
300.009
300.007
300.006
300.005
300.004
300.003
300.002
300.001
339.075
336.856
334.738
332.72
330.797
328.967
327.227
325.574
324.004
322.515
321.104
319.768
318.504
317.309
316.18
315.114
314.109
313.161
312.269
311.43
310.64
309.899
309.203
308.55
307.938
307.364
306.828
306.326
305.858
305.42
305.011
304.631
304.276
303.946
303.639
303.353
303.088
302.842
302.614
302.402
302.206
302.025
301.857
301.702
301.559
301.427
301.306
301.194
301.091
300.996
300.908
300.828
300.755
300.687
300.625
300.569
300.517
300.469
300.426
300.386
300.35
300.317
300.287
300.26
300.235
300.212
300.191
300.173
300.156
300.14
300.126
300.114
300.102
300.092
300.082
300.074
300.066
300.059
300.053
300.048
300.042
300.038
300.034
300.03
300.027
300.024
300.021
300.018
300.016
300.014
300.012
300.011
300.009
300.008
300.006
300.005
300.004
300.003
300.002
300.001
340.166
337.885
335.708
333.633
331.657
329.776
327.987
326.288
324.674
323.144
321.694
320.32
319.021
317.792
316.631
315.536
314.503
313.529
312.612
311.749
310.937
310.175
309.46
308.788
308.159
307.57
307.019
306.503
306.021
305.571
305.151
304.76
304.395
304.056
303.74
303.447
303.174
302.921
302.687
302.469
302.268
302.081
301.909
301.75
301.603
301.467
301.342
301.227
301.121
301.023
300.934
300.851
300.776
300.706
300.643
300.584
300.531
300.482
300.438
300.397
300.36
300.326
300.295
300.267
300.241
300.218
300.197
300.178
300.16
300.144
300.13
300.117
300.105
300.094
300.085
300.076
300.068
300.061
300.055
300.049
300.044
300.039
300.035
300.031
300.027
300.024
300.022
300.019
300.017
300.015
300.013
300.011
300.009
300.008
300.006
300.005
300.004
300.003
300.002
300.001
341.247
338.905
336.669
334.539
332.509
330.577
328.74
326.995
325.339
323.767
322.278
320.867
319.533
318.271
317.079
315.954
314.893
313.893
312.951
312.065
311.232
310.449
309.714
309.025
308.379
307.774
307.208
306.678
306.183
305.721
305.29
304.888
304.514
304.165
303.841
303.54
303.26
303
302.759
302.536
302.329
302.137
301.961
301.797
301.646
301.507
301.378
301.26
301.151
301.051
300.959
300.874
300.797
300.725
300.66
300.6
300.545
300.495
300.45
300.408
300.37
300.335
300.303
300.274
300.248
300.224
300.202
300.182
300.164
300.148
300.133
300.12
300.108
300.097
300.087
300.078
300.07
300.063
300.056
300.05
300.045
300.04
300.036
300.032
300.028
300.025
300.022
300.019
300.017
300.015
300.013
300.011
300.01
300.008
300.007
300.005
300.004
300.003
300.002
300.001
342.318
339.915
337.622
335.435
333.353
331.371
329.487
327.696
325.996
324.384
322.856
321.409
320.04
318.745
317.523
316.368
315.28
314.254
313.287
312.378
311.523
310.72
309.966
309.259
308.597
307.976
307.395
306.851
306.344
305.87
305.427
305.015
304.631
304.273
303.941
303.631
303.344
303.078
302.831
302.601
302.389
302.193
302.011
301.844
301.689
301.546
301.414
301.293
301.181
301.078
300.984
300.897
300.817
300.744
300.677
300.616
300.56
300.508
300.461
300.418
300.379
300.343
300.311
300.281
300.254
300.23
300.207
300.187
300.169
300.152
300.137
300.123
300.111
300.099
300.089
300.08
300.072
300.064
300.058
300.052
300.046
300.041
300.037
300.033
300.029
300.026
300.023
300.02
300.018
300.015
300.013
300.012
300.01
300.008
300.007
300.005
300.004
300.003
300.002
300.001
343.379
340.915
338.565
336.324
334.189
332.158
330.226
328.39
326.648
324.995
323.429
321.946
320.542
319.215
317.962
316.779
315.663
314.611
313.62
312.688
311.812
310.989
310.216
309.491
308.812
308.176
307.58
307.023
306.503
306.017
305.563
305.141
304.747
304.38
304.039
303.723
303.428
303.155
302.901
302.667
302.449
302.248
302.062
301.89
301.731
301.585
301.45
301.325
301.211
301.105
301.008
300.919
300.838
300.763
300.694
300.631
300.574
300.521
300.473
300.429
300.389
300.352
300.319
300.288
300.261
300.235
300.213
300.192
300.173
300.156
300.14
300.126
300.113
300.102
300.092
300.082
300.074
300.066
300.059
300.053
300.047
300.042
300.038
300.033
300.03
300.026
300.023
300.021
300.018
300.016
300.014
300.012
300.01
300.008
300.007
300.006
300.004
300.003
300.002
300.001
344.428
341.905
339.498
337.203
335.016
332.936
330.957
329.078
327.293
325.6
323.996
322.477
321.039
319.68
318.397
317.185