/*--------------------------------*- C++ -*----------------------------------*\
| =========                 |                                                 |
| \\      /  F ield         | OpenFOAM: The Open Source CFD Toolbox           |
|  \\    /   O peration     | Version:  2406                                  |
|   \\  /    A nd           | Website:  www.openfoam.com                      |
|    \\/     M anipulation  |                                                 |
\*---------------------------------------------------------------------------*/
FoamFile
{
    version     2.0;
    format      ascii;
    arch        "LSB;label=32;scalar=64";
    class       volScalarField;
    location    "45";
    object      gradTx;
}
// * * * * * * * * * * * * * * * * * * * * * * * * * * * * * * * * * * * * * //

dimensions      [0 -1 0 1 0 0 0];

internalField   nonuniform List<scalar> 
20000
(
-7.61268
-7.3261
-7.04526
-6.77036
-6.50124
-6.23809
-5.98155
-5.73211
-5.48875
-5.25168
-5.02199
-4.79933
-4.58321
-4.37369
-4.17107
-3.9754
-3.78652
-3.60426
-3.42851
-3.25921
-3.0963
-2.9397
-2.78931
-2.64499
-2.50659
-2.37397
-2.24698
-2.12548
-2.00932
-1.89835
-1.79243
-1.69139
-1.59509
-1.50337
-1.41609
-1.33307
-1.25418
-1.17927
-1.10817
-1.04075
-0.976856
-0.916351
-0.859093
-0.804944
-0.753771
-0.705443
-0.659833
-0.616816
-0.576274
-0.538088
-0.502146
-0.468338
-0.436559
-0.406706
-0.378681
-0.35239
-0.327741
-0.304646
-0.283023
-0.262789
-0.24387
-0.22619
-0.209679
-0.19427
-0.1799
-0.166506
-0.154032
-0.142422
-0.131624
-0.121588
-0.112267
-0.103617
-0.0955961
-0.088164
-0.0812836
-0.0749197
-0.0690391
-0.0636108
-0.0586055
-0.0539959
-0.0497566
-0.0458635
-0.0422947
-0.0390293
-0.0360482
-0.0333339
-0.0308699
-0.0286413
-0.0266345
-0.024837
-0.0232375
-0.0218259
-0.0205933
-0.0195317
-0.0186343
-0.0178953
-0.0173098
-0.016874
-0.0165851
-0.016441
-22.8362
-21.9766
-21.134
-20.3091
-19.5019
-18.7133
-17.9437
-17.1943
-16.4645
-15.7541
-15.065
-14.3967
-13.7482
-13.1199
-12.5123
-11.9253
-11.3587
-10.8119
-10.2846
-9.77678
-9.28812
-8.81839
-8.36725
-7.93432
-7.51915
-7.12133
-6.7404
-6.37592
-6.02747
-5.69459
-5.37684
-5.07375
-4.78488
-4.50975
-4.24791
-3.99889
-3.76224
-3.53751
-3.32424
-3.12199
-2.93033
-2.74883
-2.57707
-2.41463
-2.26113
-2.11615
-1.97934
-1.8503
-1.72868
-1.61413
-1.50631
-1.4049
-1.30957
-1.22002
-1.13595
-1.05708
-0.983141
-0.913863
-0.848998
-0.788304
-0.731549
-0.678513
-0.628984
-0.582762
-0.539654
-0.499478
-0.462059
-0.427231
-0.39484
-0.364734
-0.336774
-0.310826
-0.286765
-0.26447
-0.243831
-0.224741
-0.2071
-0.190817
-0.175802
-0.161975
-0.149257
-0.137579
-0.126874
-0.117078
-0.108136
-0.0999934
-0.0926021
-0.085917
-0.079897
-0.0745049
-0.0697068
-0.0654724
-0.0617748
-0.0585904
-0.0558984
-0.0536815
-0.0519252
-0.0506179
-0.0497511
-0.0493191
-38.0544
-36.622
-35.2173
-33.8426
-32.4976
-31.1839
-29.9015
-28.6522
-27.4361
-26.2529
-25.1045
-23.9904
-22.9097
-21.8629
-20.8505
-19.8724
-18.928
-18.0168
-17.1382
-16.2919
-15.4776
-14.6949
-13.9431
-13.2217
-12.5299
-11.8669
-11.2321
-10.6248
-10.0441
-9.48943
-8.95992
-8.45486
-7.97348
-7.51501
-7.07868
-6.66372
-6.26937
-5.89487
-5.53948
-5.20246
-4.88308
-4.58063
-4.2944
-4.02373
-3.76792
-3.52634
-3.29835
-3.08332
-2.88066
-2.68978
-2.51011
-2.34111
-2.18225
-2.03303
-1.89294
-1.76151
-1.6383
-1.52285
-1.41476
-1.31362
-1.21905
-1.13067
-1.04813
-0.971111
-0.899276
-0.832326
-0.769971
-0.711935
-0.657958
-0.60779
-0.561198
-0.517959
-0.477863
-0.440711
-0.406318
-0.374506
-0.34511
-0.317975
-0.292955
-0.269913
-0.248721
-0.229261
-0.211421
-0.195098
-0.180197
-0.166628
-0.154311
-0.143171
-0.13314
-0.124154
-0.116159
-0.109103
-0.102941
-0.0976346
-0.0931487
-0.0894544
-0.0865277
-0.0843493
-0.0829049
-0.082185
-53.2631
-51.2587
-49.2925
-47.368
-45.4853
-43.6464
-41.8517
-40.1032
-38.401
-36.7452
-35.1377
-33.578
-32.0655
-30.6005
-29.1836
-27.8146
-26.4927
-25.2172
-23.9874
-22.803
-21.6633
-20.5678
-19.5156
-18.5058
-17.5375
-16.6096
-15.7211
-14.871
-14.0583
-13.2819
-12.5408
-11.8339
-11.1601
-10.5184
-9.90771
-9.32691
-8.77495
-8.25079
-7.75336
-7.28164
-6.83462
-6.41129
-6.01068
-5.63183
-5.27379
-4.93566
-4.61655
-4.31558
-4.03193
-3.76476
-3.51329
-3.27675
-3.0544
-2.84554
-2.64946
-2.46551
-2.29305
-2.13147
-1.98018
-1.83862
-1.70625
-1.58255
-1.46703
-1.35922
-1.25868
-1.16497
-1.07769
-0.996463
-0.920914
-0.850696
-0.785483
-0.724964
-0.668843
-0.616844
-0.568705
-0.524179
-0.483035
-0.445056
-0.410036
-0.377785
-0.348124
-0.320886
-0.295917
-0.27307
-0.252213
-0.233222
-0.215983
-0.20039
-0.18635
-0.173773
-0.162582
-0.152706
-0.144082
-0.136655
-0.130376
-0.125205
-0.121109
-0.11806
-0.116038
-0.115031
-68.458
-65.8822
-63.3556
-60.8817
-58.4619
-56.0982
-53.7917
-51.5443
-49.3565
-47.2284
-45.1622
-43.1574
-41.2134
-39.3307
-37.5096
-35.7499
-34.0509
-32.4114
-30.8308
-29.3084
-27.8437
-26.4356
-25.0833
-23.7854
-22.5408
-21.3482
-20.2062
-19.1136
-18.069
-17.0711
-16.1186
-15.21
-14.344
-13.5192
-12.7343
-11.9878
-11.2784
-10.6047
-9.96533
-9.35903
-8.78448
-8.24038
-7.72548
-7.23854
-6.77836
-6.34376
-5.93361
-5.54678
-5.1822
-4.83881
-4.5156
-4.21158
-3.9258
-3.65734
-3.40533
-3.1689
-2.94724
-2.73956
-2.54511
-2.36316
-2.19302
-2.03403
-1.88556
-1.74699
-1.61776
-1.49732
-1.38515
-1.28075
-1.18364
-1.09339
-1.00957
-0.931789
-0.859658
-0.792824
-0.730951
-0.673723
-0.620841
-0.572026
-0.527016
-0.485564
-0.447441
-0.412433
-0.380339
-0.350974
-0.324167
-0.299758
-0.277601
-0.25756
-0.239514
-0.223349
-0.208966
-0.196272
-0.185187
-0.175641
-0.167571
-0.160925
-0.15566
-0.151741
-0.149143
-0.147848
-83.636
-80.4892
-77.4029
-74.3804
-71.4241
-68.5363
-65.7184
-62.9727
-60.2998
-57.6999
-55.1755
-52.7262
-50.3512
-48.0511
-45.8263
-43.6765
-41.6006
-39.5975
-37.6665
-35.8067
-34.0172
-32.297
-30.6448
-29.0592
-27.5386
-26.0815
-24.6863
-23.3515
-22.0753
-20.8561
-19.6924
-18.5823
-17.5243
-16.5167
-15.5577
-14.6457
-13.779
-12.9559
-12.1748
-11.4341
-10.7322
-10.0674
-9.43836
-8.84346
-8.28125
-7.7503
-7.24921
-6.77661
-6.33119
-5.91167
-5.51679
-5.14536
-4.79622
-4.46825
-4.16035
-3.87151
-3.6007
-3.34697
-3.10941
-2.88712
-2.67926
-2.48502
-2.30362
-2.13434
-1.97645
-1.82931
-1.69226
-1.56471
-1.44608
-1.33582
-1.23342
-1.13839
-1.05026
-0.968608
-0.893017
-0.8231
-0.758494
-0.698856
-0.643865
-0.593223
-0.546647
-0.503877
-0.464668
-0.428792
-0.396041
-0.36622
-0.33915
-0.314666
-0.292619
-0.27287
-0.255297
-0.239789
-0.226247
-0.214584
-0.204725
-0.196606
-0.190173
-0.185386
-0.182211
-0.180629
-98.7935
-95.0764
-91.4309
-87.8607
-84.3686
-80.9575
-77.6289
-74.3855
-71.2282
-68.1572
-65.1752
-62.2819
-59.4766
-56.7597
-54.1317
-51.5922
-49.14
-46.7739
-44.4929
-42.296
-40.1823
-38.1503
-36.1987
-34.3257
-32.5296
-30.8084
-29.1604
-27.5836
-26.0761
-24.636
-23.2613
-21.9501
-20.7004
-19.5101
-18.3773
-17.3
-16.2762
-15.304
-14.3813
-13.5064
-12.6772
-11.892
-11.1489
-10.4462
-9.7821
-9.15492
-8.56302
-8.00477
-7.47862
-6.98307
-6.51663
-6.07788
-5.66546
-5.27805
-4.91435
-4.57316
-4.25327
-3.95356
-3.67294
-3.41037
-3.16483
-2.93539
-2.72112
-2.52115
-2.33466
-2.16084
-1.99896
-1.84829
-1.70816
-1.57792
-1.45696
-1.3447
-1.2406
-1.14415
-1.05486
-0.972275
-0.895959
-0.825512
-0.760556
-0.700736
-0.645719
-0.595197
-0.548881
-0.506505
-0.467818
-0.432592
-0.400616
-0.371695
-0.345651
-0.322324
-0.301566
-0.283247
-0.267251
-0.253474
-0.241828
-0.232238
-0.224639
-0.218984
-0.215234
-0.213365
-113.927
-109.64
-105.436
-101.319
-97.2924
-93.3587
-89.5202
-85.78
-82.1389
-78.5976
-75.1588
-71.8223
-68.5873
-65.4543
-62.4237
-59.4952
-56.6673
-53.9388
-51.3084
-48.775
-46.3375
-43.9943
-41.7437
-39.5838
-37.5125
-35.5277
-33.6272
-31.8088
-30.0704
-28.4097
-26.8245
-25.3124
-23.8713
-22.4987
-21.1924
-19.9501
-18.7695
-17.6483
-16.5843
-15.5753
-14.6191
-13.7136
-12.8567
-12.0464
-11.2805
-10.5573
-9.87471
-9.23095
-8.62421
-8.05274
-7.51485
-7.0089
-6.53331
-6.08655
-5.66714
-5.27368
-4.90479
-4.55918
-4.23557
-3.93277
-3.64963
-3.38503
-3.13794
-2.90734
-2.69228
-2.49185
-2.30517
-2.13142
-1.96982
-1.81962
-1.68013
-1.55068
-1.43064
-1.31942
-1.21645
-1.12121
-1.0332
-0.951966
-0.877059
-0.808075
-0.744631
-0.68637
-0.63296
-0.584092
-0.539479
-0.498858
-0.461983
-0.428632
-0.398599
-0.371698
-0.34776
-0.326636
-0.308189
-0.292302
-0.278872
-0.267812
-0.25905
-0.252528
-0.248204
-0.246049
-129.032
-124.177
-119.416
-114.753
-110.192
-105.737
-101.389
-97.1533
-93.0295
-89.0187
-85.1239
-81.345
-77.6811
-74.1327
-70.7004
-67.3835
-64.1806
-61.0903
-58.1111
-55.2419
-52.4812
-49.8274
-47.2784
-44.8321
-42.4862
-40.2382
-38.0857
-36.0263
-34.0574
-32.1765
-30.3811
-28.6685
-27.0363
-25.4817
-24.0022
-22.5952
-21.258
-19.9882
-18.7832
-17.6404
-16.5574
-15.5319
-14.5614
-13.6436
-12.7762
-11.957
-11.184
-10.4549
-9.76767
-9.12043
-8.51122
-7.93819
-7.39954
-6.89354
-6.41853
-5.9729
-5.55511
-5.16366
-4.79715
-4.45421
-4.13352
-3.83385
-3.55399
-3.29282
-3.04925
-2.82223
-2.6108
-2.41401
-2.23099
-2.06088
-1.9029
-1.75628
-1.62033
-1.49435
-1.37773
-1.26987
-1.17019
-1.07818
-0.993346
-0.915216
-0.84336
-0.777374
-0.716882
-0.661535
-0.611007
-0.565
-0.523236
-0.485463
-0.451448
-0.42098
-0.393869
-0.369944
-0.349051
-0.331058
-0.315847
-0.303321
-0.293397
-0.28601
-0.281113
-0.278672
-144.105
-138.683
-133.366
-128.158
-123.065
-118.089
-113.234
-108.503
-103.897
-99.4178
-95.068
-90.8476
-86.7558
-82.7929
-78.9596
-75.2551
-71.6781
-68.2267
-64.8996
-61.6952
-58.612
-55.6482
-52.8015
-50.0694
-47.4494
-44.9388
-42.5349
-40.2348
-38.0359
-35.9353
-33.9301
-32.0176
-30.1946
-28.4585
-26.8061
-25.2347
-23.7414
-22.3232
-20.9774
-19.7011
-18.4917
-17.3463
-16.2624
-15.2374
-14.2687
-13.3539
-12.4905
-11.6762
-10.9087
-10.1859
-9.5055
-8.86552
-8.26395
-7.69884
-7.16834
-6.67065
-6.20405
-5.76688
-5.35755
-4.97454
-4.61639
-4.28171
-3.96917
-3.67748
-3.40545
-3.15192
-2.91579
-2.69602
-2.49161
-2.30163
-2.12519
-1.96145
-1.80961
-1.66892
-1.53868
-1.41821
-1.30689
-1.20414
-1.10939
-1.02213
-0.94188
-0.868186
-0.800628
-0.738815
-0.682384
-0.631002
-0.58436
-0.542174
-0.504186
-0.470159
-0.439881
-0.41316
-0.389827
-0.369731
-0.352744
-0.338754
-0.327671
-0.319422
-0.313952
-0.311227
-159.143
-153.155
-147.283
-141.532
-135.907
-130.412
-125.05
-119.825
-114.739
-109.792
-104.989
-100.328
-95.809
-91.4326
-87.1992
-83.1082
-79.1578
-75.3463
-71.672
-68.1333
-64.7284
-61.4553
-58.3115
-55.2943
-52.4009
-49.6283
-46.9735
-44.4334
-42.0051
-39.6853
-37.4709
-35.3587
-33.3455
-31.4282
-29.6034
-27.8681
-26.2189
-24.6527
-23.1664
-21.757
-20.4213
-19.1564
-17.9594
-16.8275
-15.7577
-14.7474
-13.7939
-12.8946
-12.0471
-11.2488
-10.4974
-9.79067
-9.12632
-8.50224
-7.91638
-7.36675
-6.85146
-6.36867
-5.91663
-5.49365
-5.09813
-4.72852
-4.38336
-4.06124
-3.76082
-3.48084
-3.22006
-2.97736
-2.75162
-2.54181
-2.34696
-2.16613
-1.99845
-1.84308
-1.69925
-1.56621
-1.44327
-1.32979
-1.22516
-1.12879
-1.04017
-0.958784
-0.884176
-0.815912
-0.753593
-0.69685
-0.64534
-0.598752
-0.556799
-0.519221
-0.485784
-0.456275
-0.430507
-0.408314
-0.389554
-0.374105
-0.361865
-0.352755
-0.346714
-0.343704
-174.142
-167.59
-161.164
-154.871
-148.715
-142.703
-136.835
-131.118
-125.553
-120.14
-114.883
-109.783
-104.839
-100.05
-95.4174
-90.9408
-86.6181
-82.4474
-78.4268
-74.5546
-70.8288
-67.2472
-63.8071
-60.5056
-57.3395
-54.3056
-51.4005
-48.6211
-45.9639
-43.4254
-41.0023
-38.6911
-36.4882
-34.3902
-32.3934
-30.4945
-28.6899
-26.9761
-25.3498
-23.8075
-22.3459
-20.9619
-19.652
-18.4134
-17.2428
-16.1372
-15.0939
-14.1099
-13.1825
-12.3089
-11.4868
-10.7134
-9.98643
-9.30354
-8.66246
-8.06104
-7.49718
-6.96889
-6.47424
-6.0114
-5.5786
-5.17416
-4.79647
-4.444
-4.11527
-3.80889
-3.52354
-3.25796
-3.01095
-2.78137
-2.56815
-2.37028
-2.1868
-2.01678
-1.85939
-1.71381
-1.57929
-1.45512
-1.34062
-1.23518
-1.1382
-1.04915
-0.967506
-0.892809
-0.824616
-0.762525
-0.706161
-0.655182
-0.609275
-0.568156
-0.531567
-0.499277
-0.47108
-0.446796
-0.426268
-0.409362
-0.395969
-0.386001
-0.379391
-0.376097
-189.098
-181.983
-175.005
-168.171
-161.487
-154.958
-148.587
-142.379
-136.335
-130.458
-124.75
-119.212
-113.842
-108.642
-103.612
-98.7509
-94.057
-89.528
-85.1622
-80.9574
-76.9117
-73.0226
-69.287
-65.702
-62.2639
-58.9694
-55.8149
-52.7967
-49.9113
-47.1549
-44.5237
-42.0139
-39.6219
-37.3437
-35.1754
-33.1134
-31.1538
-29.2929
-27.5268
-25.8521
-24.265
-22.7621
-21.3398
-19.9947
-18.7236
-17.5231
-16.3902
-15.3217
-14.3146
-13.3661
-12.4733
-11.6335
-10.8441
-10.1025
-9.40641
-8.75333
-8.14105
-7.56739
-7.03026
-6.52767
-6.0577
-5.61853
-5.2084
-4.82565
-4.46869
-4.136
-3.82615
-3.53776
-3.26953
-3.02024
-2.78871
-2.57385
-2.3746
-2.18999
-2.01908
-1.861
-1.71493
-1.58009
-1.45576
-1.34126
-1.23595
-1.13925
-1.0506
-0.969485
-0.895436
-0.828012
-0.766807
-0.71145
-0.661601
-0.61695
-0.577219
-0.542156
-0.511538
-0.485168
-0.462877
-0.444519
-0.429976
-0.419151
-0.411974
-0.408397
-204.006
-196.331
-188.803
-181.43
-174.219
-167.175
-160.302
-153.604
-147.084
-140.743
-134.585
-128.611
-122.818
-117.208
-111.781
-106.537
-101.473
-96.5866
-91.8766
-87.3403
-82.9757
-78.7799
-74.7499
-70.8821
-67.173
-63.6187
-60.2155
-56.9594
-53.8464
-50.8727
-48.034
-45.3264
-42.7458
-40.2879
-37.9488
-35.7242
-33.6101
-31.6024
-29.6971
-27.8904
-26.1782
-24.5567
-23.0223
-21.5712
-20.1998
-18.9047
-17.6824
-16.5297
-15.4432
-14.4199
-13.4567
-12.5507
-11.6991
-10.8991
-10.148
-9.44347
-8.78291
-8.16402
-7.58454
-7.04233
-6.53531
-6.06151
-5.61905
-5.20612
-4.82102
-4.4621
-4.12781
-3.81668
-3.52731
-3.25836
-3.00858
-2.77678
-2.56182
-2.36265
-2.17827
-2.00773
-1.85014
-1.70467
-1.57053
-1.447
-1.3334
-1.22907
-1.13343
-1.04592
-0.966035
-0.893295
-0.827264
-0.767543
-0.713763
-0.665592
-0.622728
-0.584901
-0.551869
-0.52342
-0.499371
-0.479567
-0.463877
-0.452198
-0.444455
-0.440596
-218.865
-210.63
-202.554
-194.645
-186.908
-179.351
-171.977
-164.792
-157.797
-150.994
-144.388
-137.978
-131.763
-125.745
-119.923
-114.296
-108.863
-103.621
-98.5683
-93.7017
-89.0192
-84.5178
-80.1942
-76.0448
-72.0655
-68.2523
-64.6012
-61.108
-57.7683
-54.5779
-51.5325
-48.6277
-45.8591
-43.2222
-40.7127
-38.3261
-36.058
-33.9041
-31.8601
-29.9217
-28.0848
-26.3453
-24.6991
-23.1423
-21.6711
-20.2816
-18.9703
-17.7336
-16.568
-15.4701
-14.4368
-13.4648
-12.5511
-11.6929
-10.8872
-10.1313
-9.42261
-8.75864
-8.13696
-7.55525
-7.0113
-6.503
-6.02831
-5.5853
-5.17215
-4.78709
-4.42846
-4.09467
-3.78422
-3.49568
-3.22771
-2.97902
-2.74841
-2.53473
-2.33692
-2.15396
-1.98489
-1.82882
-1.68492
-1.5524
-1.43051
-1.31859
-1.21598
-1.1221
-1.0364
-0.958357
-0.887517
-0.823446
-0.76575
-0.71407
-0.668084
-0.627502
-0.592064
-0.561543
-0.535743
-0.514496
-0.497663
-0.485134
-0.476827
-0.472687
-233.67
-224.878
-216.255
-207.811
-199.551
-191.483
-183.61
-175.939
-168.471
-161.208
-154.155
-147.311
-140.676
-134.25
-128.034
-122.027
-116.227
-110.631
-105.236
-100.04
-95.0407
-90.2348
-85.6188
-81.1886
-76.9402
-72.8691
-68.971
-65.2414
-61.6759
-58.2697
-55.0183
-51.917
-48.9611
-46.1459
-43.4666
-40.9186
-38.4971
-36.1975
-34.0152
-31.9457
-29.9845
-28.1273
-26.3698
-24.7077
-23.1369
-21.6535
-20.2535
-18.9331
-17.6887
-16.5166
-15.4133
-14.3756
-13.4001
-12.4838
-11.6236
-10.8166
-10.06
-9.3511
-8.68736
-8.06631
-7.48557
-6.94287
-6.43608
-5.96311
-5.52201
-5.1109
-4.72801
-4.37164
-4.04019
-3.73214
-3.44604
-3.18053
-2.93432
-2.70619
-2.495
-2.29966
-2.11915
-1.95253
-1.79889
-1.6574
-1.52728
-1.40778
-1.29823
-1.198
-1.1065
-1.02318
-0.947552
-0.879146
-0.817547
-0.762372
-0.713276
-0.669948
-0.632113
-0.599528
-0.571982
-0.549298
-0.531326
-0.51795
-0.509081
-0.504661
-248.417
-239.07
-229.903
-220.926
-212.145
-203.568
-195.198
-187.042
-179.103
-171.382
-163.883
-156.608
-149.554
-142.723
-136.115
-129.729
-123.562
-117.613
-111.877
-106.354
-101.039
-95.9296
-91.0223
-86.3125
-81.7959
-77.4679
-73.3238
-69.3588
-65.5682
-61.9471
-58.4905
-55.1935
-52.0511
-49.0582
-46.2098
-43.501
-40.9266
-38.4819
-36.1619
-33.9618
-31.8769
-29.9025
-28.034
-26.267
-24.5971
-23.0201
-21.5317
-20.128
-18.805
-17.5589
-16.3861
-15.2829
-14.2458
-13.2717
-12.3572
-11.4992
-10.6949
-9.94125
-9.23562
-8.57537
-7.95798
-7.38104
-6.84226
-6.33944
-5.8705
-5.43345
-5.0264
-4.64754
-4.29517
-3.96768
-3.66352
-3.38125
-3.11951
-2.87698
-2.65246
-2.44479
-2.25289
-2.07576
-1.91242
-1.762
-1.62366
-1.49663
-1.38017
-1.27361
-1.17633
-1.08776
-1.00735
-0.93463
-0.869143
-0.810486
-0.758291
-0.712229
-0.672006
-0.637364
-0.60808
-0.583964
-0.564859
-0.550638
-0.54121
-0.536511
-263.102
-253.203
-243.495
-233.986
-224.687
-215.602
-206.738
-198.1
-189.691
-181.513
-173.572
-165.866
-158.395
-151.16
-144.161
-137.398
-130.867
-124.565
-118.491
-112.641
-107.012
-101.601
-96.4032
-91.4151
-86.6315
-82.0476
-77.6585
-73.4591
-69.4444
-65.6092
-61.9483
-58.4564
-55.1282
-51.9584
-48.9416
-46.0726
-43.3461
-40.7568
-38.2997
-35.9695
-33.7613
-31.6702
-29.6913
-27.8198
-26.0512
-24.381
-22.8046
-21.3179
-19.9167
-18.597
-17.3548
-16.1863
-15.088
-14.0562
-13.0877
-12.179
-11.3271
-10.5289
-9.78161
-9.08233
-8.42843
-7.81739
-7.24675
-6.71421
-6.21755
-5.75466
-5.32354
-4.92229
-4.54909
-4.20223
-3.8801
-3.58114
-3.30392
-3.04706
-2.80926
-2.58932
-2.38608
-2.19847
-2.02548
-1.86617
-1.71965
-1.5851
-1.46176
-1.3489
-1.24587
-1.15206
-1.0669
-0.989883
-0.920525
-0.8584
-0.803119
-0.754334
-0.711733
-0.675044
-0.644029
-0.618487
-0.598252
-0.583191
-0.573205
-0.568228
-277.723
-267.273
-257.026
-246.989
-237.173
-227.583
-218.226
-209.108
-200.232
-191.6
-183.217
-175.083
-167.197
-159.56
-152.173
-145.033
-138.139
-131.488
-125.076
-118.9
-112.959
-107.247
-101.76
-96.4951
-91.4456
-86.607
-81.974
-77.5413
-73.3035
-69.2552
-65.3908
-61.7048
-58.1917
-54.8457
-51.6613
-48.6329
-45.7549
-43.0217
-40.428
-37.9684
-35.6375
-33.4301
-31.3412
-29.3658
-27.4989
-25.7358
-24.0719
-22.5026
-21.0235
-19.6304
-18.3192
-17.0858
-15.9264
-14.8374
-13.815
-12.8558
-11.9566
-11.114
-10.3252
-9.58704
-8.89681
-8.2518
-7.64946
-7.08732
-6.56306
-6.07445
-5.61937
-5.19582
-4.80188
-4.43575
-4.09572
-3.78015
-3.48752
-3.21639
-2.96538
-2.73321
-2.51867
-2.32064
-2.13804
-1.96987
-1.81521
-1.67319
-1.54299
-1.42386
-1.31511
-1.21608
-1.12619
-1.04489
-0.971679
-0.906102
-0.847749
-0.796253
-0.751285
-0.712556
-0.679818
-0.652857
-0.631497
-0.615599
-0.605058
-0.599805
-292.275
-281.278
-270.493
-259.931
-249.6
-239.508
-229.661
-220.065
-210.724
-201.64
-192.817
-184.257
-175.958
-167.921
-160.146
-152.633
-145.377
-138.377
-131.629
-125.131
-118.877
-112.866
-107.093
-101.551
-96.2372
-91.1451
-86.2693
-81.6043
-77.1445
-72.884
-68.8172
-64.9381
-61.2408
-57.7195
-54.3683
-51.1812
-48.1523
-45.276
-42.5464
-39.9578
-37.5048
-35.1818
-32.9835
-30.9045
-28.9398
-27.0843
-25.3332
-23.6817
-22.1251
-20.659
-19.2791
-17.9811
-16.761
-15.6148
-14.5388
-13.5294
-12.5831
-11.6964
-10.8662
-10.0894
-9.36298
-8.68418
-8.05028
-7.45869
-6.90696
-6.39274
-5.91382
-5.46807
-5.0535
-4.66818
-4.31033
-3.97822
-3.67026
-3.38492
-3.12076
-2.87642
-2.65065
-2.44224
-2.25007
-2.07309
-1.91033
-1.76086
-1.62384
-1.49847
-1.38402
-1.2798
-1.1852
-1.09964
-1.02259
-0.95358
-0.89217
-0.837976
-0.790651
-0.749894
-0.71544
-0.687066
-0.664587
-0.647856
-0.636763
-0.631234
-306.755
-295.213
-283.894
-272.809
-261.966
-251.374
-241.039
-230.968
-221.164
-211.63
-202.37
-193.386
-184.676
-176.24
-168.08
-160.194
-152.58
-145.233
-138.151
-131.33
-124.767
-118.458
-112.398
-106.582
-101.005
-95.6607
-90.5433
-85.6472
-80.9664
-76.4949
-72.2265
-68.1553
-64.2749
-60.5791
-57.0618
-53.7168
-50.5379
-47.5191
-44.6542
-41.9375
-39.3629
-36.9248
-34.6176
-32.4356
-30.3736
-28.4262
-26.5883
-24.8549
-23.2212
-21.6825
-20.2342
-18.8719
-17.5913
-16.3884
-15.2591
-14.1997
-13.2065
-12.2759
-11.4045
-10.5892
-9.82685
-9.11442
-8.44911
-7.82821
-7.24915
-6.70946
-6.20681
-5.73898
-5.30386
-4.89946
-4.52387
-4.17532
-3.8521
-3.55262
-3.27537
-3.01893
-2.78197
-2.56323
-2.36154
-2.1758
-2.00497
-1.8481
-1.70429
-1.57271
-1.45259
-1.34321
-1.24392
-1.15412
-1.07326
-1.00082
-0.936371
-0.879491
-0.829823
-0.787046
-0.750885
-0.721105
-0.697513
-0.679953
-0.66831
-0.662508
-321.16
-309.076
-297.225
-285.619
-274.267
-263.178
-252.358
-241.814
-231.549
-221.567
-211.873
-202.467
-193.347
-184.516
-175.973
-167.717
-159.744
-152.053
-144.638
-137.497
-130.626
-124.021
-117.676
-111.587
-105.748
-100.153
-94.795
-89.669
-84.7684
-80.0869
-75.6181
-71.3556
-67.293
-63.4237
-59.7413
-56.2392
-52.911
-49.7504
-46.7511
-43.9067
-41.2113
-38.6587
-36.2431
-33.9587
-31.7998
-29.761
-27.8368
-26.022
-24.3116
-22.7007
-21.1844
-19.7581
-18.4174
-17.158
-15.9757
-14.8665
-13.8266
-12.8523
-11.9401
-11.0865
-10.2883
-9.54241
-8.84586
-8.1958
-7.58955
-7.02451
-6.49826
-6.00846
-5.55291
-5.12952
-4.7363
-4.37138
-4.03298
-3.71944
-3.42917
-3.16069
-2.9126
-2.68359
-2.47243
-2.27797
-2.09912
-1.93488
-1.78432
-1.64656
-1.5208
-1.40628
-1.30233
-1.20832
-1.12365
-1.04782
-0.980341
-0.92079
-0.868789
-0.824004
-0.786145
-0.754967
-0.730267
-0.711882
-0.699693
-0.693618
-335.485
-322.862
-310.483
-298.359
-286.501
-274.917
-263.614
-252.6
-241.877
-231.45
-221.323
-211.498
-201.972
-192.746
-183.822
-175.198
-166.87
-158.835
-151.089
-143.63
-136.452
-129.552
-122.925
-116.565
-110.465
-104.62
-99.0233
-93.6686
-88.5494
-83.6591
-78.991
-74.5384
-70.2946
-66.2527
-62.406
-58.7477
-55.2711
-51.9695
-48.8364
-45.8652
-43.0495
-40.3831
-37.8597
-35.4734
-33.2182
-31.0884
-29.0784
-27.1827
-25.396
-23.7132
-22.1293
-20.6394
-19.2389
-17.9233
-16.6883
-15.5296
-14.4433
-13.4256
-12.4726
-11.581
-10.7472
-9.96805
-9.24042
-8.56137
-7.92807
-7.33784
-6.78811
-6.27647
-5.8006
-5.35832
-4.94756
-4.56636
-4.21287
-3.88534
-3.58213
-3.30167
-3.04252
-2.8033
-2.58272
-2.37958
-2.19275
-2.02119
-1.86391
-1.72
-1.58863
-1.46901
-1.36042
-1.26221
-1.17377
-1.09456
-1.02407
-0.961862
-0.907541
-0.860758
-0.821211
-0.788642
-0.76284
-0.743636
-0.730903
-0.724557
-349.727
-336.569
-323.664
-311.025
-298.664
-286.588
-274.805
-263.323
-252.146
-241.276
-230.719
-220.476
-210.546
-200.929
-191.626
-182.635
-173.954
-165.578
-157.504
-149.727
-142.245
-135.052
-128.144
-121.513
-115.154
-109.061
-103.227
-97.6451
-92.3086
-87.2107
-82.3444
-77.7028
-73.2788
-69.0653
-65.0553
-61.2417
-57.6175
-54.1758
-50.9096
-47.8123
-44.8771
-42.0974
-39.467
-36.9794
-34.6284
-32.4083
-30.3129
-28.3367
-26.4742
-24.7199
-23.0687
-21.5156
-20.0556
-18.6842
-17.3967
-16.1889
-15.0565
-13.9955
-13.0022
-12.0726
-11.2035
-10.3912
-9.63271
-8.92483
-8.26465
-7.64935
-7.07629
-6.54293
-6.04685
-5.5858
-5.1576
-4.76022
-4.39172
-4.05029
-3.7342
-3.44184
-3.17168
-2.9223
-2.69236
-2.4806
-2.28584
-2.10699
-1.94304
-1.79302
-1.65607
-1.53137
-1.41818
-1.3158
-1.2236
-1.14103
-1.06754
-1.0027
-0.94607
-0.897301
-0.856074
-0.822123
-0.795226
-0.775206
-0.761932
-0.755317
-363.883
-350.192
-336.765
-323.615
-310.753
-298.188
-285.929
-273.982
-262.352
-251.042
-240.058
-229.401
-219.068
-209.062
-199.383
-190.028
-180.995
-172.28
-163.879
-155.788
-148.003
-140.519
-133.331
-126.432
-119.816
-113.476
-107.405
-101.598
-96.045
-90.7407
-85.6775
-80.848
-76.245
-71.8609
-67.6886
-63.7207
-59.9498
-56.3687
-52.9703
-49.7476
-46.6936
-43.8014
-41.0645
-38.4762
-36.0301
-33.7201
-31.5399
-29.4837
-27.5458
-25.7205
-24.0025
-22.3865
-20.8674
-19.4405
-18.1009
-16.8442
-15.666
-14.562
-13.5284
-12.5613
-11.6569
-10.8118
-10.0226
-9.28609
-8.59918
-7.95898
-7.36272
-6.80777
-6.29162
-5.8119
-5.36637
-4.9529
-4.56949
-4.21423
-3.88535
-3.58116
-3.30007
-3.04059
-2.80134
-2.58101
-2.37836
-2.19228
-2.02169
-1.8656
-1.72311
-1.59336
-1.47558
-1.36906
-1.27313
-1.18721
-1.11076
-1.04328
-0.984365
-0.933622
-0.890726
-0.855401
-0.827415
-0.806585
-0.792774
-0.78589
-377.95
-363.729
-349.783
-336.125
-322.765
-309.715
-296.981
-284.573
-272.494
-260.746
-249.338
-238.268
-227.537
-217.144
-207.09
-197.374
-187.992
-178.94
-170.214
-161.81
-153.724
-145.951
-138.485
-131.319
-124.447
-117.862
-111.557
-105.525
-99.7577
-94.2484
-88.9895
-83.9733
-79.1923
-74.6388
-70.3052
-66.1838
-62.2672
-58.5477
-55.018
-51.6707
-48.4986
-45.4946
-42.6519
-39.9635
-37.4229
-35.0235
-32.7591
-30.6235
-28.6106
-26.7148
-24.9303
-23.2519
-21.6741
-20.192
-18.8006
-17.4953
-16.2715
-15.125
-14.0514
-13.0469
-12.1076
-11.2298
-10.4101
-9.64505
-8.93159
-8.26665
-7.64734
-7.07093
-6.53483
-6.03656
-5.57381
-5.14436
-4.74613
-4.37714
-4.03555
-3.71959
-3.42763
-3.15813
-2.90963
-2.68078
-2.4703
-2.27702
-2.09984
-1.93772
-1.78972
-1.65495
-1.53262
-1.42198
-1.32235
-1.23311
-1.15369
-1.08361
-1.02242
-0.969712
-0.925159
-0.888468
-0.8594
-0.837765
-0.82342
-0.81627
-391.923
-377.176
-362.715
-348.551
-334.698
-321.165
-307.961
-295.094
-282.568
-270.386
-258.556
-247.077
-235.949
-225.172
-214.746
-204.671
-194.942
-185.555
-176.507
-167.792
-159.407
-151.347
-143.605
-136.174
-129.048
-122.22
-115.682
-109.426
-103.446
-97.7328
-92.2795
-87.0778
-82.1201
-77.3982
-72.9044
-68.6307
-64.5692
-60.7122
-57.052
-53.581
-50.2916
-47.1766
-44.2288
-41.441
-38.8065
-36.3184
-33.9702
-31.7556
-29.6684
-27.7024
-25.852
-24.1115
-22.4754
-20.9385
-19.4957
-18.1421
-16.8731
-15.6841
-14.5709
-13.5292
-12.5552
-11.6449
-10.7949
-10.0016
-9.2618
-8.57227
-7.93007
-7.33235
-6.77642
-6.25974
-5.77988
-5.33455
-4.9216
-4.53897
-4.18474
-3.85711
-3.55436
-3.27489
-3.0172
-2.77989
-2.56163
-2.36121
-2.17747
-2.00936
-1.85588
-1.71614
-1.58929
-1.47455
-1.37124
-1.27869
-1.19635
-1.12368
-1.06022
-1.00556
-0.959363
-0.921316
-0.891173
-0.868738
-0.853863
-0.846449
-405.799
-390.531
-375.557
-360.892
-346.548
-332.537
-318.865
-305.542
-292.572
-279.96
-267.711
-255.825
-244.303
-233.144
-222.349
-211.917
-201.844
-192.125
-182.756
-173.733
-165.051
-156.705
-148.689
-140.995
-133.617
-126.547
-119.778
-113.301
-107.108
-101.193
-95.5467
-90.1609
-85.0276
-80.1386
-75.4857
-71.0606
-66.8554
-62.8618
-59.072
-55.478
-52.0722
-48.8469
-45.7947
-42.9083
-40.1804
-37.6043
-35.173
-32.88
-30.7188
-28.6833
-26.7673
-24.9652
-23.2712
-21.6798
-20.1859
-18.7845
-17.4705
-16.2395
-15.0868
-14.0082
-12.9997
-12.0572
-11.1771
-10.3558
-9.58972
-8.87578
-8.21084
-7.59196
-7.01635
-6.48137
-5.98452
-5.52343
-5.09585
-4.69967
-4.33291
-3.99367
-3.6802
-3.39084
-3.12403
-2.87831
-2.65233
-2.44481
-2.25456
-2.0805
-1.92159
-1.7769
-1.64556
-1.52676
-1.41979
-1.32397
-1.23871
-1.16346
-1.09776
-1.04117
-0.993331
-0.953936
-0.922726
-0.899497
-0.884095
-0.876419
-419.576
-403.789
-388.307
-373.144
-358.313
-343.826
-329.69
-315.915
-302.505
-289.464
-276.799
-264.51
-252.597
-241.059
-229.898
-219.112
-208.696
-198.647
-188.96
-179.631
-170.655
-162.025
-153.737
-145.782
-138.153
-130.843
-123.844
-117.147
-110.745
-104.628
-98.7903
-93.2217
-87.9142
-82.8592
-78.0483
-73.473
-69.125
-64.9959
-61.0774
-57.3614
-53.84
-50.5052
-47.3494
-44.3649
-41.5445
-38.8809
-36.367
-33.9962
-31.7617
-29.657
-27.6761
-25.8127
-24.0612
-22.4158
-20.8712
-19.4222
-18.0636
-16.7908
-15.599
-14.4838
-13.441
-12.4666
-11.5566
-10.7073
-9.91528
-9.1771
-8.48958
-7.84969
-7.25454
-6.70141
-6.18769
-5.71094
-5.26885
-4.85922
-4.48
-4.12925
-3.80514
-3.50595
-3.23009
-2.97603
-2.74237
-2.52781
-2.3311
-2.15113
-1.98683
-1.83723
-1.70142
-1.57859
-1.46799
-1.36892
-1.28076
-1.20296
-1.13502
-1.07651
-1.02705
-0.986321
-0.954052
-0.930034
-0.914109
-0.906172
-433.248
-416.947
-400.96
-385.303
-369.989
-355.03
-340.433
-326.209
-312.363
-298.897
-285.819
-273.13
-260.828
-248.914
-237.39
-226.252
-215.497
-205.121
-195.118
-185.485
-176.216
-167.305
-158.747
-150.533
-142.655
-135.107
-127.879
-120.964
-114.353
-108.038
-102.01
-96.2595
-90.779
-85.5593
-80.5916
-75.8673
-71.3776
-67.1139
-63.0677
-59.2307
-55.5945
-52.151
-48.8923
-45.8106
-42.8983
-40.1479
-37.5521
-35.104
-32.7967
-30.6235
-28.5779
-26.6539
-24.8453
-23.1463
-21.5514
-20.0551
-18.6523
-17.3379
-16.1073
-14.9558
-13.879
-12.8728
-11.9332
-11.0562
-10.2384
-9.47615
-8.76623
-8.10549
-7.49095
-6.91979
-6.38933
-5.89704
-5.44054
-5.01757
-4.62599
-4.26381
-3.92914
-3.6202
-3.33534
-3.07301
-2.83174
-2.61018
-2.40707
-2.22123
-2.05157
-1.8971
-1.75687
-1.63004
-1.51583
-1.41352
-1.32249
-1.24216
-1.17201
-1.11159
-1.06052
-1.01846
-0.985142
-0.960341
-0.943898
-0.935702
-446.814
-430.002
-413.515
-397.368
-381.575
-366.147
-351.093
-336.423
-322.143
-308.256
-294.768
-281.682
-268.995
-256.708
-244.823
-233.336
-222.245
-211.543
-201.228
-191.293
-181.734
-172.544
-163.717
-155.246
-147.122
-139.337
-131.884
-124.752
-117.934
-111.421
-105.204
-99.2736
-93.6215
-88.2383
-83.1151
-78.2428
-73.6125
-69.2153
-65.0425
-61.0853
-57.3352
-53.784
-50.4233
-47.2451
-44.2415
-41.405
-38.728
-36.2032
-33.8236
-31.5823
-29.4728
-27.4885
-25.6232
-23.871
-22.2262
-20.683
-19.2363
-17.8808
-16.6116
-15.4241
-14.3136
-13.2759
-12.3068
-11.4024
-10.559
-9.77287
-9.04072
-8.35929
-7.7255
-7.13646
-6.58939
-6.08169
-5.6109
-5.17468
-4.77084
-4.39732
-4.05217
-3.73356
-3.43978
-3.16923
-2.92041
-2.69191
-2.48244
-2.29078
-2.11581
-1.9565
-1.81188
-1.68108
-1.56329
-1.45779
-1.36391
-1.28106
-1.20871
-1.1464
-1.09373
-1.05035
-1.01599
-0.990412
-0.973453
-0.965001
-460.27
-442.952
-425.968
-409.335
-393.066
-377.173
-361.666
-346.555
-331.844
-317.539
-303.645
-290.165
-277.096
-264.439
-252.195
-240.363
-228.938
-217.914
-207.287
-197.053
-187.206
-177.74
-168.648
-159.921
-151.553
-143.534
-135.855
-128.509
-121.486
-114.776
-108.372
-102.263
-96.4408
-90.8956
-85.6181
-80.5991
-75.8293
-71.2997
-67.0012
-62.9248
-59.0619
-55.4036
-51.9417
-48.6678
-45.5738
-42.6519
-39.8942
-37.2934
-34.8422
-32.5334
-30.3603
-28.3163
-26.3948
-24.5899
-22.8955
-21.3059
-19.8156
-18.4193
-17.1119
-15.8886
-14.7447
-13.6757
-12.6774
-11.7458
-10.8769
-10.0672
-9.31298
-8.61102
-7.95815
-7.35137
-6.78783
-6.26484
-5.77987
-5.33051
-4.91452
-4.52974
-4.1742
-3.84599
-3.54337
-3.26467
-3.00835
-2.77298
-2.5572
-2.35977
-2.17953
-2.01542
-1.86644
-1.7317
-1.61037
-1.50169
-1.40498
-1.31963
-1.24511
-1.18092
-1.12667
-1.08199
-1.04659
-1.02024
-1.00277
-0.994063
-473.612
-455.792
-438.316
-421.2
-404.459
-388.106
-372.15