/*--------------------------------*- C++ -*----------------------------------*\
| =========                 |                                                 |
| \\      /  F ield         | OpenFOAM: The Open Source CFD Toolbox           |
|  \\    /   O peration     | Version:  2406                                  |
|   \\  /    A nd           | Website:  www.openfoam.com                      |
|    \\/     M anipulation  |                                                 |
\*---------------------------------------------------------------------------*/
FoamFile
{
    version     2.0;
    format      ascii;
    arch        "LSB;label=32;scalar=64";
    class       volScalarField;
    location    "35";
    object      gradTy;
}
// * * * * * * * * * * * * * * * * * * * * * * * * * * * * * * * * * * * * * //

dimensions      [0 -1 0 1 0 0 0];

internalField   nonuniform List<scalar> 
20000
(
228.533
215.203
202.516
190.452
178.987
168.101
157.773
147.982
138.707
129.927
121.622
113.774
106.362
99.3665
92.77
86.5545
80.7023
75.1961
70.0193
65.1559
60.5902
56.3073
52.2928
48.5325
45.013
41.7212
38.6446
35.7713
33.0898
30.5892
28.2589
26.089
24.0698
22.1923
20.4479
18.8282
17.3254
15.9322
14.6413
13.4463
12.3408
11.3187
10.3745
9.50294
8.6989
7.95772
7.27496
6.64648
6.06836
5.53694
5.04881
4.60074
4.18974
3.813
3.46792
3.15204
2.86311
2.599
2.35776
2.13754
1.93666
1.75354
1.58673
1.43488
1.29674
1.17115
1.05705
0.953457
0.859465
0.774239
0.69701
0.62707
0.563771
0.506515
0.454754
0.407987
0.365752
0.327629
0.293231
0.262204
0.234225
0.208999
0.186256
0.165748
0.147249
0.130553
0.115471
0.101828
0.0894669
0.0782404
0.0680141
0.0586636
0.0500737
0.0421369
0.0347526
0.0278264
0.0212683
0.0149925
0.00891631
0.00295894
228.477
215.151
202.467
190.405
178.943
168.06
157.734
147.945
138.672
129.895
121.593
113.746
106.335
99.3419
92.7471
86.5332
80.6824
75.1775
70.002
65.1397
60.5752
56.2935
52.2799
48.5206
45.0019
41.7109
38.6351
35.7625
33.0817
30.5816
28.2519
26.0825
24.0639
22.1868
20.4428
18.8235
17.3211
15.9282
14.6377
13.443
12.3377
11.3159
10.372
9.5006
8.69676
7.95576
7.27317
6.64484
6.06686
5.53558
5.04756
4.5996
4.1887
3.81206
3.46706
3.15127
2.8624
2.59836
2.35717
2.13701
1.93618
1.75311
1.58634
1.43453
1.29642
1.17086
1.05679
0.953222
0.859254
0.774048
0.696838
0.626916
0.563632
0.50639
0.454642
0.407886
0.365662
0.327548
0.293158
0.262139
0.234167
0.208948
0.18621
0.165707
0.147213
0.130521
0.115442
0.101803
0.0894449
0.0782211
0.0679974
0.0586492
0.0500614
0.0421265
0.0347441
0.0278196
0.0212631
0.0149889
0.00891413
0.00295822
228.364
215.044
202.367
190.311
178.854
167.977
157.657
147.872
138.604
129.831
121.533
113.69
106.283
99.2928
92.7014
86.4906
80.6426
75.1404
69.9674
65.1075
60.5453
56.2657
52.2542
48.4967
44.9797
41.6903
38.616
35.7449
33.0653
30.5665
28.238
26.0696
24.052
22.1759
20.4327
18.8142
17.3126
15.9204
14.6305
13.4364
12.3316
11.3103
10.3669
9.49591
8.69246
7.95183
7.26958
6.64156
6.06387
5.53284
5.04507
4.59733
4.18663
3.81018
3.46535
3.14971
2.86099
2.59708
2.35601
2.13596
1.93523
1.75225
1.58556
1.43382
1.29578
1.17028
1.05627
0.952752
0.85883
0.773666
0.696494
0.626606
0.563354
0.50614
0.454418
0.407685
0.365482
0.327387
0.293014
0.26201
0.234052
0.208845
0.186118
0.165625
0.14714
0.130457
0.115385
0.101753
0.0894008
0.0781826
0.0679639
0.0586203
0.0500367
0.0421057
0.034727
0.0278059
0.0212526
0.0149815
0.00890975
0.00295676
228.195
214.884
202.217
190.17
178.722
167.852
157.54
147.763
138.501
129.735
121.443
113.606
106.204
99.2193
92.6328
86.4265
80.5829
75.0847
69.9156
65.0593
60.5005
56.224
52.2155
48.4608
44.9464
41.6595
38.5874
35.7184
33.0408
30.5439
28.2171
26.0503
24.0342
22.1595
20.4176
18.8003
17.2998
15.9086
14.6197
13.4264
12.3225
11.302
10.3592
9.48888
8.68603
7.94594
7.2642
6.63664
6.05938
5.52875
5.04133
4.59393
4.18353
3.80736
3.46278
3.14738
2.85887
2.59516
2.35427
2.13438
1.93379
1.75095
1.58439
1.43276
1.29482
1.16941
1.05549
0.952046
0.858194
0.773094
0.695979
0.626143
0.562937
0.505766
0.454082
0.407383
0.365211
0.327144
0.292797
0.261816
0.233879
0.20869
0.18598
0.165503
0.147032
0.13036
0.1153
0.101678
0.0893347
0.0781248
0.0679136
0.058577
0.0499997
0.0420746
0.0347013
0.0277853
0.0212369
0.0149704
0.00890317
0.00295458
227.97
214.672
202.017
189.982
178.545
167.687
157.384
147.617
138.365
129.607
121.323
113.493
106.099
99.1213
92.5413
86.3412
80.5033
75.0105
69.8465
64.9951
60.4407
56.1685
52.1639
48.4129
44.902
41.6183
38.5493
35.6831
33.0082
30.5137
28.1892
26.0246
24.0104
22.1376
20.3974
18.7817
17.2827
15.8929
14.6052
13.4132
12.3103
11.2908
10.349
9.4795
8.67745
7.93809
7.25702
6.63008
6.05339
5.52329
5.03635
4.58939
4.1794
3.8036
3.45936
3.14427
2.85605
2.59259
2.35194
2.13227
1.93188
1.74922
1.58282
1.43134
1.29354
1.16826
1.05444
0.951106
0.857346
0.77233
0.695292
0.625525
0.562381
0.505266
0.453633
0.406981
0.364851
0.326822
0.292508
0.261557
0.233648
0.208484
0.185797
0.165339
0.146886
0.130232
0.115186
0.101577
0.0892466
0.0780477
0.0678466
0.0585192
0.0499504
0.0420331
0.0346671
0.0277579
0.021216
0.0149557
0.0088944
0.00295167
227.688
214.407
201.767
189.747
178.325
167.479
157.19
147.435
138.194
129.446
121.173
113.353
105.968
98.9989
92.427
86.2345
80.4038
74.9179
69.7602
64.9148
60.3661
56.0991
52.0995
48.3531
44.8466
41.5669
38.5017
35.639
32.9674
30.476
28.1543
25.9924
23.9807
22.1102
20.3722
18.7585
17.2613
15.8732
14.5872
13.3966
12.2951
11.2769
10.3362
9.46779
8.66673
7.92828
7.24806
6.62189
6.04591
5.51646
5.03013
4.58372
4.17424
3.7989
3.45509
3.14039
2.85252
2.58939
2.34904
2.12963
1.9295
1.74706
1.58087
1.42957
1.29194
1.16682
1.05314
0.949932
0.856288
0.771377
0.694433
0.624752
0.561687
0.504642
0.453073
0.406479
0.3644
0.326418
0.292147
0.261235
0.233359
0.208227
0.185568
0.165135
0.146705
0.130071
0.115044
0.101452
0.0891364
0.0779514
0.0677629
0.058447
0.0498888
0.0419813
0.0346244
0.0277237
0.0211898
0.0149372
0.00888343
0.00294803
227.35
214.089
201.468
189.466
178.06
167.231
156.956
147.216
137.989
129.254
120.993
113.185
105.811
98.852
92.2899
86.1065
80.2845
74.8067
69.6567
64.8184
60.2765
56.0159
52.0222
48.2814
44.78
41.5052
38.4445
35.5861
32.9185
30.4308
28.1126
25.9539
23.9452
22.0774
20.342
18.7307
17.2357
15.8497
14.5655
13.3767
12.2769
11.2601
10.3208
9.45374
8.65387
7.91652
7.2373
6.61207
6.03694
5.50828
5.02267
4.57692
4.16805
3.79326
3.44996
3.13573
2.84829
2.58555
2.34555
2.12647
1.92663
1.74447
1.57852
1.42745
1.29002
1.16509
1.05158
0.948523
0.855018
0.770233
0.693403
0.623825
0.560854
0.503894
0.452401
0.405876
0.36386
0.325934
0.291714
0.260847
0.233013
0.207918
0.185292
0.164891
0.146488
0.129878
0.114874
0.101302
0.0890043
0.0778359
0.0676625
0.0583604
0.0498149
0.0419191
0.0345731
0.0276826
0.0211584
0.0149151
0.00887027
0.00294366
226.956
213.718
201.119
189.137
177.752
166.941
156.684
146.961
137.75
129.03
120.783
112.989
105.628
98.6807
92.1299
85.9573
80.1453
74.6771
69.536
64.7061
60.1721
55.9189
51.9321
48.1977
44.7024
41.4333
38.3779
35.5244
32.8614
30.378
28.0638
25.9089
23.9037
22.0392
20.3067
18.6982
17.2058
15.8222
14.5403
13.3535
12.2556
11.2406
10.303
9.43736
8.63887
7.9028
7.22476
6.60061
6.02648
5.49874
5.01397
4.56899
4.16083
3.78669
3.44399
3.13029
2.84336
2.58107
2.34149
2.12279
1.9233
1.74144
1.57579
1.42498
1.28779
1.16307
1.04976
0.94688
0.853536
0.768898
0.692202
0.622745
0.559882
0.503021
0.451618
0.405173
0.36323
0.32537
0.291208
0.260396
0.23261
0.207558
0.184972
0.164605
0.146234
0.129653
0.114675
0.101126
0.0888503
0.0777012
0.0675454
0.0582594
0.0497287
0.0418466
0.0345132
0.0276347
0.0211218
0.0148893
0.00885493
0.00293857
226.506
213.295
200.72
188.762
177.399
166.61
156.374
146.669
137.476
128.775
120.544
112.765
105.418
98.4851
91.9473
85.7869
79.9865
74.529
69.3981
64.5779
60.0528
55.808
51.8291
48.1022
44.6138
41.3512
38.3018
35.454
32.7963
30.3178
28.0082
25.8575
23.8563
21.9955
20.2665
18.6612
17.1717
15.7908
14.5115
13.3271
12.2313
11.2183
10.2825
9.41866
8.62175
7.88714
7.21044
6.58753
6.01454
5.48783
5.00403
4.55993
4.15258
3.77918
3.43716
3.12409
2.83772
2.57595
2.33685
2.11858
1.91948
1.73799
1.57266
1.42216
1.28524
1.16076
1.04768
0.945003
0.851845
0.767375
0.69083
0.621511
0.558773
0.502024
0.450723
0.40437
0.36251
0.324725
0.290631
0.25988
0.232149
0.207147
0.184605
0.164279
0.145944
0.129396
0.114448
0.100926
0.0886743
0.0775473
0.0674116
0.058144
0.0496302
0.0417637
0.0344449
0.02758
0.02108
0.0148598
0.00883739
0.00293275
226.001
212.818
200.272
188.341
177.003
166.238
156.025
146.342
137.169
128.487
120.275
112.513
105.183
98.2651
91.742
85.5953
79.8078
74.3626
69.2432
64.4337
59.9187
55.6834
51.7134
47.9947
44.5142
41.2588
38.2163
35.3748
32.723
30.2501
27.9457
25.7998
23.803
21.9463
20.2212
18.6195
17.1334
15.7556
14.4791
13.2973
12.204
11.1933
10.2596
9.39762
8.60249
7.86953
7.19434
6.57282
6.00111
5.47558
4.99285
4.54975
4.1433
3.77075
3.42949
3.11711
2.83138
2.5702
2.33163
2.11385
1.9152
1.73411
1.56915
1.41898
1.28237
1.15817
1.04534
0.942893
0.849943
0.765661
0.689288
0.620123
0.557525
0.500904
0.449717
0.403468
0.361701
0.324
0.289983
0.2593
0.231631
0.206685
0.184193
0.163912
0.145619
0.129108
0.114192
0.100701
0.0884764
0.0773743
0.0672612
0.0580143
0.0495195
0.0416705
0.0343681
0.0275185
0.021033
0.0148267
0.00881768
0.00292621
225.439
212.289
199.774
187.873
176.563
165.825
155.637
145.978
136.829
128.168
119.976
112.233
104.921
98.021
91.514
85.3826
79.6095
74.1778
69.0711
64.2736
59.7698
55.545
51.5849
47.8755
44.4036
41.1563
38.1213
35.2869
32.6417
30.1749
27.8762
25.7357
23.7439
21.8918
20.171
18.5732
17.0908
15.7164
14.4431
13.2643
12.1737
11.1655
10.2341
9.37427
8.58112
7.84997
7.17646
6.55649
5.98619
5.46198
4.98045
4.53845
4.13301
3.76138
3.42096
3.10937
2.82435
2.56382
2.32584
2.1086
1.91044
1.7298
1.56525
1.41546
1.27918
1.15529
1.04274
0.940551
0.847832
0.763759
0.687576
0.618583
0.556141
0.499659
0.4486
0.402465
0.360803
0.323195
0.289263
0.258656
0.231056
0.206171
0.183736
0.163505
0.145257
0.128787
0.113909
0.100451
0.0882568
0.0771822
0.0670942
0.0578703
0.0493965
0.0415671
0.0342828
0.0274502
0.0209808
0.0147899
0.0087958
0.00291895
224.822
211.708
199.227
187.358
176.08
165.371
155.211
145.579
136.454
127.817
119.647
111.926
104.634
97.7526
91.2634
85.1489
79.3916
73.9747
68.882
64.0976
59.6062
55.393
51.4436
47.7444
44.282
41.0436
38.017
35.1903
32.5524
30.0923
27.7999
25.6652
23.6788
21.8319
20.1158
18.5224
17.044
15.6734
14.4036
13.2279
12.1403
11.1349
10.2061
9.34861
8.55763
7.82848
7.15681
6.53854
5.96981
5.44702
4.96681
4.52602
4.1217
3.75108
3.4116
3.10086
2.81662
2.5568
2.31947
2.10283
1.90521
1.72507
1.56097
1.41158
1.27568
1.15213
1.03989
0.937976
0.845511
0.761669
0.685694
0.61689
0.554618
0.498292
0.447372
0.401364
0.359815
0.322311
0.288471
0.257948
0.230424
0.205607
0.183233
0.163058
0.14486
0.128435
0.113597
0.100176
0.0880153
0.076971
0.0669107
0.057712
0.0492614
0.0414534
0.034189
0.0273751
0.0209234
0.0147494
0.00877174
0.00291097
224.149
211.075
198.631
186.798
175.553
164.876
154.746
145.143
136.046
127.434
119.289
111.591
104.321
97.4601
90.9904
84.8941
79.154
73.7534
68.6759
63.9058
59.4279
55.2272
51.2897
47.6016
44.1495
40.9208
37.9032
35.085
32.455
30.0023
27.7167
25.5884
23.608
21.7666
20.0556
18.467
16.993
15.6265
14.3605
13.1884
12.104
11.1016
10.1755
9.32064
8.53202
7.80506
7.1354
6.51897
5.95194
5.43073
4.95195
4.51248
4.10936
3.73986
3.40139
3.09158
2.80819
2.54915
2.31253
2.09654
1.89951
1.71991
1.5563
1.40736
1.27186
1.14869
1.03678
0.935171
0.842982
0.759391
0.683643
0.615045
0.552959
0.496802
0.446034
0.400164
0.358739
0.321347
0.287608
0.257176
0.229734
0.204992
0.182685
0.16257
0.144426
0.128051
0.113257
0.0998765
0.0877522
0.0767409
0.0667107
0.0575394
0.0491142
0.0413295
0.0340868
0.0272933
0.0208608
0.0147053
0.00874552
0.00290226
223.421
210.389
197.986
186.191
174.983
164.341
154.244
144.672
135.604
127.021
118.902
111.229
103.982
97.1436
90.6949
84.6184
78.897
73.5139
68.4529
63.6983
59.2348
55.0479
51.1231
47.447
44.0061
40.7879
37.7801
34.9711
32.3495
29.9048
27.6267
25.5053
23.5313
21.6959
19.9904
18.407
16.9378
15.5757
14.3138
13.1455
12.0647
11.0655
10.1425
9.29037
8.50431
7.77971
7.11223
6.4978
5.93261
5.41309
4.93587
4.49783
4.09602
3.72771
3.39035
3.08154
2.79907
2.54087
2.30502
2.08973
1.89334
1.71432
1.55124
1.40279
1.26773
1.14496
1.03341
0.932134
0.840245
0.756925
0.681423
0.613048
0.551164
0.495189
0.444586
0.398864
0.357574
0.320304
0.286675
0.256342
0.228989
0.204327
0.182092
0.162043
0.143958
0.127635
0.11289
0.0995524
0.0874674
0.0764918
0.0664942
0.0573527
0.0489548
0.0411953
0.0339762
0.0272047
0.0207932
0.0146576
0.00871714
0.00289285
222.638
209.652
197.292
185.539
174.37
163.765
153.703
144.165
135.129
126.575
118.485
110.839
103.618
96.8031
90.377
84.3218
78.6204
73.2562
68.213
63.475
59.0272
54.8549
50.9439
47.2806
43.8519
40.6449
37.6477
34.8485
32.2362
29.8
27.5298
25.4159
23.4488
21.6198
19.9204
18.3425
16.8785
15.5212
14.2636
13.0995
12.0224
11.0267
10.1069
9.2578
8.4745
7.75244
7.0873
6.47503
5.91182
5.39412
4.91857
4.48206
4.08166
3.71465
3.37846
3.07074
2.78926
2.53197
2.29694
2.08241
1.88671
1.70831
1.54581
1.39787
1.26329
1.14094
1.02979
0.928867
0.8373
0.754272
0.679035
0.6109
0.549233
0.493453
0.443028
0.397467
0.356322
0.319181
0.28567
0.255443
0.228186
0.203611
0.181454
0.161475
0.143453
0.127188
0.112494
0.0992037
0.087161
0.0762239
0.0662612
0.0571518
0.0487833
0.041051
0.0338572
0.0271094
0.0207203
0.0146063
0.00868661
0.00288271
221.8
208.863
196.55
184.84
173.713
163.148
153.125
143.622
134.62
126.099
118.039
110.422
103.228
96.4387
90.0368
84.0044
78.3245
72.9805
67.9562
63.2361
58.805
54.6484
50.7522
47.1027
43.6868
40.4919
37.506
34.7173
32.1148
29.6878
27.4262
25.3202
23.3606
21.5384
19.8454
18.2734
16.8149
15.4627
14.21
13.0501
11.9772
10.9852
10.0689
9.22296
8.44261
7.72326
7.06062
6.45066
5.88957
5.37381
4.90006
4.46519
4.0663
3.70067
3.36575
3.05918
2.77876
2.52244
2.2883
2.07457
1.87961
1.70189
1.53999
1.39261
1.25854
1.13665
1.02591
0.925372
0.834149
0.751434
0.67648
0.608601
0.547166
0.491597
0.441361
0.395971
0.354981
0.31798
0.284595
0.254482
0.227328
0.202845
0.180771
0.160867
0.142914
0.126709
0.112071
0.0988304
0.0868331
0.0759372
0.066012
0.0569368
0.0485998
0.0408966
0.0337298
0.0270074
0.0206424
0.0145513
0.00865393
0.00287187
220.907
208.022
195.759
184.096
173.014
162.492
152.508
143.044
134.078
125.591
117.564
109.977
102.812
96.0506
89.6744
83.6663
78.0092
72.6867
67.6827
62.9816
58.5683
54.4285
50.5479
46.9131
43.5109
40.3289
37.355
34.5776
31.9855
29.5683
27.3158
25.2183
23.2665
21.4517
19.7655
18.1999
16.7473
15.4005
14.1528
12.9976
11.929
10.941
10.0284
9.18583
8.40862
7.69218
7.0322
6.42469
5.86586
5.35218
4.88034
4.44722
4.04993
3.68577
3.3522
3.04687
2.76758
2.51228
2.27909
2.06622
1.87204
1.69504
1.53379
1.38701
1.25347
1.13207
1.02178
0.921648
0.830792
0.74841
0.673757
0.606152
0.544964
0.489618
0.439585
0.394378
0.353552
0.316701
0.28345
0.253458
0.226413
0.202029
0.180044
0.16022
0.142339
0.1262
0.11162
0.0984329
0.0864838
0.0756317
0.0657464
0.0567078
0.0484043
0.0407321
0.0335941
0.0268988
0.0205594
0.0144928
0.00861913
0.00286032
219.96
207.13
194.919
183.307
172.272
161.795
151.854
142.43
133.503
125.053
117.06
109.506
102.371
95.6387
89.2899
83.3075
77.6747
72.375
67.3925
62.7115
58.3172
54.1951
50.3311
46.7119
43.3244
40.156
37.1948
34.4293
31.8484
29.4415
27.1987
25.1102
23.1668
21.3597
19.6807
18.1218
16.6754
15.3345
14.0921
12.9419
11.8778
10.8941
9.98535
9.14644
8.37257
7.65919
7.00205
6.39714
5.84071
5.32923
4.85941
4.42815
4.03257
3.66997
3.33783
3.03381
2.75571
2.50151
2.26931
2.05736
1.86402
1.68777
1.52722
1.38106
1.2481
1.12722
1.0174
0.917696
0.827231
0.745201
0.670869
0.603553
0.542628
0.487519
0.4377
0.392687
0.352037
0.315343
0.282235
0.252372
0.225443
0.201163
0.179272
0.159534
0.141729
0.125659
0.111142
0.098011
0.0861131
0.0753075
0.0654647
0.0564648
0.0481969
0.0405576
0.0334502
0.0267835
0.0204713
0.0144307
0.00858219
0.00284806
218.958
206.187
194.032
182.472
171.488
161.058
151.163
141.782
132.895
124.483
116.527
109.007
101.905
95.2032
88.8833
82.9282
77.3211
72.0455
67.0856
62.4259
58.0517
53.9483
50.102
46.4992
43.1271
39.9731
37.0254
34.2725
31.7034
29.3075
27.0748
24.9958
23.0613
21.2625
19.5911
18.0393
16.5995
15.2646
14.0279
12.883
11.8237
10.8445
9.93988
9.1048
8.33445
7.62432
6.97017
6.36802
5.81412
5.30497
4.83728
4.40799
4.01421
3.65326
3.32263
3.01999
2.74317
2.49012
2.25898
2.04799
1.85553
1.68008
1.52026
1.37477
1.24242
1.12209
1.01277
0.913518
0.823465
0.741809
0.667815
0.600805
0.540158
0.4853
0.435708
0.3909
0.350434
0.313908
0.28095
0.251223
0.224416
0.200247
0.178456
0.158807
0.141084
0.125087
0.110636
0.0975649
0.0857212
0.0749648
0.0651667
0.0562078
0.0479775
0.040373
0.0332979
0.0266617
0.0203781
0.014365
0.00854314
0.0028351
217.903
205.193
193.096
181.592
170.661
160.282
150.434
141.098
132.255
123.883
115.965
108.482
101.414
94.7443
88.4548
82.5284
76.9483
71.6982
66.7622
62.125
57.7718
53.6882
49.8604
46.275
42.9192
39.7804
36.8469
34.1073
31.5505
29.1662
26.9443
24.8753
22.9501
21.16
19.4967
17.9523
16.5195
15.191
13.9603
12.8208
11.7667
10.7922
9.89196
9.06091
8.29427
7.58756
6.93657
6.33732
5.78609
5.2794
4.81396
4.38674
3.99486
3.63565
3.30661
3.00543
2.72994
2.47812
2.24809
2.03812
1.84658
1.67199
1.51294
1.36815
1.23643
1.11668
1.00789
0.909115
0.819495
0.738233
0.664596
0.597909
0.537554
0.482961
0.433608
0.389016
0.348745
0.312395
0.279596
0.250012
0.223335
0.199282
0.177596
0.158042
0.140404
0.124484
0.110103
0.0970948
0.0853081
0.0746036
0.0648527
0.055937
0.0477463
0.0401785
0.0331375
0.0265332
0.0202799
0.0142958
0.00850197
0.00282144
216.793
204.148
192.113
180.668
169.792
159.466
149.668
140.38
131.581
123.253
115.375
107.929
100.898
94.2619
88.0045
82.1083
76.5566
71.3332
66.4223
61.8087
57.4777
53.4149
49.6066
46.0394
42.7007
39.5779
36.6594
33.9336
31.3899
29.0177
26.8071
24.7487
22.8333
21.0523
19.3974
17.8609
16.4354
15.1137
13.8892
12.7556
11.7068
10.7373
9.84161
9.01478
8.25204
7.54894
6.90125
6.30505
5.75663
5.25252
4.78946
4.36441
3.97452
3.61714
3.28978
2.99013
2.71604
2.4655
2.23665
2.02774
1.83718
1.66347
1.50523
1.36118
1.23013
1.111
1.00276
0.904488
0.815324
0.734476
0.661213
0.594866
0.534818
0.480503
0.431401
0.387036
0.34697
0.310805
0.278173
0.24874
0.222198
0.198268
0.176693
0.157238
0.139689
0.123851
0.109543
0.0966007
0.084874
0.074224
0.0645227
0.0556523
0.0475034
0.039974
0.0329689
0.0263982
0.0201767
0.0142231
0.00845871
0.00280709
215.631
203.053
191.083
179.699
168.882
158.61
148.866
139.627
130.876
122.591
114.756
107.35
100.357
93.7563
87.5325
81.6679
76.1459
70.9505
66.066
61.4772
57.1694
53.1284
49.3405
45.7925
42.4716
39.3656
36.4627
33.7516
31.2215
28.8621
26.6634
24.6159
22.7108
20.9393
19.2934
17.7651
16.3472
15.0326
13.8147
12.6872
11.644
10.6797
9.78882
8.96643
8.20778
7.50845
6.86424
6.27124
5.72576
5.22435
4.76377
4.341
3.9532
3.59774
3.27214
2.9741
2.70148
2.45228
2.22465
2.01687
1.82733
1.65455
1.49716
1.35388
1.22354
1.10504
0.997381
0.899637
0.810951
0.730537
0.657667
0.591676
0.53195
0.477926
0.429087
0.38496
0.34511
0.309138
0.276682
0.247406
0.221007
0.197205
0.175745
0.156395
0.13894
0.123186
0.108955
0.0960827
0.084419
0.073826
0.0641768
0.055354
0.0472487
0.0397597
0.0327921
0.0262567
0.0200686
0.0141468
0.00841337
0.00279204
214.415
201.908
190.005
178.686
167.929
157.716
148.026
138.84
130.137
121.9
114.109
106.745
99.7906
93.2276
87.0388
81.2073
75.7165
70.5504
65.6934
61.1305
56.847
52.8288
49.0623
45.5343
42.2321
39.1436
36.2571
33.5613
31.0455
28.6993
26.513
24.4771
22.5827
20.8213
19.1846
17.665
16.255
14.9479
13.7368
12.6156
11.5784
10.6195
9.73362
8.91586
8.1615
7.4661
6.82553
6.23587
5.69347
5.19489
4.73691
4.31652
3.93091
3.57745
3.25368
2.95733
2.68624
2.43845
2.21211
2.0055
1.81703
1.64522
1.48872
1.34625
1.21664
1.09881
0.991757
0.894564
0.806379
0.726417
0.653959
0.58834
0.528951
0.475231
0.426668
0.38279
0.343164
0.307395
0.275122
0.246011
0.219761
0.196093
0.174754
0.155513
0.138157
0.122492
0.108341
0.0955411
0.0839431
0.0734098
0.063815
0.0550419
0.0469824
0.0395356
0.0326073
0.0261087
0.0199554
0.0140671
0.00836594
0.0027763
213.146
200.713
188.881
177.628
166.935
156.783
147.15
138.018
129.367
121.179
113.434
106.113
99.2
92.6759
86.5237
80.7267
75.2684
70.1329
65.3047
60.7687
56.5105
52.5161
48.7719
45.2648
41.9822
38.912
36.0425
33.3627
30.8617
28.5295
26.3561
24.3323
22.4491
20.698
19.071
17.5604
16.1588
14.8594
13.6555
12.5409
11.5098
10.5566
9.67601
8.8631
8.1132
7.42192
6.78514
6.19897
5.65977
5.16414
4.70887
4.29097
3.90765
3.55628
3.23443
2.93983
2.67035
2.42402
2.19902
1.99363
1.80627
1.63549
1.47991
1.33828
1.20944
1.0923
0.985888
0.889271
0.801607
0.722119
0.650089
0.584858
0.525821
0.472419
0.424143
0.380525
0.341133
0.305577
0.273494
0.244556
0.218461
0.194933
0.17372
0.154593
0.137339
0.121767
0.1077
0.0949758
0.0834465
0.0729755
0.0634375
0.0547163
0.0467044
0.0393017
0.0324144
0.0259542
0.0198374
0.0139839
0.00831645
0.00275988
211.824
199.469
187.71
176.527
165.9
155.811
146.238
137.162
128.565
120.427
112.73
105.455
98.5849
92.1013
85.9873
80.2262
74.8017
69.6981
64.8998
60.3919
56.1602
52.1905
48.4695
44.9841
41.7219
38.6707
35.819
33.1558
30.6704
28.3526
26.1927
24.1814
22.3099
20.5697
18.9528
17.4515
16.0587
14.7673
13.5708
12.4632
11.4385
10.4912
9.61602
8.80814
8.06289
7.3759
6.74307
6.16053
5.62468
5.13213
4.67968
4.26437
3.88342
3.53423
3.21438
2.9216
2.65379
2.40899
2.18538
1.98127
1.79508
1.62535
1.47073
1.32998
1.20194
1.08553
0.979776
0.883758
0.796638
0.717642
0.646059
0.581233
0.522561
0.469491
0.421514
0.378166
0.339019
0.303682
0.271799
0.24304
0.217106
0.193725
0.172644
0.153635
0.136488
0.121013
0.107032
0.0943872
0.0829293
0.0725232
0.0630443
0.0543772
0.046415
0.0390581
0.0322135
0.0257933
0.0197144
0.0138972
0.00826491
0.00274277
210.45
198.175
186.492
175.382
164.824
154.8
145.289
136.273
127.731
119.646
111.999
104.771
97.9456
91.5039
85.4296
79.7059
74.3166
69.246
64.4789
60.0003
55.7959
51.852
48.1552
44.6924
41.4513
38.4199
35.5867
32.9408
30.4715
28.1687
26.0228
24.0246
22.1652
20.4363
18.8299
17.3384
15.9545
14.6715
13.4828
12.3824
11.3643
10.4231
9.55366
8.75102
8.0106
7.32807
6.69934
6.12058
5.58821
5.09884
4.64933
4.23671
3.85824
3.51131
3.19353
2.90265
2.63658
2.39337
2.17121
1.96842
1.78343
1.61481
1.4612
1.32136
1.19415
1.07849
0.973422
0.878027
0.791472
0.712989
0.64187
0.577464
0.519173
0.466446
0.418781
0.375714
0.336821
0.301713
0.270036
0.241464
0.215699
0.192468
0.171524
0.152639
0.135603
0.120228
0.106339
0.0937752
0.0823916
0.072053
0.0626356
0.0540246
0.046114
0.0388049
0.0320047
0.0256261
0.0195866
0.0138071
0.00821133
0.00272499
209.025
196.833
185.229
174.194
163.708
153.751
144.305
135.35
126.866
118.836
111.24
104.062
97.282
90.884
84.8508
79.1659
73.8132
68.7769
64.042
59.5938
55.4179
51.5008
47.8289
44.3896
41.1705
38.1596
35.3457
32.7176
30.265
27.9779
25.8465
23.8618
22.015
20.2978
18.7023
17.2209
15.8464
14.5721
13.3915
12.2985
11.2873
10.3525
9.48894
8.69174
7.95634
7.27842
6.65395
6.07912
5.55035
5.0643
4.61783
4.20801
3.8321
3.48752
3.1719
2.88299
2.61872
2.37716
2.1565
1.95509
1.77135
1.60387
1.4513
1.31241
1.18606
1.07119
0.966829
0.872079
0.786111
0.708159
0.637522
0.573552
0.515656
0.463287
0.415944
0.373169
0.334539
0.29967
0.268207
0.239828
0.214238
0.191165
0.170362
0.151605
0.134685
0.119414
0.105618
0.0931401
0.0818336
0.0715651
0.0622114
0.0536588
0.0458017
0.0385421
0.0317879
0.0254526
0.019454
0.0137136
0.00815572
0.00270654
207.547
195.441
183.92
172.963
162.551
152.665
143.285
134.393
125.969
117.996
110.454
103.326
96.5945
90.2417
84.2512
78.6064
73.2915
68.2908
63.5894
59.1726
55.0263
51.1368
47.4909
44.0759
40.8795
37.8899
35.0958
32.4864
30.0511
27.7801
25.6638
23.6932
21.8594
20.1544
18.5701
17.0992
15.7344
14.4691
13.2968
12.2116
11.2075
10.2793
9.42187
8.63031
7.90011
7.22698
6.60693
6.03616
5.51112
5.02851
4.5852
4.17827
3.80502
3.46288
3.14948
2.86261
2.60021
2.36036
2.14126
1.94127
1.75884
1.59253
1.44104
1.30313
1.17767
1.06362
0.959996
0.865916
0.780555
0.703155
0.633017
0.569499
0.512012
0.460013
0.413005
0.370532
0.332175
0.297552
0.266312
0.238134
0.212724
0.189814
0.169159
0.150534
0.133733
0.11857
0.104872
0.092482
0.0812554
0.0710594
0.0617718
0.0532796
0.0454781
0.0382698
0.0315633
0.0252728
0.0193165
0.0136167
0.0080981
0.00268741
206.019
194.002
182.565
171.689
161.354
151.54
142.23
133.403
125.042
117.127
109.641
102.565
95.8831
89.5771
83.6307
78.0275
72.7517
67.7879
63.1211
58.7368
54.621
50.7602
47.1411
43.7513
40.5784
37.6109
34.8374
32.2471
29.8298
27.5755
25.4748
23.5187
21.6985
20.006
18.4334
16.9733
15.6186
14.3626
13.1989
12.1216
11.125
10.2036
9.35249
8.56675
7.84193
7.17376
6.55827
5.9917
5.47054
4.99148
4.55143
4.1475
3.77699
3.43738
3.12629
2.84153
2.58107
2.34298
2.12549
1.92697
1.74588
1.58081
1.43043
1.29354
1.169
1.05579
0.952927
0.85954
0.774808
0.697977
0.628356
0.565306
0.508242
0.456626
0.409964
0.367803
0.329729
0.295361
0.264351
0.23638
0.211158
0.188416
0.167913
0.149425
0.132749
0.117697
0.1041
0.0918011
0.0806571
0.0705362
0.061317
0.0528874
0.0451433
0.0379881
0.031331
0.0250867
0.0191743
0.0135165
0.00803848
0.00266763
204.44
192.515
181.166
170.373
160.117
150.379
141.14
132.381
124.083
116.229
108.8
101.779
95.1481
88.8904
82.9896
77.4293
72.194
67.2683
62.6372
58.2866
54.2023
50.371
46.7798
43.4159
40.2674
37.3226
34.5703
31.9999
29.6011
27.3641
25.2795
23.3384
21.5321
19.8526
18.2921
16.8431
15.4988
14.2525
13.0977
12.0287
11.0397
10.1254
9.28079
8.50108
7.78181
7.11877
6.508
5.94577
5.4286
4.95321
4.51654
4.11571
3.74804
3.41103
3.10232
2.81975
2.56128
2.32502
2.1092
1.9122
1.7325
1.56869
1.41947
1.28362
1.16004
1.04769
0.945623
0.852951
0.768869
0.692627
0.623539
0.560973
0.504346
0.453126
0.406822
0.364984
0.327202
0.293097
0.262325
0.234569
0.209539
0.186972
0.166626
0.14828
0.131731
0.116795
0.103302
0.0910975
0.080039
0.0699957
0.0608471
0.0524821
0.0447974
0.0376969
0.0310908
0.0248944
0.0190274
0.0134129
0.00797688
0.00264719
202.81
190.98
179.721
169.015
158.84
149.18
140.014
131.325
123.094
115.302
107.933
100.968
94.3896
88.1818
82.328
76.8121
71.6185
66.732
62.1379
57.8219
53.7702
49.9695
46.4068
43.0698
39.9464
37.025
34.2947
31.7448
29.3652
27.146
25.078
23.1523
21.3605
19.6943
18.1462
16.7089
15.3753
14.1388
12.9933
11.9328
10.9517
10.0447
9.20681
8.43331
7.71978
7.06202
6.45612
5.89837
5.38533
4.91373
4.48054
4.0829
3.71816
3.38383
3.07759
2.79727
2.54086
2.30648
2.09239
1.89696
1.71869
1.55618
1.40815
1.27339
1.15079
1.03934
0.938085
0.846152
0.76274
0.687106
0.618569
0.556501
0.500326
0.449514
0.403579
0.362075
0.324594
0.290761
0.260234
0.232699
0.207869
0.185482
0.165298
0.147098
0.130681
0.115864
0.102479
0.0903715
0.0794011
0.0694378
0.0603622
0.0520638
0.0444403
0.0373965
0.0308431
0.024696
0.0188757
0.013306
0.00791331
0.00262609
201.13
189.398
178.233
167.615
157.525
147.944
138.855
130.238
122.074
114.347
107.039
100.131
93.6078
87.4514
81.6461
76.1759
71.0253
66.1793
61.6232
57.343
53.3249
49.5556
46.0225
42.7131
39.6155
36.7184
34.0107
31.4819
29.1219
26.9212
24.8703
22.9606
21.1836
19.5312
17.9959
16.5705
15.2479
14.0217
12.8857
11.834
10.861
9.96151
9.13055
8.36346
7.65584
7.00353
6.40265
5.84952
5.34072
4.87303
4.44343
4.04909
3.68737
3.35581
3.0521
2.77411
2.51982
2.28738
2.07506
1.88125
1.70446
1.5433
1.39649
1.26284
1.14126
1.03073
0.930316
0.839145
0.756423
0.681416
0.613446
0.551892
0.496182
0.445791
0.400237
0.359077
0.321906
0.288353
0.258079
0.230772
0.206148
0.183946
0.163929
0.14588
0.129599
0.114905
0.10163
0.0896231
0.0787436
0.0688628
0.0598623
0.0516327
0.0440723
0.0370868
0.0305877
0.0244915
0.0187194
0.0131958
0.00784778
0.00260434
199.401
187.77
176.7
166.173
156.17
146.672
137.661
129.118
121.025
113.364
106.119
99.2704
92.8029
86.6995
80.9441
75.5209
70.4146
65.6102
61.0934
56.8499
52.8663
49.1295
45.6267
42.3458
39.2749
36.4026
33.7182
31.2112
28.8715
26.6897
24.6565
22.7631
21.0014
19.3633
17.8412
16.428
15.1168
13.9012
12.7749
11.7322
10.7676
9.87585
9.05204
8.29155
7.59001
6.94331
6.34759
5.79923
5.2948
4.83113
4.40522
4.01427
3.65566
3.32695
3.02586
2.75025
2.49815
2.26771
2.05722
1.86507
1.6898
1.53003
1.38448
1.25199
1.13145
1.02187
0.922317
0.83193
0.749919
0.675557
0.608172
0.547147
0.491916
0.441959
0.396796
0.355989
0.319138
0.285874
0.25586
0.228788
0.204375
0.182365
0.16252
0.144626
0.128485
0.113917
0.100756
0.0888527
0.0780666
0.0682708
0.0593477
0.0511888
0.0436935
0.036768
0.0303247
0.024281
0.0185585
0.0130824
0.00778032
0.00258196
197.622
186.095
175.124
164.691
154.777
145.364
136.433
127.966
119.945
112.353
105.172
98.3849
91.9751
85.9261
80.222
74.8472
69.7865
65.025
60.5484
56.3428
52.3948
48.6913
45.2197
41.9681
38.9245
36.0779
33.4175
30.9328
28.614
26.4516
24.4365
22.5601
20.8141
19.1906
17.6821
16.2815
14.982
13.7772
12.661
11.6276
10.6716
9.78776
8.9713
8.21759
7.52231
6.88138
6.29097
5.7475
5.24758
4.78804
4.36593
3.97847
3.62306
3.29728
2.99887
2.72572
2.47587
2.24749
2.03887
1.84844
1.67473
1.51638
1.37213
1.24082
1.12136
1.01276
0.914091
0.82451
0.743231
0.669532
0.602748
0.542267
0.487529
0.438017
0.393257
0.352814
0.316292
0.283325
0.253578
0.226747
0.202553
0.180738
0.161071
0.143336
0.127339
0.112901
0.0998579
0.0880603
0.0773704
0.067662
0.0588185
0.0507323
0.0433038
0.0364401
0.0300543
0.0240645
0.018393
0.0129657
0.00771094
0.00255893
195.795
184.374
173.505
163.168
153.346
144.02
135.171
126.783
118.836
111.314
104.199
97.4751
91.1246
85.1316
79.4802
74.1551
69.1412
64.4237
59.9885
55.8218
51.9103
48.241
44.8016
41.58
38.5646
35.7443
33.1085
30.6468
28.3494
26.207
24.2106
22.3515
20.6216
19.0131
17.5186
16.1309
14.8434
13.6498
12.5439
11.5201
10.5729
9.69726
8.88835
8.14161
7.45275
6.81775
6.2328
5.69435
5.19905
4.74377
4.32556
3.94168
3.58956
3.26679
2.97114
2.70052
2.45298
2.2267
2.02002
1.83135
1.65924
1.50236
1.35944
1.22935
1.11099
1.00339
0.905639
0.816886
0.736359
0.663341
0.597174
0.537253
0.483021
0.433967
0.389621
0.349552
0.313368
0.280705
0.251234