/*--------------------------------*- C++ -*----------------------------------*\
| =========                 |                                                 |
| \\      /  F ield         | OpenFOAM: The Open Source CFD Toolbox           |
|  \\    /   O peration     | Version:  2406                                  |
|   \\  /    A nd           | Website:  www.openfoam.com                      |
|    \\/     M anipulation  |                                                 |
\*---------------------------------------------------------------------------*/
FoamFile
{
    version     2.0;
    format      ascii;
    arch        "LSB;label=32;scalar=64";
    class       volScalarField;
    location    "140";
    object      gradTy;
}
// * * * * * * * * * * * * * * * * * * * * * * * * * * * * * * * * * * * * * //

dimensions      [0 -1 0 1 0 0 0];

internalField   nonuniform List<scalar> 
20000
(
-99.4107
-85.1971
-71.6919
-58.8763
-46.7336
-35.2453
-24.3938
-14.1599
-4.52428
4.53002
13.0225
20.9727
28.3989
35.3193
41.7522
47.7161
53.2295
58.3101
62.9753
67.2423
71.1282
74.6495
77.8228
80.6641
83.189
85.4127
87.3502
89.0159
90.4238
91.5876
92.5206
93.2356
93.745
94.0608
94.1947
94.1579
93.9611
93.6148
93.1289
92.513
91.7763
90.9277
89.9755
88.9279
87.7925
86.5766
85.2873
83.9312
82.5147
81.0436
79.5237
77.9603
76.3584
74.7229
73.0582
71.3686
69.6578
67.9297
66.1877
64.4349
62.6743
60.9087
59.1405
57.372
55.6055
53.8427
52.0855
50.3354
48.5938
46.8619
45.1408
43.4314
41.7346
40.0509
38.3809
36.7251
35.0836
33.4568
31.8446
30.247
28.6641
27.0954
25.5409
24.0001
22.4726
20.9579
19.4555
17.9648
16.4851
15.0157
13.5558
12.1047
10.6616
9.22546
7.79555
6.37091
4.95062
3.53372
2.11926
0.706256
-99.3863
-85.1757
-71.6738
-58.8617
-46.7222
-35.2369
-24.3874
-14.1561
-4.52358
4.52867
13.0195
20.9677
28.3919
35.3104
41.7417
47.7044
53.2164
58.2958
62.9598
67.2257
71.1106
74.6311
77.8036
80.6442
83.1684
85.3917
87.3287
88.9939
90.4015
91.5651
92.4978
93.2126
93.7219
94.0376
94.1715
94.1347
93.9379
93.5917
93.1059
92.4901
91.7537
90.9052
89.9533
88.9059
87.7708
86.5553
85.2663
83.9105
82.4943
81.0236
79.5041
77.941
76.3396
74.7045
73.0402
71.351
69.6406
67.913
66.1714
64.419
62.6588
60.8936
59.1259
57.3579
55.5918
53.8295
52.0727
50.323
48.5818
46.8503
45.1297
43.4207
41.7243
40.041
38.3715
36.716
35.075
33.4485
31.8367
30.2396
28.657
27.0888
25.5346
23.9942
22.4671
20.9528
19.4507
17.9604
16.481
15.012
13.5525
12.1017
10.6589
9.22319
7.79363
6.36934
4.9494
3.53285
2.11873
0.706082
-99.3376
-85.1339
-71.6382
-58.8326
-46.6989
-35.2195
-24.3755
-14.1492
-4.52143
4.52647
13.0132
20.9575
28.3778
35.2929
41.7211
47.6809
53.1903
58.267
62.9287
67.1925
71.0754
74.5942
77.7652
80.6044
83.1274
85.3495
87.2856
88.95
90.3569
91.5199
92.4522
93.1666
93.6756
93.9912
94.125
94.0882
93.8916
93.5455
93.0599
92.4445
91.7084
90.8604
89.9089
88.862
87.7275
86.5125
85.2242
83.8691
82.4536
80.9836
79.4648
77.9026
76.3019
74.6676
73.0042
71.3157
69.6063
67.8795
66.1387
64.3872
62.6279
60.8636
59.0967
57.3296
55.5643
53.8029
52.047
50.2982
48.5578
46.8272
45.1074
43.3993
41.7037
40.0213
38.3525
36.6979
35.0577
33.432
31.821
30.2247
28.6428
27.0754
25.522
23.9823
22.456
20.9424
19.4411
17.9515
16.4729
15.0046
13.5458
12.0958
10.6537
9.21863
7.78978
6.3662
4.94696
3.53111
2.11769
0.705733
-99.264
-85.0716
-71.5853
-58.789
-46.6642
-35.1933
-24.3576
-14.1388
-4.518
4.52322
13.0036
20.9419
28.3567
35.2667
41.6902
47.6456
53.1509
58.2239
62.8821
67.1427
71.0228
74.5389
77.7076
80.5447
83.0658
85.2863
87.221
88.8842
90.29
91.4521
92.3837
93.0976
93.6062
93.9216
94.0553
94.0185
93.822
93.4762
92.991
92.376
91.6405
90.7931
89.8423
88.7962
87.6625
86.4485
85.1611
83.807
82.3925
80.9236
79.406
77.8449
76.2454
74.6123
72.9501
71.2629
69.5547
67.8292
66.0897
64.3395
62.5815
60.8185
59.0529
57.2871
55.5232
53.7631
52.0084
50.2609
48.5219
46.7925
45.074
43.3672
41.6728
39.9916
38.3241
36.6707
35.0317
33.4072
31.7974
30.2023
28.6216
27.0553
25.5031
23.9646
22.4393
20.9269
19.4267
17.9382
16.4607
14.9935
13.5358
12.0868
10.6458
9.21181
7.78401
6.36148
4.94329
3.52849
2.11612
0.705211
-99.1653
-84.9875
-71.5147
-58.731
-46.6183
-35.1586
-24.3335
-14.1247
-4.51348
4.51876
12.9907
20.9211
28.3287
35.2319
41.6491
47.5986
53.0984
58.1664
62.82
67.0764
70.9526
74.4653
77.6308
80.4651
82.9838
85.2021
87.1348
88.7964
90.2008
91.3618
92.2924
93.0056
93.5138
93.8288
93.9624
93.9257
93.7294
93.3839
92.8992
92.2848
91.5499
90.7034
89.7536
88.7085
87.5759
86.3631
85.077
83.7242
82.3112
80.8437
79.3275
77.768
76.1701
74.5386
72.8781
71.1925
69.486
67.7622
66.0244
64.276
62.5197
60.7584
58.9946
57.2305
55.4683
53.7099
51.9571
50.2113
48.474
46.7463
45.0295
43.3243
41.6316
39.9521
38.2863
36.6345
34.9971
33.3742
31.766
30.1724
28.5934
27.0286
25.4779
23.9409
22.4172
20.9062
19.4076
17.9205
16.4444
14.9787
13.5224
12.0749
10.6353
9.20271
7.77632
6.3552
4.93841
3.52501
2.11403
0.704514
-99.0425
-84.8822
-71.4264
-58.6585
-46.5607
-35.1151
-24.3034
-14.1072
-4.50788
4.51316
12.9746
20.8953
28.2937
35.1883
41.5976
47.5398
53.0329
58.0945
62.7423
66.9935
70.8649
74.3733
77.5349
80.3657
82.8813
85.0968
87.0272
88.6867
90.0894
91.2489
92.1784
92.8907
93.3982
93.7129
93.8463
93.8096
93.6136
93.2685
92.7844
92.1708
91.4368
90.5913
89.6427
88.5989
87.4677
86.2564
84.9719
83.6208
82.2095
80.7438
79.2295
77.6719
76.076
74.4465
72.788
71.1046
69.4002
67.6785
65.9429
64.1966
62.4425
60.6834
58.9217
57.1598
55.3998
53.6436
51.8929
50.1492
48.4141
46.6886
44.9738
43.2708
41.5802
39.9028
38.239
36.5892
34.9539
33.333
31.7268
30.1352
28.558
26.9952
25.4464
23.9113
22.3895
20.8804
19.3836
17.8984
16.4241
14.9602
13.5057
12.06
10.6221
9.19134
7.76672
6.34735
4.93231
3.52065
2.11142
0.703644
-98.8958
-84.7561
-71.3204
-58.5714
-46.4916
-35.063
-24.2673
-14.0863
-4.50121
4.50643
12.9553
20.8643
28.2517
35.1362
41.5359
47.4693
52.9542
58.0083
62.6492
66.894
70.7597
74.2629
77.4198
80.2465
82.7583
84.9706
86.8981
88.5551
89.9557
91.1135
92.0417
92.7529
93.2597
93.5739
93.7071
93.6704
93.4747
93.1301
92.6467
92.034
91.3012
90.4569
89.5097
88.4675
87.3379
86.1284
84.8458
83.4967
82.0875
80.624
79.112
77.5567
75.9631
74.3361
72.68
70.9991
69.2972
67.578
65.845
64.1013
62.3498
60.5933
58.8343
57.075
55.3176
53.564
51.8159
50.0748
48.3422
46.6193
44.9071
43.2066
41.5185
39.8436
38.1822
36.5349
34.902
33.2835
31.6797
30.0904
28.5157
26.9552
25.4087
23.8758
22.3563
20.8494
19.3548
17.8718
16.3998
14.938
13.4857
12.0421
10.6064
9.1777
7.75519
6.33793
4.92499
3.51543
2.10828
0.702599
-98.7246
-84.6093
-71.1968
-58.4699
-46.4111
-35.0022
-24.2253
-14.0619
-4.49344
4.4986
12.9329
20.8281
28.2028
35.0753
41.464
47.387
52.8624
57.9078
62.5406
66.7781
70.6371
74.1342
77.2857
80.1074
82.6149
84.8234
86.7475
88.4017
89.7999
90.9556
91.8822
92.5922
93.0981
93.4117
93.5447
93.5081
93.3127
92.9688
92.4862
91.8746
91.143
90.3002
89.3546
88.3142
87.1866
85.9792
84.6988
83.352
81.9452
80.4843
78.9749
77.4223
75.8315
74.2073
72.5541
70.8761
69.1771
67.461
65.7309
63.9902
62.2418
60.4883
58.7323
56.9761
55.2218
53.4712
51.7261
49.9881
48.2585
46.5385
44.8293
43.1317
41.4466
39.7745
38.1161
36.4716
34.8415
33.2259
31.6248
30.0383
28.4662
26.9085
25.3646
23.8345
22.3175
20.8133
19.3213
17.8408
16.3713
14.9121
13.4623
12.0212
10.588
9.1618
7.74175
6.32695
4.91646
3.50933
2.10463
0.701382
-98.529
-84.4416
-71.0557
-58.354
-46.319
-34.9328
-24.1773
-14.0341
-4.48455
4.48968
12.9073
20.7868
28.1469
35.0058
41.3818
47.2931
52.7576
57.793
62.4166
66.6457
70.4971
73.9873
77.1325
79.9486
82.4512
84.6552
86.5755
88.2264
89.6219
90.7753
91.7
92.4086
92.9135
93.2266
93.3593
93.3228
93.1277
92.7844
92.3028
91.6924
90.9623
90.1212
89.1774
88.1391
87.0138
85.8087
84.5309
83.1868
81.7828
80.3248
78.8183
77.2688
75.6812
74.0602
72.4102
70.7355
69.04
67.3272
65.6006
63.8634
62.1184
60.3684
58.6159
56.8632
55.1123
53.3652
51.6236
49.889
48.1628
46.4463
44.7404
43.0462
41.3644
39.6957
38.0405
36.3993
34.7724
33.16
31.5621
29.9788
28.4098
26.8551
25.3144
23.7872
22.2733
20.772
19.283
17.8055
16.3389
14.8825
13.4356
11.9974
10.567
9.14363
7.72641
6.31441
4.90671
3.50238
2.10046
0.699992
-98.309
-84.253
-70.897
-58.2237
-46.2156
-34.8548
-24.1233
-14.0027
-4.47454
4.47965
12.8784
20.7404
28.084
34.9276
41.2894
47.1875
52.6398
57.6639
62.2772
66.4969
70.3396
73.822
76.9602
79.7701
82.267
84.4662
86.3822
88.0294
89.4217
90.5726
91.4953
92.2023
92.706
93.0184
93.1508
93.1144
92.9198
92.5772
92.0967
91.4877
90.7591
89.9199
88.9783
87.9423
86.8194
85.6171
84.3421
83.001
81.6002
80.1454
78.6423
77.0962
75.5122
73.8948
72.2485
70.5776
68.8858
67.1769
65.4541
63.7208
61.9797
60.2336
58.485
56.7362
54.9892
53.246
51.5083
49.7776
48.0552
46.3425
44.6405
42.9501
41.272
39.607
37.9556
36.318
34.6948
33.086
31.4916
29.9118
28.3464
26.7951
25.2578
23.7341
22.2235
20.7257
19.2399
17.7657
16.3024
14.8493
13.4056
11.9706
10.5434
9.12322
7.70915
6.3003
4.89575
3.49456
2.09577
0.698428
-98.0647
-84.0436
-70.7208
-58.079
-46.1008
-34.7683
-24.0634
-13.9679
-4.46342
4.46853
12.8465
20.6889
28.0143
34.8408
41.1868
47.0702
52.509
57.5206
62.1225
66.3316
70.1649
73.6386
76.769
79.5719
82.0626
84.2563
86.1676
87.8107
89.1995
90.3476
91.2679
91.9732
92.4757
92.7872
92.9193
92.883
92.6889
92.3472
91.8679
91.2603
90.5336
89.6965
88.7572
87.7237
86.6037
85.4043
84.1325
82.7948
81.3974
79.9462
78.4469
76.9047
75.3245
73.7112
72.069
70.4022
68.7146
67.0099
65.2915
63.5624
61.8257
60.0839
58.3397
56.5952
54.8526
53.1137
51.3803
49.6539
47.9358
46.2274
44.5296
42.8434
41.1695
39.5086
37.8612
36.2278
34.6086
33.0037
31.4134
29.8375
28.2759
26.7286
25.1951
23.6751
22.1683
20.6742
19.1921
17.7216
16.2619
14.8124
13.3723
11.9408
10.5172
9.10055
7.69
6.28465
4.88359
3.48587
2.09056
0.696693
-97.7962
-83.8135
-70.5272
-57.92
-45.9746
-34.6731
-23.9975
-13.9297
-4.45119
4.45631
12.8113
20.6323
27.9376
34.7454
41.074
46.9413
52.3652
57.3631
61.9524
66.15
69.9728
73.437
76.5588
79.354
81.838
84.0256
85.9317
87.5703
88.9553
90.1002
91.018
91.7214
92.2225
92.5332
92.6649
92.6287
92.4351
92.0944
91.6164
91.0105
90.2858
89.4509
88.5142
87.4836
86.3666
85.1705
83.9022
82.5681
81.1745
79.7274
78.2321
76.6941
75.1183
73.5094
71.8717
70.2095
68.5265
66.8265
65.1127
63.3884
61.6564
59.9194
58.18
56.4402
54.7024
52.9683
51.2396
49.5179
47.8046
46.1008
44.4077
42.7261
41.0568
39.4004
37.7576
36.1286
34.5138
32.9134
31.3274
29.7558
28.1985
26.6554
25.1261
23.6103
22.1076
20.6176
19.1396
17.673
16.2174
14.7718
13.3357
11.9081
10.4884
9.07563
7.66894
6.26744
4.87022
3.47633
2.08484
0.694785
-97.5036
-83.5628
-70.3162
-57.7467
-45.837
-34.5693
-23.9257
-13.888
-4.43786
4.44299
12.773
20.5705
27.854
34.6415
40.9511
46.8009
52.2085
57.1915
61.767
65.9521
69.7634
73.2173
76.3298
79.1166
81.5931
83.7742
85.6746
87.3083
88.6892
89.8306
90.7457
91.447
91.9466
92.2563
92.3877
92.3515
92.1585
91.8188
91.3422
90.7382
90.0156
89.1833
88.2494
87.2218
86.1082
84.9157
83.6511
82.3211
80.9317
79.4888
77.9981
76.4646
74.8935
73.2894
71.6567
69.9994
68.3215
66.6265
64.9179
63.1987
61.4719
59.7401
58.0059
56.2714
54.5387
52.8098
51.0863
49.3698
47.6616
45.9629
44.2748
42.5982
40.9339
39.2825
37.6446
36.0205
34.4106
32.8149
31.2336
29.6668
28.1141
26.5756
25.0509
23.5397
22.0415
20.5559
19.0823
17.6202
16.1688
14.7276
13.2958
11.8725
10.457
9.04847
7.646
6.24869
4.85564
3.46593
2.0786
0.692707
-97.1869
-83.2914
-70.0878
-57.5592
-45.6881
-34.4571
-23.848
-13.8429
-4.42344
4.42856
12.7315
20.5037
27.7635
34.529
40.8181
46.6489
52.0389
57.0057
61.5664
65.7379
69.5368
72.9795
76.0819
78.8597
81.3281
83.5022
85.3963
87.0247
88.4011
89.5389
90.451
91.15
91.6479
91.9567
92.0876
92.0516
91.8592
91.5206
91.0456
90.4435
89.7233
88.8936
87.9628
86.9385
85.8285
84.6399
83.3795
82.0537
80.6688
79.2307
77.7447
76.2163
74.6503
73.0514
71.4239
69.772
68.0996
66.4101
64.7071
62.9935
61.2723
59.5461
57.8175
56.0886
54.3616
52.6383
50.9204
49.2094
47.5068
45.8136
44.131
42.4599
40.801
39.155
37.5223
35.9035
34.2988
32.7083
31.1322
29.5704
28.0228
26.4893
24.9695
23.4632
21.9699
20.4891
19.0203
17.5629
16.1163
14.6798
13.2526
11.8339
10.4231
9.01909
7.62116
6.2284
4.83987
3.45467
2.07185
0.690457
-96.8463
-82.9995
-69.8422
-57.3574
-45.528
-34.3363
-23.7644
-13.7944
-4.40793
4.41304
12.6869
20.4319
27.6662
34.4079
40.675
46.4853
51.8565
56.8059
61.3506
65.5075
69.2931
72.7237
75.8152
78.5833
81.0431
83.2095
85.097
86.7197
88.0913
89.2251
90.134
90.8305
91.3267
91.6344
91.7649
91.729
91.5373
91.1998
90.7265
90.1265
89.4088
88.582
87.6544
86.6338
85.5277
84.3432
83.0872
81.7661
80.3861
78.9529
77.4722
75.9492
74.3886
72.7953
71.1736
69.5275
67.8609
66.1774
64.4803
62.7727
61.0575
59.3374
57.6148
55.892
54.171
52.4538
50.7419
49.0369
47.3402
45.653
43.9763
42.311
40.658
39.0177
37.3908
35.7777
34.1786
32.5937
31.0231
29.4668
27.9246
26.3965
24.882
23.381
21.8929
20.4173
18.9537
17.5014
16.0598
14.6283
13.2061
11.7925
10.3865
8.98747
7.59445
6.20656
4.82291
3.44256
2.06459
0.688037
-96.4817
-82.687
-69.5793
-57.1415
-45.3566
-34.207
-23.6749
-13.7424
-4.39134
4.39643
12.6391
20.3549
27.562
34.2784
40.5219
46.3104
51.6613
56.5921
61.1197
65.2609
69.0323
72.45
75.5298
78.2875
80.738
82.8963
84.7767
86.3933
87.7597
88.8892
89.7947
90.4886
90.983
91.2895
91.4194
91.3837
91.1927
90.8566
90.385
89.7872
89.0722
88.2486
87.3245
86.3077
85.2058
84.0257
82.7745
81.4583
80.0835
78.6557
77.1806
75.6633
74.1086
72.5213
70.9057
69.2658
67.6055
65.9283
64.2375
62.5364
60.8277
59.1141
57.398
55.6816
53.9671
52.2563
50.5509
48.8524
47.162
45.4812
43.8108
42.1518
40.5049
38.8709
37.2501
35.643
34.0499
32.471
30.9063
29.3558
27.8195
26.2971
24.7884
23.293
21.8105
20.3404
18.8823
17.4355
15.9994
14.5733
13.1564
11.7481
10.3474
8.95364
7.56586
6.1832
4.80476
3.4296
2.05681
0.685447
-96.0934
-82.3542
-69.2992
-56.9115
-45.174
-34.0693
-23.5796
-13.6871
-4.37366
4.37873
12.5882
20.273
27.4511
34.1404
40.3588
46.124
51.4534
56.3643
60.8737
64.9983
68.7544
72.1583
75.2258
77.9724
80.413
82.5626
84.4355
86.0455
87.4065
88.5314
89.4333
90.1244
90.6167
90.922
91.0515
91.0159
90.8256
90.4909
90.0212
89.4258
88.7137
87.8934
86.973
85.9603
84.8628
83.6875
82.4413
81.1304
79.7611
78.3392
76.87
75.3587
73.8103
72.2294
70.6203
68.987
67.3333
65.6629
63.979
62.2847
60.5828
58.8761
57.1669
55.4575
53.7499
52.046
50.3474
48.6557
46.9722
45.2981
43.6344
41.9821
40.3419
38.7144
37.1001
35.4995
33.9129
32.3403
30.7819
29.2377
27.7075
26.1913
24.6886
23.1992
21.7227
20.2586
18.8063
17.3653
15.935
14.5146
13.1035
11.7008
10.3058
8.9176
7.53541
6.15831
4.78542
3.4158
2.04854
0.682688
-95.6813
-82.0011
-69.002
-56.6675
-44.9803
-33.9232
-23.4785
-13.6284
-4.35491
4.35994
12.5342
20.1861
27.3334
33.994
40.1857
45.9262
51.2327
56.1226
60.6127
64.7195
68.4596
71.8489
74.9033
77.638
80.0682
82.2086
84.0734
85.6766
87.0317
88.1518
89.0498
89.7379
90.2282
90.5322
90.661
90.6256
90.4362
90.1028
89.6351
89.0423
88.3333
87.5165
86.6001
85.5917
84.4989
83.3287
82.0878
80.7825
79.4191
78.0032
76.5403
75.0356
73.4938
71.9197
70.3174
68.6911
67.0446
65.3813
63.7046
62.0176
60.3231
58.6236
56.9218
55.2197
53.5194
51.8228
50.1315
48.4471
46.7708
45.1039
43.4473
41.8021
40.1689
38.5484
36.9411
35.3473
33.7674
32.2016
30.6499
29.1123
27.5887
26.0789
24.5827
23.0997
21.6295
20.1717
18.7257
17.2909
15.8667
14.4524
13.0473
11.6506
10.2616
8.87936
7.5031
6.13191
4.7649
3.40115
2.03975
0.67976
-95.2456
-81.6277
-68.6878
-56.4094
-44.7755
-33.7688
-23.3716
-13.5664
-4.33509
4.34008
12.4772
20.0941
27.2089
33.8392
40.0027
45.7171
50.9995
55.8671
60.3367
64.4249
68.1479
71.5218
74.5622
77.2845
79.7037
81.8343
83.6906
85.2865
86.6354
87.7504
88.6443
89.3293
89.8173
90.1199
90.2482
90.2129
90.0244
89.6926
89.227
88.6369
87.9311
87.118
86.2057
85.202
84.1142
82.9493
81.714
80.4147
79.0575
77.6481
76.1918
74.6939
73.1592
71.5922
69.9973
68.3784
66.7393
65.0836
63.4146
61.7352
60.0484
58.3567
56.6626
54.9683
53.2757
51.5868
49.9033
48.2265
46.5578
44.8985
43.2495
41.6117
39.986
38.3729
36.7729
35.1864
33.6137
32.055
30.5103
28.9797
27.4631
25.9602
24.4708
22.9945
21.531
20.0798
18.6404
17.2121
15.7944
14.3866
12.9879
11.5976
10.2149
8.83893
7.46893
6.10399
4.7432
3.38567
2.03046
0.676665
-94.7865
-81.2342
-68.3567
-56.1375
-44.5597
-33.606
-23.259
-13.501
-4.3142
4.31915
12.417
19.9973
27.0777
33.6761
39.8099
45.4967
50.7536
55.5977
60.0458
64.1143
67.8194
71.177
74.2028
76.9119
79.3194
81.4398
83.2871
84.8753
86.2177
87.3274
88.217
88.8987
89.3843
89.6855
89.8132
89.778
89.5904
89.2602
88.7968
88.2096
87.5072
86.698
85.7902
84.7912
83.7087
82.5494
81.3201
80.0271
78.6764
77.2737
75.8245
74.3338
72.8065
71.2471
69.6598
68.0487
66.4176
64.7699
63.1089
61.4376
59.7589
58.0754
56.3894
54.7033
53.0189
51.3382
49.6627
47.994
46.3334
44.682
43.041
41.4111
39.7932
38.1879
36.5956
35.0167
33.4516
31.9005
30.3633
28.84
27.3307
25.835
24.3528
22.8837
21.4272
19.983
18.5505
17.1292
15.7183
14.3172
12.9253
11.5417
10.1656
8.79632
7.43293
6.07456
4.72033
3.36934
2.02068
0.673403
-94.3039
-80.8206
-68.0087
-55.8517
-44.3328
-33.4349
-23.1406
-13.4323
-4.29224
4.29716
12.3538
19.8955
26.9399
33.5046
39.6072
45.265
50.4952
55.3147
59.7401
63.7879
67.4741
70.8146
73.825
76.5204
78.9156
81.0252
82.8631
84.4432
85.7788
86.8828
87.7679
88.4461
88.9293
89.2289
89.3559
89.321
89.1343
88.8057
88.3448
87.7605
87.0617
86.2567
85.3534
84.3596
83.2825
82.1291
80.9061
79.6196
78.2758
76.8803
75.4385
73.9554
72.4358
70.8844
69.3052
67.7023
66.0795
64.4401
62.7876
61.1248
59.4547
57.7797
56.1024
54.4248
52.749
51.0768
49.4099
47.7496
46.0975
44.4546
42.8219
41.2003
39.5906
37.9935
36.4093
34.8385
33.2813
31.7381
30.2087
28.6932
27.1916
25.7035
24.2288
22.7672
21.3182
19.8813
18.4561
17.0419
15.6382
14.2443
12.8595
11.4829
10.1139
8.75154
7.39509
6.04363
4.6963
3.35219
2.01039
0.669975
-93.7981
-80.3871
-67.6439
-55.5521
-44.095
-33.2556
-23.0164
-13.3602
-4.26923
4.2741
12.2875
19.7887
26.7954
33.3249
39.3948
45.0223
50.2244
55.018
59.4197
63.4457
67.1122
70.4348
73.429
76.11
78.4923
80.5906
82.4187
83.9903
85.3187
86.4168
87.2971
87.9717
88.4523
88.7503
88.8766
88.8419
88.6562
88.3294
87.8709
87.2898
86.5947
85.794
84.8956
83.9071
82.8358
81.6886
80.4721
79.1926
77.856
76.468
75.0339
73.5587
72.0473
70.5042
68.9334
67.3392
65.725
64.0945
62.4508
60.797
59.1358
57.4698
55.8014
54.1329
52.4661
50.8028
49.1448
47.4935
45.8502
44.2161
42.5922
40.9793
39.3783
37.7897
36.214
34.6516
33.1028
31.5678
30.0466
28.5393
27.0457
25.5656
24.0989
22.6451
21.2038
19.7747
18.3571
16.9505
15.5544
14.1679
12.7905
11.4213
10.0596
8.7046
7.35542
6.01122
4.67111
3.33421
1.9996
0.666381
-93.2691
-79.9338
-67.2625
-55.2389
-43.8464
-33.068
-22.8867
-13.2849
-4.24516
4.25
12.2182
19.6771
26.6443
33.137
39.1726
44.7684
49.9412
54.7078
59.0846
63.088
66.7337
70.0376
73.0149
75.6807
78.0497
80.1361
81.9539
83.5167
84.8376
85.9295
86.8048
87.4756
87.9535
88.2498
88.3754
88.3409
88.1562
87.8313
87.3754
86.7975
86.1064
85.3102
84.4168
83.4339
82.3686
81.2279
80.0183
78.746
77.4169
76.0367
74.6107
73.1439
71.641
70.1065
68.5447
66.9594
65.3544
63.733
62.0986
60.4541
58.8023
57.1457
55.4868
53.8276
52.1702
50.5163
48.8677
47.2257
45.5917
43.9668
42.352
40.7482
39.1562
37.5766
36.0098
34.4562
32.9161
31.3898
29.8772
28.3784
26.8932
25.4215
23.963
22.5174
21.0842
19.6631
18.2536
16.8549
15.4667
14.088
12.7183
11.3569
10.0029
8.65551
7.31394
5.97732
4.64477
3.31541
1.98833
0.662623
-92.7172
-79.4607
-66.8644
-54.912
-43.5869
-32.8724
-22.7512
-13.2063
-4.22004
4.22484
12.1459
19.5607
26.4866
32.9409
38.9408
44.5034
49.6456
54.384
58.7349
62.7146
66.3388
69.6231
72.5828
75.2329
77.5878
79.6618
81.4689
83.0224
84.3355
85.4209
86.2911
86.9579
87.433
87.7275
87.8524
87.8181
87.6345
87.3115
86.8583
86.2839
85.5968
84.8053
83.9172
82.9401
81.8812
80.7472
79.5447
78.28
76.9588
75.5867
74.1691
72.711
71.217
69.6916
68.139
66.5631
64.9676
63.3558
61.7311
60.0963
58.4543
56.8075
55.1584
53.509
51.8614
50.2174
48.5785
46.9462
45.3219
43.7066
42.1014
40.5071
38.9245
37.3542
35.7966
34.2523
32.7213
31.204
29.7004
28.2104
26.734
25.271
23.8212
22.3841
20.9595
19.5468
18.1455
16.7552
15.3751
14.0046
12.6431
11.2897
9.94369
8.60429
7.27065
5.94194
4.61728
3.29579
1.97656
0.658702
-92.1423
-78.9681
-66.4498
-54.5715
-43.3167
-32.6685
-22.6102
-13.1244
-4.19387
4.19865
12.0706
19.4394
26.3224
32.7367
38.6994
44.2275
49.3378
54.0468
58.3708
62.3258
65.9275
69.1915
72.1328
74.7664
77.1067
79.1679
80.9638
82.5077
83.8126
84.8913
85.7561
86.4187
86.8909
87.1836
87.3077
87.2736
87.0912
86.7702
86.3198
85.7489
85.0661
84.2795
83.3969
82.4259
81.3735
80.2466
79.0515
77.7946
76.4816
75.1181
73.7093
72.2602
70.7755
69.2596
67.7166
66.1504
64.5648
62.963
61.3484
59.7237
58.0919
56.4553
54.8164
53.1773
51.5399
49.906
48.2773
46.6551
45.0409
43.4356
41.8403
40.2559
38.6831
37.1226
35.5747
34.0399
32.5185
31.0106
29.5162
28.0355
26.5683
25.1143
23.6735
22.2453
20.8295
19.4256
18.033
16.6513
15.2798
13.9178
12.5647
11.2197
9.88203
8.55094
7.22558
5.9051
4.58865
3.27535
1.96431
0.654618
-91.5447
-78.4559
-66.0189
-54.2176
-43.0357
-32.4567
-22.4635
-13.0393
-4.16667
4.17142
11.9923
19.3133
26.1517
32.5244
38.4484
43.9407
49.0178
53.6963
57.9922
61.9216
65.4999
68.7427
71.665
74.2815
76.6067
78.6545
80.4387
81.9726
83.2691
84.3408
85.1999
85.8583
86.3274
86.6182
86.7415
86.7076
86.5264
86.2074
85.7599
85.1928
84.5144
83.7329
82.8561
81.8913
80.8458
79.7261
78.5389
77.2901
75.9856
74.6309
73.2312
71.7916
70.3165
68.8104
67.2774
65.7214
64.146
62.5547
60.9505
59.3364
57.7151
56.0892
54.4609
52.8324
51.2056
49.5823
47.9642
46.3525
44.7487
43.1539
41.569
39.9948
38.4323
36.8818
35.344
33.8191
32.3076
30.8094
29.3248
27.8537
26.396
24.9515
23.5199
22.101
20.6944
19.2996
17.9161
16.5433
15.1807
13.8275
12.4832
11.1469
9.81794
8.49548
7.17871
5.8668
4.55889
3.25411
1.95157
0.650372
-90.9246
-77.9244
-65.5716
-53.8503
-42.7442
-32.2368
-22.3113
-12.9509
-4.13844
4.14317
11.9111
19.1825
25.9745
32.304
38.1879
43.643
48.6858
53.3325
57.5994
61.5021
65.0562
68.277
71.1795
73.7783
76.0877
78.1216
79.8937
81.4172
82.7049
83.7694
84.6227
85.2766
85.7425
86.0314
86.1539
86.1202
85.9402
85.6234
85.179
84.6156
83.9418
83.1656
82.2948
81.3365
80.2981
79.186
78.0068
76.7665
75.4708
74.1253
72.7351
71.3052
69.8401
68.3442
66.8216
65.2762
63.7115
62.1309
60.5376
58.9344
57.3241
55.7092
54.0919
52.4745
50.8587
49.2464
47.6392
46.0385
44.4456
42.8615
41.2873
39.7239
38.1719
36.632
35.1045
33.59
32.0887
30.6007
29.1261
27.665
26.2171
24.7824
23.3606
21.9513
20.5542
19.1689
17.7947
16.4312
15.0778
13.7339
12.3986
11.0714
9.75143
8.43793
7.13008
5.82706
4.52801
3.23206
1.93835
0.645966
-90.282
-77.3737
-65.1082
-53.4697
-42.4421
-32.009
-22.1536
-12.8594
-4.10919
4.11389
11.8269
19.0469
25.7909
32.0757
37.918
43.3345
48.3417
52.9556
57.1923
61.0674
64.5964
67.7945
70.6765
73.2569
75.55
77.5695
79.3291
80.8418
82.1204
83.1774
84.0246
84.6739
85.1365
85.4234
85.545
85.5115
85.3328
85.0182
84.5769
84.0176
83.3486
82.5779
81.7131
80.7617
79.7306
78.6264
77.4555
76.2239
74.9374
73.6014
72.2211
70.8012
69.3465
67.8612
66.3494
64.8148
63.2612
61.6918
60.1097
58.5179
56.919
55.3154
53.7096
52.1036
50.4993
48.8984
47.3025
45.7131
44.1315
42.5586
40.9955
39.4431
37.9021
36.3731
34.8564
33.3526
31.8619
30.3844
28.9203
27.4695
26.0319
24.6073
23.1955
21.7962
20.409
19.0334
17.6689
16.3151
14.9713
13.6368
12.311
10.9932
9.68251
8.37829
7.07969
5.78588
4.49601
3.20922
1.92465
0.641401
-89.6171
-76.8039
-64.6287
-53.0759
-42.1295
-31.7732
-21.9905
-12.7647
-4.07893
4.08359
11.7398
18.9067
25.601
31.8395
37.6388
43.0154
47.9857
52.5656
56.7711
60.6177
64.1207
67.2952
70.156
72.7174
74.9936
76.9983
78.7449
80.2464
81.5156
82.5648
83.4058
84.0503
84.5095
84.7943
84.915
84.8817
84.7043
84.3921
83.9541
83.3989
82.7348
81.9697
81.1114
80.1669
79.1434
78.0473
76.885
75.6626
74.3855
73.0594
71.6892
70.2798
68.8358
67.3614
65.8607
64.3375
62.7953
61.2375
59.667
58.0869
56.4998
54.9081
53.3141
51.7199
50.1274
48.5383
46.9542
45.3765
43.8065
42.2452
40.6936
39.1527
37.623
36.1052
34.5997
33.107
31.6273
30.1607
28.7073
27.2672
25.8401
24.4261
23.0247
21.6357
20.2586
18.8932
17.5388
16.195
14.861
13.5364
12.2203
10.9122
9.61121
8.31659
7.02755
5.74326
4.4629
3.18559
1.91047
0.636677
-88.9301
-76.2151
-64.1333
-52.6691
-41.8066
-31.5296
-21.8219
-12.6668
-4.04766
4.05229
11.6498
18.7617
25.4047
31.5954
37.3503
42.6857
47.6178
52.1626
56.3359
60.153
63.6291
66.7793
69.6181
72.1599
74.4187
76.408
78.1412
79.6313
80.8907
81.9319
82.7664
83.406
83.8617
84.1442
84.264
84.2311
84.055
83.7452
83.3105
82.7595
82.1005
81.3413
80.4896
79.5524
78.5367
77.449
76.2956
75.0825
73.8153
72.4993
71.1396
69.7411
68.3081
66.845
65.3558
63.8443
62.3139
60.768
59.2096
57.6416
56.0667
54.4871
52.9054
51.3234
49.7431
48.1662
46.5942
45.0286
43.4706
41.9213
40.3817
38.8525
37.3346
35.8284
34.3345
32.8532
31.3848
29.9295
28.4872
27.0581
25.642
24.2388
22.8482
21.4698
20.1033
18.7484
17.4044
16.0708
14.7471
13.4326
12.1267
10.8285
9.53753
8.25283
6.97368
5.69924
4.42868
3.16117
1.89583
0.631796
-88.2211
-75.6075
-63.622
-52.2492
-41.4733
-31.2783
-21.648
-12.5659
-4.01539
4.01999
11.5569
18.6122
25.2022
31.3435
37.0525
42.3454
47.2382
51.7468
55.8868
59.6734
63.1219
66.247
69.0632
71.5847
73.8254
75.7989
77.5183
78.9965
80.2459
81.2787
82.1066
82.7411
83.1932
83.4734
83.5923
83.5596
83.3849
83.0776
82.6463
82.0998
81.446
80.6929
79.8479
78.9182
77.9106
76.8316
75.6874
74.484
73.2268
71.9214
70.5725
69.1851
67.7636
66.3121
64.8348
63.3353
61.8172
60.2836
58.7376
57.1821
55.6197
54.0528
52.4836
50.9142
49.3465
47.7822
46.2228
44.6697
43.1241
41.5871
40.0598
38.5428
37.0369
35.5428
34.0608
32.5913
31.1346
29.6909
28.2601
26.8424
25.4376
24.0456
22.666
21.2986
19.9431
18.5989
17.2656
15.9427
14.6295
13.3255
12.03
10.7422
9.46149
8.18704
6.91808
5.6538
4.39338
3.13597
1.88071
0.62676
-87.4904
-74.9813
-63.0951
-51.8164
-41.1298
-31.0192
-21.4686
-12.4618
-3.98213
3.98669
11.4612
18.458
24.9935
31.0839
36.7456
41.9946
46.8469
51.3182
55.4239
59.1792
62.5991
65.6983
68.4911
70.9918
73.2139
75.1711
76.8762
78.3422
79.5812
80.6055
81.4266
82.0558
82.5041
82.7821
82.8999
82.8675
82.6943
82.3895
81.9618
81.4198
80.7714
80.0245
79.1865
78.2645
77.2653
76.1952
75.0605
73.867
72.6203
71.3256
69.988
68.612
67.2023
65.7629
64.2978
62.8107
61.3051
59.7843
58.2511
56.7085
55.159
53.6051
52.0489
50.4925
48.9378
47.3864
45.8399
44.2997
42.7669
41.2427
39.728
38.2236
36.7302
35.2484
33.7787
32.3214
30.8767
29.4449
28.0261
26.6201
25.2269
23.8464
22.4783
21.1222
19.7779
18.4449
17.1226
15.8106
14.5084
13.2152
11.9303
10.6532
9.38313
8.11923
6.86078
5.60697
4.35699
3.10999
1.86514
0.621568
-86.7381
-74.3366
-62.5525
-51.3709
-40.7761
-30.7525
-21.284
-12.3546
-3.94789
3.95241
11.3627
18.2993
24.7786
30.8167
36.4296
41.6335
46.4441
50.8769
54.9473
58.6703
62.0608
65.1334
67.9022
70.3813
72.5844
74.5247
76.2152
77.6685
78.897
79.9124
80.7264
81.3502
81.7947
82.0702
82.1871
82.1549
81.9832
81.681
81.2571
80.7197
80.0769
79.3364
78.5056
77.5916
76.6009
75.54
74.4151
73.2319
71.9959
70.7123
69.3862
68.0221
66.6244
65.1974
63.7449
62.2707
60.778
59.2702
57.7502
56.2209
54.6847
53.1441
51.6014
50.0584
48.517
46.979
45.4458
43.9188
42.3992
40.888
39.3863
37.8949
36.4143
34.9453
33.4882
32.0434
30.6112
29.1918
27.7851
26.3912
25.01
23.6414
22.285
20.9406
19.6078
18.2863
16.9754
15.6747
14.3836
13.1015
11.8278
10.5616
9.30244
8.04942
6.80179
5.55876
4.31952
3.08325
1.8491
0.616224
-85.9644
-73.6735
-61.9946
-50.9126
-40.4124
-30.4782
-21.0942
-12.2444
-3.91268
3.91715
11.2613
18.1361
24.5575
30.5418
36.1047
41.2622
46.0298
50.4231
54.4572
58.147
61.5072
64.5524
67.2965
69.7535
71.9369
73.8599
75.5354
76.9757
78.1932
79.1996
80.0063
80.6246
81.0651
81.3382
81.454
81.4221
81.2519
80.9524
80.5322
79.9997
79.3626
78.6288
77.8054
76.8994
75.9176
74.8662
73.7513
72.5787
71.3537
70.0816
68.7673
67.4153
66.0302
64.6159
63.1763
61.7152
60.2359
58.7415
57.2351
55.7194
54.1969
52.6701
51.1411
49.6119
48.0842
46.5599
45.0404
43.527
42.021
40.5233
39.035
37.5569
36.0895
34.6336
33.1895
31.7576
30.3382
28.9314
27.5372
26.1558
24.7869
23.4305
22.0862
20.7538
19.4329
18.1231
16.824
15.5349
14.2553
12.9847
11.7223
10.4674
9.21947
7.97762
6.74112
5.50918
4.28099
3.05575
1.8326
0.610727
-85.1695
-72.9922
-61.4213
-50.4419
-40.0387
-30.1964
-20.8991
-12.1312
-3.8765
3.88093
11.1572
17.9684
24.3305
30.2594
35.7708
40.8806
45.6042
49.9569
53.9536
57.6093
60.9385
63.9555
66.6742
69.1085
71.2718
73.177
74.8369
76.2639
77.4702
78.4672
79.2665
79.8791
80.3155
80.5861
80.7008
80.6692
80.5006
80.2039
79.7876
79.2599
78.6288
77.9017
77.0859
76.1884
75.2156
74.1739
73.0694
71.9075
70.6939
69.4336
68.1314
66.7919
65.4196
64.0184
62.5922
61.1445
59.6789
58.1983
56.7058
55.2042
53.6958
52.1831
50.6682
49.1531
47.6396
46.1294
44.6239
43.1245
41.6324
40.1486
38.6741
37.2096
35.7558
34.3133
32.8826
31.464
30.0576
28.6638
27.2826
25.9139
24.5577
23.2138
21.882
20.5619
19.2532
17.9556
16.6684
15.3912
14.1235
12.8646
11.6139
10.3706
9.13422
7.90385
6.67878
5.45824
4.24141
3.02749
1.81566
0.60508
-84.3536
-72.293
-60.8329
-49.9586
-39.6551
-29.9071
-20.6989
-12.015
-3.83936
3.84375
11.0503
17.7962
24.0974
29.9695
35.4282
40.489
45.1673
49.4783
53.4368
57.0574
60.3547
63.3428
66.0355
68.4465
70.589
72.4759
74.12
75.5333
76.728
77.7155
78.5072
79.1138
79.546
79.814
79.9277
79.8964
79.7294
79.4355
79.0232
78.5006
77.8755
77.1554
76.3474
75.4585
74.495
73.4634
72.3694
71.2187
70.0166
68.7684
67.4787
66.1521
64.7929
63.4051
61.9925
60.5588
59.1071
57.6408
56.1626
54.6753
53.1814
51.6832
50.1828
48.6822
47.1832
45.6875
44.1964
42.7114
41.2336
39.764
38.3036
36.8531
35.4133
33.9846
32.5676
31.1625
29.7697
28.3892
27.0212
25.6657
24.3225
22.9914
21.6724
20.3649
19.0688
17.7835
16.5087
15.2438
13.9882
12.7413
11.5026
10.2713
9.04671
7.82813
6.6148
5.40595
4.20078
2.99849
1.79826
0.599283
-83.5169
-71.5759
-60.2295
-49.4631
-39.2618
-29.6104
-20.4936
-11.8958
-3.80128
3.80562
10.9407
17.6197
23.8583
29.6722
35.0767
40.0874
44.7193
48.9875
52.9067
56.4914
59.756
62.7144
65.3805
67.7675
69.8888
71.757
73.3847
74.7841
75.9669
76.9446
77.7284
78.3291
78.757
79.0223
79.1348
79.1039
78.9385