/*--------------------------------*- C++ -*----------------------------------*\
| =========                 |                                                 |
| \\      /  F ield         | OpenFOAM: The Open Source CFD Toolbox           |
|  \\    /   O peration     | Version:  2406                                  |
|   \\  /    A nd           | Website:  www.openfoam.com                      |
|    \\/     M anipulation  |                                                 |
\*---------------------------------------------------------------------------*/
FoamFile
{
    version     2.0;
    format      ascii;
    arch        "LSB;label=32;scalar=64";
    class       volVectorField;
    location    "5";
    object      flux;
}
// * * * * * * * * * * * * * * * * * * * * * * * * * * * * * * * * * * * * * //

dimensions      [0 1 -1 1 0 0 0];

internalField   nonuniform List<vector> 
20000
(
(-0.000263285 0.00285133 0)
(-0.000222968 0.00236792 0)
(-0.000187997 0.00195951 0)
(-0.000157834 0.00161597 0)
(-0.000131963 0.00132821 0)
(-0.000109886 0.00108816 0)
(-9.11451e-05 0.000888696 0)
(-7.53179e-05 0.000723597 0)
(-6.20149e-05 0.000587443 0)
(-5.08798e-05 0.000475557 0)
(-4.16037e-05 0.000383936 0)
(-3.39124e-05 0.000309149 0)
(-2.75563e-05 0.000248295 0)
(-2.23225e-05 0.000198933 0)
(-1.8031e-05 0.000159011 0)
(-1.4526e-05 0.000126812 0)
(-1.16718e-05 0.00010091 0)
(-9.35405e-06 8.01278e-05 0)
(-7.4776e-06 6.34967e-05 0)
(-5.96344e-06 5.02196e-05 0)
(-4.74547e-06 3.96442e-05 0)
(-3.76842e-06 3.12386e-05 0)
(-2.98644e-06 2.45712e-05 0)
(-2.36191e-06 1.92935e-05 0)
(-1.86421e-06 1.51243e-05 0)
(-1.4685e-06 1.18373e-05 0)
(-1.15465e-06 9.25078e-06 0)
(-9.06323e-07 7.21903e-06 0)
(-7.10282e-07 5.62568e-06 0)
(-5.55825e-07 4.37802e-06 0)
(-4.3434e-07 3.40246e-06 0)
(-3.38936e-07 2.64073e-06 0)
(-2.6412e-07 2.04679e-06 0)
(-2.05531e-07 1.58432e-06 0)
(-1.59713e-07 1.22473e-06 0)
(-1.23934e-07 9.45524e-07 0)
(-9.60351e-08 7.29039e-07 0)
(-7.43141e-08 5.61418e-07 0)
(-5.74282e-08 4.31809e-07 0)
(-4.43206e-08 3.31724e-07 0)
(-3.41609e-08 2.54539e-07 0)
(-2.62972e-08 1.95089e-07 0)
(-2.0219e-08 1.49356e-07 0)
(-1.55272e-08 1.14217e-07 0)
(-1.19102e-08 8.72492e-08 0)
(-9.12531e-09 6.65772e-08 0)
(-6.98368e-09 5.0749e-08 0)
(-5.33872e-09 3.86431e-08 0)
(-4.07674e-09 2.93944e-08 0)
(-3.10969e-09 2.23363e-08 0)
(-2.36948e-09 1.69557e-08 0)
(-1.80355e-09 1.28583e-08 0)
(-1.37135e-09 9.74144e-09 0)
(-1.04165e-09 7.37285e-09 0)
(-7.904e-10 5.57477e-09 0)
(-5.99142e-10 4.21117e-09 0)
(-4.53712e-10 3.17811e-09 0)
(-3.43247e-10 2.39623e-09 0)
(-2.59427e-10 1.80505e-09 0)
(-1.95881e-10 1.35848e-09 0)
(-1.4776e-10 1.02147e-09 0)
(-1.11356e-10 7.67383e-10 0)
(-8.38477e-11 5.75999e-10 0)
(-6.3073e-11 4.31967e-10 0)
(-4.74026e-11 3.23671e-10 0)
(-3.56008e-11 2.42328e-10 0)
(-2.67e-11 1.81271e-10 0)
(-2.00179e-11 1.3549e-10 0)
(-1.49961e-11 1.01186e-10 0)
(-1.12226e-11 7.55054e-11 0)
(-8.38606e-12 5.62983e-11 0)
(-6.26509e-12 4.19457e-11 0)
(-4.68209e-12 3.12225e-11 0)
(-3.48775e-12 2.32225e-11 0)
(-2.59458e-12 1.72637e-11 0)
(-1.93564e-12 1.28288e-11 0)
(-1.44401e-12 9.52118e-12 0)
(-1.07593e-12 7.0553e-12 0)
(-7.95363e-13 5.23292e-12 0)
(-5.94591e-13 3.86871e-12 0)
(-4.40152e-13 2.85713e-12 0)
(-3.21749e-13 2.11067e-12 0)
(-2.41955e-13 1.55984e-12 0)
(-1.77605e-13 1.15057e-12 0)
(-1.31273e-13 8.46842e-13 0)
(-9.78116e-14 6.20331e-13 0)
(-7.20717e-14 4.5817e-13 0)
(-5.40538e-14 3.37193e-13 0)
(-4.11838e-14 2.41955e-13 0)
(-2.83139e-14 1.77605e-13 0)
(-1.80179e-14 1.31273e-13 0)
(-1.28699e-14 9.78116e-14 0)
(-1.28699e-14 6.94977e-14 0)
(-1.80179e-14 4.37578e-14 0)
(-7.72197e-15 2.57399e-14 0)
(-2.57399e-15 1.80179e-14 0)
(-2.57399e-15 1.0296e-14 0)
(0 0 0)
(0 0 0)
(0 0 0)
(-0.000789789 0.00285063 0)
(-0.000668851 0.00236734 0)
(-0.000563948 0.00195903 0)
(-0.000473463 0.00161557 0)
(-0.000395851 0.00132788 0)
(-0.00032963 0.00108789 0)
(-0.000273417 0.000888478 0)
(-0.000225935 0.000723417 0)
(-0.000186025 0.000587299 0)
(-0.000152628 0.000475442 0)
(-0.000124805 0.00038384 0)
(-0.000101728 0.00030907 0)
(-8.26595e-05 0.000248234 0)
(-6.69616e-05 0.000198886 0)
(-5.40902e-05 0.000158972 0)
(-4.35752e-05 0.00012678 0)
(-3.50122e-05 0.000100884 0)
(-2.8059e-05 8.01079e-05 0)
(-2.24306e-05 6.34816e-05 0)
(-1.7889e-05 5.02078e-05 0)
(-1.42356e-05 3.96347e-05 0)
(-1.13046e-05 3.12307e-05 0)
(-8.95862e-06 2.45648e-05 0)
(-7.08502e-06 1.92885e-05 0)
(-5.59199e-06 1.51205e-05 0)
(-4.40502e-06 1.18345e-05 0)
(-3.46363e-06 9.24867e-06 0)
(-2.71878e-06 7.21741e-06 0)
(-2.13073e-06 5.62439e-06 0)
(-1.66739e-06 4.37697e-06 0)
(-1.30295e-06 3.40159e-06 0)
(-1.01674e-06 2.64002e-06 0)
(-7.9229e-07 2.04621e-06 0)
(-6.16528e-07 1.58386e-06 0)
(-4.79083e-07 1.22438e-06 0)
(-3.71756e-07 9.45258e-07 0)
(-2.88071e-07 7.28842e-07 0)
(-2.22917e-07 5.61274e-07 0)
(-1.72266e-07 4.31704e-07 0)
(-1.32949e-07 3.31649e-07 0)
(-1.02474e-07 2.54485e-07 0)
(-7.8886e-08 1.95051e-07 0)
(-6.06534e-08 1.49328e-07 0)
(-4.65793e-08 1.14197e-07 0)
(-3.57291e-08 8.72355e-08 0)
(-2.7375e-08 6.65676e-08 0)
(-2.09505e-08 5.07422e-08 0)
(-1.60158e-08 3.86385e-08 0)
(-1.22301e-08 2.93913e-08 0)
(-9.32899e-09 2.23343e-08 0)
(-7.10845e-09 1.69544e-08 0)
(-5.41073e-09 1.28576e-08 0)
(-4.11414e-09 9.74101e-09 0)
(-3.12503e-09 7.37265e-09 0)
(-2.37128e-09 5.57472e-09 0)
(-1.79751e-09 4.21121e-09 0)
(-1.36123e-09 3.1782e-09 0)
(-1.02981e-09 2.39635e-09 0)
(-7.7833e-10 1.80518e-09 0)
(-5.87696e-10 1.35861e-09 0)
(-4.43331e-10 1.0216e-09 0)
(-3.34114e-10 7.67494e-10 0)
(-2.51574e-10 5.76084e-10 0)
(-1.8925e-10 4.32044e-10 0)
(-1.42239e-10 3.23741e-10 0)
(-1.06808e-10 2.42375e-10 0)
(-8.01308e-11 1.81317e-10 0)
(-6.00692e-11 1.35518e-10 0)
(-4.49882e-11 1.01212e-10 0)
(-3.36678e-11 7.55286e-11 0)
(-2.51736e-11 5.63112e-11 0)
(-1.88081e-11 4.19534e-11 0)
(-1.40411e-11 3.12302e-11 0)
(-1.04658e-11 2.32354e-11 0)
(-7.80176e-12 1.72689e-11 0)
(-5.81207e-12 1.28236e-11 0)
(-4.32688e-12 9.51089e-12 0)
(-3.21234e-12 7.0553e-12 0)
(-2.39381e-12 5.22777e-12 0)
(-1.77863e-12 3.86613e-12 0)
(-1.31788e-12 2.8597e-12 0)
(-9.75542e-13 2.11582e-12 0)
(-7.18143e-13 1.55726e-12 0)
(-5.32816e-13 1.15057e-12 0)
(-4.01542e-13 8.41694e-13 0)
(-2.90861e-13 6.20331e-13 0)
(-2.08493e-13 4.53022e-13 0)
(-1.64735e-13 3.37193e-13 0)
(-1.18403e-13 2.47103e-13 0)
(-8.23676e-14 1.80179e-13 0)
(-6.17757e-14 1.31273e-13 0)
(-5.14798e-14 9.26636e-14 0)
(-3.60358e-14 6.17757e-14 0)
(-2.31659e-14 4.89058e-14 0)
(-1.54439e-14 4.37578e-14 0)
(-1.54439e-14 2.83139e-14 0)
(-2.05919e-14 2.31659e-14 0)
(-1.0296e-14 1.28699e-14 0)
(0 0 0)
(0 2.57399e-15 0)
(-0.0013161 0.00284922 0)
(-0.00111457 0.00236617 0)
(-0.00093976 0.00195806 0)
(-0.00078898 0.00161478 0)
(-0.000659644 0.00132723 0)
(-0.000549291 0.00108735 0)
(-0.000455619 0.00088804 0)
(-0.000376497 0.000723061 0)
(-0.00030999 0.000587009 0)
(-0.000254339 0.000475207 0)
(-0.000207976 0.00038365 0)
(-0.000169518 0.000308918 0)
(-0.000137741 0.000248112 0)
(-0.000111584 0.000198788 0)
(-9.01371e-05 0.000158894 0)
(-7.26143e-05 0.000126716 0)
(-5.83435e-05 0.000100834 0)
(-4.67564e-05 8.00686e-05 0)
(-3.73777e-05 6.34507e-05 0)
(-2.98103e-05 5.01834e-05 0)
(-2.37226e-05 3.96151e-05 0)
(-1.88383e-05 3.1215e-05 0)
(-1.49286e-05 2.45524e-05 0)
(-1.18062e-05 1.92788e-05 0)
(-9.3182e-06 1.5113e-05 0)
(-7.34032e-06 1.18288e-05 0)
(-5.77172e-06 9.24429e-06 0)
(-4.53061e-06 7.21402e-06 0)
(-3.55073e-06 5.62171e-06 0)
(-2.77862e-06 4.37483e-06 0)
(-2.17129e-06 3.39988e-06 0)
(-1.69432e-06 2.63864e-06 0)
(-1.32027e-06 2.04512e-06 0)
(-1.02737e-06 1.58301e-06 0)
(-7.98319e-07 1.22371e-06 0)
(-6.19469e-07 9.44749e-07 0)
(-4.80019e-07 7.28457e-07 0)
(-3.71452e-07 5.60985e-07 0)
(-2.87053e-07 4.31489e-07 0)
(-2.2154e-07 3.31489e-07 0)
(-1.70759e-07 2.54367e-07 0)
(-1.31454e-07 1.94964e-07 0)
(-1.01072e-07 1.49265e-07 0)
(-7.76201e-08 1.1415e-07 0)
(-5.95398e-08 8.72012e-08 0)
(-4.56185e-08 6.65425e-08 0)
(-3.49128e-08 5.0724e-08 0)
(-2.66897e-08 3.86253e-08 0)
(-2.0381e-08 2.93818e-08 0)
(-1.55466e-08 2.23275e-08 0)
(-1.18462e-08 1.69496e-08 0)
(-9.01696e-09 1.28542e-08 0)
(-6.85627e-09 9.73865e-09 0)
(-5.20794e-09 7.37103e-09 0)
(-3.95184e-09 5.57363e-09 0)
(-2.99566e-09 4.21049e-09 0)
(-2.26857e-09 3.17772e-09 0)
(-1.71628e-09 2.39606e-09 0)
(-1.29716e-09 1.805e-09 0)
(-9.79462e-10 1.35851e-09 0)
(-7.38879e-10 1.02155e-09 0)
(-5.56864e-10 7.67479e-10 0)
(-4.19292e-10 5.76095e-10 0)
(-3.15422e-10 4.32057e-10 0)
(-2.3707e-10 3.23764e-10 0)
(-1.7802e-10 2.42408e-10 0)
(-1.33564e-10 1.81338e-10 0)
(-1.0012e-10 1.35544e-10 0)
(-7.49803e-11 1.01232e-10 0)
(-5.61233e-11 7.55414e-11 0)
(-4.19663e-11 5.63266e-11 0)
(-3.1346e-11 4.19612e-11 0)
(-2.34001e-11 3.12457e-11 0)
(-1.74491e-11 2.32405e-11 0)
(-1.30064e-11 1.72715e-11 0)
(-9.69364e-12 1.28262e-11 0)
(-7.20717e-12 9.52118e-12 0)
(-5.36162e-12 7.06045e-12 0)
(-3.98453e-12 5.2252e-12 0)
(-2.96266e-12 3.87385e-12 0)
(-2.19561e-12 2.86742e-12 0)
(-1.62676e-12 2.11582e-12 0)
(-1.19948e-12 1.56499e-12 0)
(-8.93174e-13 1.14543e-12 0)
(-6.61515e-13 8.46842e-13 0)
(-4.86484e-13 6.25479e-13 0)
(-3.5521e-13 4.55596e-13 0)
(-2.59973e-13 3.34619e-13 0)
(-1.95623e-13 2.54825e-13 0)
(-1.46717e-13 1.80179e-13 0)
(-1.05534e-13 1.33847e-13 0)
(-7.97937e-14 9.52376e-14 0)
(-5.92017e-14 7.20717e-14 0)
(-4.11838e-14 5.14798e-14 0)
(-2.83139e-14 3.34619e-14 0)
(-2.05919e-14 2.57399e-14 0)
(-1.80179e-14 1.80179e-14 0)
(-2.31659e-14 2.05919e-14 0)
(-1.28699e-14 7.72197e-15 0)
(0 -5.14798e-15 0)
(-0.00184208 0.0028471 0)
(-0.00156 0.00236441 0)
(-0.00131534 0.00195661 0)
(-0.0011043 0.00161358 0)
(-0.000923276 0.00132625 0)
(-0.000768817 0.00108655 0)
(-0.000637708 0.000887382 0)
(-0.000526966 0.000722526 0)
(-0.000433879 0.000586573 0)
(-0.000355987 0.000474855 0)
(-0.000291094 0.000383366 0)
(-0.000237266 0.00030869 0)
(-0.000192789 0.000247929 0)
(-0.00015618 0.000198641 0)
(-0.000126162 0.000158775 0)
(-0.000101635 0.000126622 0)
(-8.16599e-05 0.000100759 0)
(-6.5442e-05 8.00096e-05 0)
(-5.23157e-05 6.3404e-05 0)
(-4.17246e-05 5.01463e-05 0)
(-3.3204e-05 3.95856e-05 0)
(-2.63673e-05 3.11916e-05 0)
(-2.08949e-05 2.4534e-05 0)
(-1.65244e-05 1.92644e-05 0)
(-1.3042e-05 1.51019e-05 0)
(-1.02737e-05 1.18201e-05 0)
(-8.07839e-06 9.23759e-06 0)
(-6.34136e-06 7.20878e-06 0)
(-4.96992e-06 5.6176e-06 0)
(-3.88923e-06 4.37158e-06 0)
(-3.03913e-06 3.39731e-06 0)
(-2.37149e-06 2.63662e-06 0)
(-1.84793e-06 2.04353e-06 0)
(-1.43794e-06 1.58177e-06 0)
(-1.11734e-06 1.22276e-06 0)
(-8.67012e-07 9.44019e-07 0)
(-6.71835e-07 7.27901e-07 0)
(-5.19884e-07 5.60565e-07 0)
(-4.01762e-07 4.31174e-07 0)
(-3.10071e-07 3.31253e-07 0)
(-2.39e-07 2.54191e-07 0)
(-1.83989e-07 1.94833e-07 0)
(-1.41467e-07 1.49167e-07 0)
(-1.08643e-07 1.14078e-07 0)
(-8.33369e-08 8.71481e-08 0)
(-6.38521e-08 6.65034e-08 0)
(-4.88677e-08 5.06953e-08 0)
(-3.73581e-08 3.86043e-08 0)
(-2.85279e-08 2.93665e-08 0)
(-2.17612e-08 2.23164e-08 0)
(-1.65817e-08 1.69416e-08 0)
(-1.26217e-08 1.28484e-08 0)
(-9.59728e-09 9.73457e-09 0)
(-7.29005e-09 7.36815e-09 0)
(-5.53183e-09 5.5716e-09 0)
(-4.19341e-09 4.20908e-09 0)
(-3.17566e-09 3.17677e-09 0)
(-2.40254e-09 2.39541e-09 0)
(-1.81588e-09 1.80456e-09 0)
(-1.37115e-09 1.35822e-09 0)
(-1.03436e-09 1.02136e-09 0)
(-7.79566e-10 7.67368e-10 0)
(-5.8699e-10 5.76033e-10 0)
(-4.41583e-10 4.32034e-10 0)
(-3.31893e-10 3.23754e-10 0)
(-2.49232e-10 2.42403e-10 0)
(-1.86993e-10 1.81343e-10 0)
(-1.40174e-10 1.35557e-10 0)
(-1.04993e-10 1.0124e-10 0)
(-7.85736e-11 7.55517e-11 0)
(-5.87539e-11 5.63395e-11 0)
(-4.38865e-11 4.19715e-11 0)
(-3.27643e-11 3.12508e-11 0)
(-2.44426e-11 2.32405e-11 0)
(-1.82135e-11 1.72715e-11 0)
(-1.35572e-11 1.28288e-11 0)
(-1.00978e-11 9.52376e-12 0)
(-7.5109e-12 7.0553e-12 0)
(-5.57526e-12 5.2252e-12 0)
(-4.1364e-12 3.87128e-12 0)
(-3.07334e-12 2.86742e-12 0)
(-2.28313e-12 2.12097e-12 0)
(-1.68596e-12 1.55984e-12 0)
(-1.25353e-12 1.15057e-12 0)
(-9.21488e-13 8.46842e-13 0)
(-6.79533e-13 6.22905e-13 0)
(-5.01928e-13 4.63318e-13 0)
(-3.65506e-13 3.37193e-13 0)
(-2.72843e-13 2.47103e-13 0)
(-2.03345e-13 1.80179e-13 0)
(-1.49291e-13 1.28699e-13 0)
(-1.10682e-13 8.75156e-14 0)
(-8.49416e-14 6.43497e-14 0)
(-5.66278e-14 4.63318e-14 0)
(-4.37578e-14 3.34619e-14 0)
(-3.08879e-14 2.31659e-14 0)
(-2.05919e-14 1.0296e-14 0)
(-2.05919e-14 7.72197e-15 0)
(-2.05919e-14 1.0296e-14 0)
(-7.72197e-15 0 0)
(-0.00236761 0.0028443 0)
(-0.00200506 0.00236207 0)
(-0.00169059 0.00195468 0)
(-0.00141935 0.00161199 0)
(-0.00118668 0.00132494 0)
(-0.000988155 0.00108547 0)
(-0.00081964 0.000886505 0)
(-0.000677306 0.000721812 0)
(-0.000557661 0.000585994 0)
(-0.000457546 0.000474386 0)
(-0.000374141 0.000382988 0)
(-0.000304955 0.000308385 0)
(-0.00024779 0.000247684 0)
(-0.000200738 0.000198444 0)
(-0.000162155 0.000158618 0)
(-0.00013063 0.000126497 0)
(-0.000104956 0.00010066 0)
(-8.41115e-05 7.99309e-05 0)
(-6.7241e-05 6.33415e-05 0)
(-5.36288e-05 5.00967e-05 0)
(-4.26774e-05 3.95463e-05 0)
(-3.38899e-05 3.11606e-05 0)
(-2.68558e-05 2.45097e-05 0)
(-2.12383e-05 1.92454e-05 0)
(-1.67625e-05 1.50871e-05 0)
(-1.32046e-05 1.18086e-05 0)
(-1.03831e-05 9.22858e-06 0)
(-8.1506e-06 7.20173e-06 0)
(-6.38793e-06 5.61207e-06 0)
(-4.99891e-06 4.36724e-06 0)
(-3.90625e-06 3.3939e-06 0)
(-3.04809e-06 2.63395e-06 0)
(-2.37512e-06 2.04145e-06 0)
(-1.84814e-06 1.58015e-06 0)
(-1.43607e-06 1.22151e-06 0)
(-1.11433e-06 9.43061e-07 0)
(-8.63472e-07 7.27171e-07 0)
(-6.68179e-07 5.6001e-07 0)
(-5.16365e-07 4.30754e-07 0)
(-3.98522e-07 3.30937e-07 0)
(-3.0718e-07 2.53953e-07 0)
(-2.36478e-07 1.94654e-07 0)
(-1.81827e-07 1.49034e-07 0)
(-1.39639e-07 1.13979e-07 0)
(-1.07115e-07 8.70739e-08 0)
(-8.20713e-08 6.64483e-08 0)
(-6.28119e-08 5.06545e-08 0)
(-4.80185e-08 3.85741e-08 0)
(-3.66689e-08 2.93443e-08 0)
(-2.79714e-08 2.23001e-08 0)
(-2.13141e-08 1.69297e-08 0)
(-1.6224e-08 1.28398e-08 0)
(-1.23366e-08 9.72829e-09 0)
(-9.3709e-09 7.36361e-09 0)
(-7.1109e-09 5.56835e-09 0)
(-5.3905e-09 4.20675e-09 0)
(-4.08226e-09 3.17512e-09 0)
(-3.08848e-09 2.39423e-09 0)
(-2.33435e-09 1.80374e-09 0)
(-1.76266e-09 1.35765e-09 0)
(-1.32973e-09 1.02097e-09 0)
(-1.00219e-09 7.67105e-10 0)
(-7.54632e-10 5.75863e-10 0)
(-5.67701e-10 4.3192e-10 0)
(-4.26698e-10 3.23677e-10 0)
(-3.20431e-10 2.42356e-10 0)
(-2.40411e-10 1.81317e-10 0)
(-1.80226e-10 1.35533e-10 0)
(-1.34988e-10 1.01235e-10 0)
(-1.01021e-10 7.55594e-11 0)
(-7.55414e-11 5.6342e-11 0)
(-5.64399e-11 4.19895e-11 0)
(-4.21285e-11 3.12534e-11 0)
(-3.14284e-11 2.32508e-11 0)
(-2.34207e-11 1.72843e-11 0)
(-1.74413e-11 1.28339e-11 0)
(-1.29806e-11 9.52118e-12 0)
(-9.65503e-12 7.06303e-12 0)
(-7.17113e-12 5.23807e-12 0)
(-5.32558e-12 3.87643e-12 0)
(-3.94592e-12 2.86742e-12 0)
(-2.9292e-12 2.12354e-12 0)
(-2.17502e-12 1.56241e-12 0)
(-1.61132e-12 1.15315e-12 0)
(-1.18146e-12 8.5199e-13 0)
(-8.72582e-13 6.25479e-13 0)
(-6.38349e-13 4.63318e-13 0)
(-4.7104e-13 3.39767e-13 0)
(-3.60358e-13 2.47103e-13 0)
(-2.62547e-13 1.82753e-13 0)
(-1.93049e-13 1.31273e-13 0)
(-1.41569e-13 9.78116e-14 0)
(-1.05534e-13 7.20717e-14 0)
(-7.46457e-14 5.14798e-14 0)
(-5.14798e-14 3.86098e-14 0)
(-4.63318e-14 2.57399e-14 0)
(-3.08879e-14 1.28699e-14 0)
(-2.31659e-14 2.57399e-15 0)
(-1.80179e-14 1.0296e-14 0)
(-1.54439e-14 5.14798e-15 0)
(-0.00289256 0.00284079 0)
(-0.00244962 0.00235916 0)
(-0.00206542 0.00195226 0)
(-0.00173404 0.00160999 0)
(-0.00144979 0.0013233 0)
(-0.00120725 0.00108413 0)
(-0.00100137 0.00088541 0)
(-0.000827478 0.00072092 0)
(-0.000681304 0.00058527 0)
(-0.000558993 0.0004738 0)
(-0.000457096 0.000382515 0)
(-0.00037257 0.000308004 0)
(-0.00030273 0.000247377 0)
(-0.000245246 0.000198199 0)
(-0.000198109 0.000158422 0)
(-0.000159594 0.000126341 0)
(-0.000128226 0.000100536 0)
(-0.00010276 7.98322e-05 0)
(-8.21498e-05 6.32632e-05 0)
(-6.55198e-05 5.00347e-05 0)
(-5.21401e-05 3.94973e-05 0)
(-4.1404e-05 3.1122e-05 0)
(-3.28101e-05 2.44794e-05 0)
(-2.5947e-05 1.92217e-05 0)
(-2.04788e-05 1.50685e-05 0)
(-1.61322e-05 1.17941e-05 0)
(-1.26853e-05 9.21726e-06 0)
(-9.95787e-06 7.19287e-06 0)
(-7.80442e-06 5.60513e-06 0)
(-6.1074e-06 4.36181e-06 0)
(-4.77242e-06 3.38965e-06 0)
(-3.72394e-06 2.63063e-06 0)
(-2.90172e-06 2.03887e-06 0)
(-2.25787e-06 1.57816e-06 0)
(-1.75443e-06 1.21997e-06 0)
(-1.36135e-06 9.41876e-07 0)
(-1.05489e-06 7.26263e-07 0)
(-8.16301e-07 5.59319e-07 0)
(-6.30835e-07 4.30228e-07 0)
(-4.86871e-07 3.30538e-07 0)
(-3.75282e-07 2.53652e-07 0)
(-2.88908e-07 1.94427e-07 0)
(-2.22143e-07 1.48863e-07 0)
(-1.70603e-07 1.13851e-07 0)
(-1.30867e-07 8.69779e-08 0)
(-1.00271e-07 6.63766e-08 0)
(-7.67419e-08 5.0601e-08 0)
(-5.86683e-08 3.85344e-08 0)
(-4.48019e-08 2.93148e-08 0)
(-3.41758e-08 2.22783e-08 0)
(-2.6042e-08 1.69136e-08 0)
(-1.98231e-08 1.2828e-08 0)
(-1.50734e-08 9.71962e-09 0)
(-1.145e-08 7.35728e-09 0)
(-8.68869e-09 5.56373e-09 0)
(-6.58664e-09 4.20341e-09 0)
(-4.98818e-09 3.17269e-09 0)
(-3.77392e-09 2.39249e-09 0)
(-2.85246e-09 1.8025e-09 0)
(-2.15392e-09 1.35676e-09 0)
(-1.62491e-09 1.02034e-09 0)
(-1.22468e-09 7.66655e-10 0)
(-9.22178e-10 5.75539e-10 0)
(-6.93762e-10 4.31697e-10 0)
(-5.21457e-10 3.23525e-10 0)
(-3.91594e-10 2.42256e-10 0)
(-2.93816e-10 1.8125e-10 0)
(-2.20259e-10 1.3549e-10 0)
(-1.64967e-10 1.01204e-10 0)
(-1.23464e-10 7.55286e-11 0)
(-9.23264e-11 5.6324e-11 0)
(-6.89752e-11 4.19715e-11 0)
(-5.15004e-11 3.12482e-11 0)
(-3.84116e-11 2.32483e-11 0)
(-2.86279e-11 1.72843e-11 0)
(-2.13255e-11 1.28313e-11 0)
(-1.58661e-11 9.51861e-12 0)
(-1.1794e-11 7.06045e-12 0)
(-8.76186e-12 5.23807e-12 0)
(-6.50447e-12 3.879e-12 0)
(-4.83138e-12 2.87e-12 0)
(-3.58557e-12 2.11582e-12 0)
(-2.65378e-12 1.56499e-12 0)
(-1.96138e-12 1.16087e-12 0)
(-1.44916e-12 8.57138e-13 0)
(-1.07078e-12 6.33201e-13 0)
(-7.87641e-13 4.63318e-13 0)
(-5.81721e-13 3.37193e-13 0)
(-4.29856e-13 2.52251e-13 0)
(-3.21749e-13 1.85327e-13 0)
(-2.34233e-13 1.26125e-13 0)
(-1.72457e-13 1.00386e-13 0)
(-1.26125e-13 7.20717e-14 0)
(-9.52376e-14 5.66278e-14 0)
(-6.94977e-14 3.34619e-14 0)
(-5.40538e-14 2.57399e-14 0)
(-4.11838e-14 1.28699e-14 0)
(-2.57399e-14 1.54439e-14 0)
(-2.05919e-14 7.72197e-15 0)
(-1.80179e-14 2.57399e-15 0)
(-0.0034168 0.00283657 0)
(-0.00289358 0.00235566 0)
(-0.00243975 0.00194937 0)
(-0.00204831 0.00160761 0)
(-0.00171254 0.00132133 0)
(-0.00142604 0.00108252 0)
(-0.00118285 0.000884096 0)
(-0.000977445 0.000719851 0)
(-0.00080478 0.000584402 0)
(-0.000660301 0.000473097 0)
(-0.000539937 0.000381947 0)
(-0.000440093 0.000307547 0)
(-0.000357596 0.00024701 0)
(-0.000289693 0.000197905 0)
(-0.000234013 0.000158187 0)
(-0.000188517 0.000126154 0)
(-0.000151465 0.000100387 0)
(-0.000121384 7.97138e-05 0)
(-9.70385e-05 6.31693e-05 0)
(-7.73947e-05 4.99603e-05 0)
(-6.159e-05 3.94386e-05 0)
(-4.89079e-05 3.10758e-05 0)
(-3.87562e-05 2.4443e-05 0)
(-3.06492e-05 1.91932e-05 0)
(-2.419e-05 1.50462e-05 0)
(-1.90559e-05 1.17767e-05 0)
(-1.49843e-05 9.20363e-06 0)
(-1.17627e-05 7.18222e-06 0)
(-9.219e-06 5.5968e-06 0)
(-7.21439e-06 4.35529e-06 0)
(-5.63742e-06 3.38457e-06 0)
(-4.39887e-06 2.62668e-06 0)
(-3.4276e-06 2.0358e-06 0)
(-2.66704e-06 1.57578e-06 0)
(-2.07235e-06 1.21813e-06 0)
(-1.60803e-06 9.40463e-07 0)
(-1.24603e-06 7.2518e-07 0)
(-9.64215e-07 5.5849e-07 0)
(-7.45145e-07 4.29596e-07 0)
(-5.75098e-07 3.30058e-07 0)
(-4.43291e-07 2.53288e-07 0)
(-3.41267e-07 1.94152e-07 0)
(-2.62404e-07 1.48655e-07 0)
(-2.01525e-07 1.13694e-07 0)
(-1.54589e-07 8.686e-08 0)
(-1.18448e-07 6.62881e-08 0)
(-9.06541e-08 5.05348e-08 0)
(-6.93047e-08 3.84849e-08 0)
(-5.2925e-08 2.9278e-08 0)
(-4.03727e-08 2.22509e-08 0)
(-3.07644e-08 1.68933e-08 0)
(-2.3418e-08 1.28129e-08 0)
(-1.78072e-08 9.70851e-09 0)
(-1.35268e-08 7.34909e-09 0)
(-1.02648e-08 5.55773e-09 0)
(-7.78154e-09 4.199e-09 0)
(-5.89318e-09 3.16948e-09 0)
(-4.45868e-09 2.39015e-09 0)
(-3.37008e-09 1.80079e-09 0)
(-2.54483e-09 1.35553e-09 0)
(-1.91984e-09 1.01945e-09 0)
(-1.44698e-09 7.66014e-10 0)
(-1.08958e-09 5.75081e-10 0)
(-8.1972e-10 4.31372e-10 0)
(-6.16138e-10 3.23296e-10 0)
(-4.62703e-10 2.42094e-10 0)
(-3.47177e-10 1.81134e-10 0)
(-2.60269e-10 1.35412e-10 0)
(-1.94946e-10 1.01147e-10 0)
(-1.45904e-10 7.54899e-11 0)
(-1.09099e-10 5.62983e-11 0)
(-8.15157e-11 4.19509e-11 0)
(-6.08594e-11 3.12354e-11 0)
(-4.53923e-11 2.3238e-11 0)
(-3.38325e-11 1.7274e-11 0)
(-2.52045e-11 1.28339e-11 0)
(-1.87541e-11 9.52633e-12 0)
(-1.39356e-11 7.06817e-12 0)
(-1.03577e-11 5.23035e-12 0)
(-7.6885e-12 3.87385e-12 0)
(-5.71168e-12 2.86485e-12 0)
(-4.23164e-12 2.11582e-12 0)
(-3.13254e-12 1.57013e-12 0)
(-2.31402e-12 1.15572e-12 0)
(-1.7117e-12 8.54564e-13 0)
(-1.26898e-12 6.30627e-13 0)
(-9.2921e-13 4.65892e-13 0)
(-6.89829e-13 3.44914e-13 0)
(-5.07076e-13 2.49677e-13 0)
(-3.88672e-13 1.85327e-13 0)
(-2.77991e-13 1.33847e-13 0)
(-1.98197e-13 9.78116e-14 0)
(-1.49291e-13 7.20717e-14 0)
(-1.08108e-13 4.89058e-14 0)
(-8.23676e-14 3.86098e-14 0)
(-6.69237e-14 2.57399e-14 0)
(-4.63318e-14 2.31659e-14 0)
(-2.57399e-14 1.28699e-14 0)
(-3.34619e-14 7.72197e-15 0)
(-2.31659e-14 0 0)
(-0.00394019 0.00283165 0)
(-0.00333682 0.00235158 0)
(-0.00281347 0.00194599 0)
(-0.00236208 0.00160482 0)
(-0.00197487 0.00131905 0)
(-0.00164449 0.00108065 0)
(-0.00136405 0.000882564 0)
(-0.00112717 0.000718603 0)
(-0.000928058 0.000583389 0)
(-0.000761447 0.000472278 0)
(-0.000622646 0.000381285 0)
(-0.000507507 0.000307014 0)
(-0.000412372 0.000246582 0)
(-0.000334069 0.000197562 0)
(-0.000269859 0.000157913 0)
(-0.000217394 0.000125935 0)
(-0.000174666 0.000100213 0)
(-0.000139978 7.95756e-05 0)
(-0.000111903 6.30597e-05 0)
(-8.92504e-05 4.98737e-05 0)
(-7.10247e-05 3.93702e-05 0)
(-5.63996e-05 3.1022e-05 0)
(-4.46927e-05 2.44007e-05 0)
(-3.53438e-05 1.916e-05 0)
(-2.78953e-05 1.50202e-05 0)
(-2.19748e-05 1.17563e-05 0)
(-1.72797e-05 9.18772e-06 0)
(-1.35647e-05 7.16977e-06 0)
(-1.06313e-05 5.58708e-06 0)
(-8.31963e-06 4.34771e-06 0)
(-6.50104e-06 3.37866e-06 0)
(-5.07271e-06 2.62208e-06 0)
(-3.95262e-06 2.03223e-06 0)
(-3.07554e-06 1.57301e-06 0)
(-2.38975e-06 1.216e-06 0)
(-1.8543e-06 9.38821e-07 0)
(-1.43686e-06 7.2392e-07 0)
(-1.11188e-06 5.57525e-07 0)
(-8.59267e-07 4.28859e-07 0)
(-6.6318e-07 3.29497e-07 0)
(-5.11188e-07 2.52861e-07 0)
(-3.93541e-07 1.93828e-07 0)
(-3.02601e-07 1.4841e-07 0)
(-2.32398e-07 1.13508e-07 0)
(-1.78273e-07 8.67202e-08 0)
(-1.36597e-07 6.61829e-08 0)
(-1.04545e-07 5.04558e-08 0)
(-7.99251e-08 3.84257e-08 0)
(-6.1036e-08 2.92336e-08 0)
(-4.65605e-08 2.22178e-08 0)
(-3.548e-08 1.68686e-08 0)
(-2.70079e-08 1.27946e-08 0)
(-2.05373e-08 9.6949e-09 0)
(-1.56008e-08 7.33902e-09 0)
(-1.18388e-08 5.55028e-09 0)
(-8.97489e-09 4.19352e-09 0)
(-6.79703e-09 3.16544e-09 0)
(-5.1426e-09 2.38719e-09 0)
(-3.88708e-09 1.79863e-09 0)
(-2.93527e-09 1.35395e-09 0)
(-2.21443e-09 1.01829e-09 0)
(-1.66905e-09 7.65185e-10 0)
(-1.25682e-09 5.74473e-10 0)
(-9.45547e-10 4.30927e-10 0)
(-7.1073e-10 3.22979e-10 0)
(-5.33755e-10 2.41867e-10 0)
(-4.005e-10 1.80962e-10 0)
(-3.00243e-10 1.35294e-10 0)
(-2.24892e-10 1.01063e-10 0)
(-1.68313e-10 7.54333e-11 0)
(-1.25865e-10 5.62571e-11 0)
(-9.40381e-11 4.19174e-11 0)
(-7.02081e-11 3.12199e-11 0)
(-5.23755e-11 2.32277e-11 0)
(-3.90345e-11 1.72637e-11 0)
(-2.90732e-11 1.28262e-11 0)
(-2.16344e-11 9.52376e-12 0)
(-1.60849e-11 7.0656e-12 0)
(-1.19562e-11 5.23035e-12 0)
(-8.87511e-12 3.87385e-12 0)
(-6.58426e-12 2.86742e-12 0)
(-4.87771e-12 2.12097e-12 0)
(-3.61645e-12 1.57271e-12 0)
(-2.67695e-12 1.15829e-12 0)
(-1.97682e-12 8.57138e-13 0)
(-1.45688e-12 6.30627e-13 0)
(-1.0785e-12 4.68466e-13 0)
(-7.97937e-13 3.39767e-13 0)
(-5.84295e-13 2.47103e-13 0)
(-4.37578e-13 1.80179e-13 0)
(-3.21749e-13 1.44143e-13 0)
(-2.31659e-13 1.00386e-13 0)
(-1.75031e-13 7.46457e-14 0)
(-1.28699e-13 5.14798e-14 0)
(-9.52376e-14 3.60358e-14 0)
(-6.94977e-14 2.57399e-14 0)
(-5.40538e-14 2.31659e-14 0)
(-3.60358e-14 1.28699e-14 0)
(-4.11838e-14 2.57399e-15 0)
(-2.31659e-14 -5.14798e-15 0)
(-0.00446261 0.00282604 0)
(-0.00377924 0.00234691 0)
(-0.0031865 0.00194213 0)
(-0.00267526 0.00160164 0)
(-0.00223671 0.00131643 0)
(-0.00186253 0.00107851 0)
(-0.0015449 0.000880815 0)
(-0.00127662 0.000717179 0)
(-0.00105111 0.000582233 0)
(-0.000862405 0.000471341 0)
(-0.000705201 0.000380529 0)
(-0.000574795 0.000306405 0)
(-0.000467048 0.000246094 0)
(-0.000378362 0.00019717 0)
(-0.000305639 0.0001576 0)
(-0.000246218 0.000125686 0)
(-0.000197825 0.000100014 0)
(-0.000158537 7.94178e-05 0)
(-0.00012674 6.29346e-05 0)
(-0.000101084 4.97748e-05 0)
(-8.04417e-05 3.92922e-05 0)
(-6.38774e-05 3.09605e-05 0)
(-5.06181e-05 2.43524e-05 0)
(-4.00297e-05 1.91221e-05 0)
(-3.15937e-05 1.49905e-05 0)
(-2.48884e-05 1.17331e-05 0)
(-1.95709e-05 9.16952e-06 0)
(-1.53634e-05 7.15555e-06 0)
(-1.20411e-05 5.57597e-06 0)
(-9.42281e-06 4.33905e-06 0)
(-7.36305e-06 3.37191e-06 0)
(-5.7453e-06 2.61684e-06 0)
(-4.47666e-06 2.02816e-06 0)
(-3.48327e-06 1.56987e-06 0)
(-2.70654e-06 1.21357e-06 0)
(-2.10011e-06 9.36952e-07 0)
(-1.62733e-06 7.22483e-07 0)
(-1.25928e-06 5.56424e-07 0)
(-9.73174e-07 4.28017e-07 0)
(-7.51096e-07 3.28854e-07 0)
(-5.78959e-07 2.52371e-07 0)
(-4.45718e-07 1.93456e-07 0)
(-3.42723e-07 1.48127e-07 0)
(-2.63214e-07 1.13294e-07 0)
(-2.01914e-07 8.65585e-08 0)
(-1.54713e-07 6.60609e-08 0)
(-1.18411e-07 5.03639e-08 0)
(-9.05269e-08 3.83566e-08 0)
(-6.91329e-08 2.91818e-08 0)
(-5.27377e-08 2.21789e-08 0)
(-4.01876e-08 1.68396e-08 0)
(-3.05917e-08 1.27729e-08 0)
(-2.32628e-08 9.67877e-09 0)
(-1.76714e-08 7.32703e-09 0)
(-1.34103e-08 5.54138e-09 0)
(-1.01664e-08 4.18694e-09 0)
(-7.6995e-09 3.16058e-09 0)
(-5.82549e-09 2.3836e-09 0)
(-4.40332e-09 1.79599e-09 0)
(-3.32516e-09 1.35201e-09 0)
(-2.50861e-09 1.01687e-09 0)
(-1.8908e-09 7.64135e-10 0)
(-1.42384e-09 5.73719e-10 0)
(-1.07122e-09 4.30371e-10 0)
(-8.052e-10 3.2257e-10 0)
(-6.04715e-10 2.41569e-10 0)
(-4.53753e-10 1.80758e-10 0)
(-3.40168e-10 1.35147e-10 0)
(-2.54807e-10 1.0096e-10 0)
(-1.90707e-10 7.53561e-11 0)
(-1.42612e-10 5.62082e-11 0)
(-1.06555e-10 4.18865e-11 0)
(-7.95517e-11 3.11839e-11 0)
(-5.93459e-11 2.32071e-11 0)
(-4.4234e-11 1.7256e-11 0)
(-3.29471e-11 1.28185e-11 0)
(-2.45121e-11 9.51604e-12 0)
(-1.8229e-11 7.06303e-12 0)
(-1.35469e-11 5.23807e-12 0)
(-1.0054e-11 3.88158e-12 0)
(-7.46457e-12 2.87e-12 0)
(-5.52635e-12 2.12354e-12 0)
(-4.09779e-12 1.56756e-12 0)
(-3.03216e-12 1.16602e-12 0)
(-2.23937e-12 8.57138e-13 0)
(-1.65507e-12 6.33201e-13 0)
(-1.22264e-12 4.63318e-13 0)
(-9.06044e-13 3.42341e-13 0)
(-6.66663e-13 2.52251e-13 0)
(-4.91632e-13 1.90475e-13 0)
(-3.60358e-13 1.38995e-13 0)
(-2.70269e-13 1.00386e-13 0)
(-1.95623e-13 7.46457e-14 0)
(-1.49291e-13 5.66278e-14 0)
(-1.08108e-13 3.86098e-14 0)
(-7.72197e-14 2.57399e-14 0)
(-5.92017e-14 1.80179e-14 0)
(-4.63318e-14 1.0296e-14 0)
(-4.63318e-14 5.14798e-15 0)
(-2.57399e-14 5.14798e-15 0)
(-0.00498392 0.00281973 0)
(-0.00422073 0.00234167 0)
(-0.00355875 0.0019378 0)
(-0.00298778 0.00159806 0)
(-0.002498 0.00131349 0)
(-0.0020801 0.0010761 0)
(-0.00172537 0.000878848 0)
(-0.00142575 0.000715577 0)
(-0.0011739 0.000580932 0)
(-0.000963151 0.000470289 0)
(-0.000787582 0.000379679 0)
(-0.000641942 0.000305721 0)
(-0.000521607 0.000245544 0)
(-0.000422562 0.00019673 0)
(-0.000341344 0.000157249 0)
(-0.000274981 0.000125405 0)
(-0.000220934 9.97906e-05 0)
(-0.000177057 7.92403e-05 0)
(-0.000141546 6.2794e-05 0)
(-0.000112893 4.96636e-05 0)
(-8.98389e-05 3.92044e-05 0)
(-7.13393e-05 3.08914e-05 0)
(-5.65311e-05 2.42981e-05 0)
(-4.47057e-05 1.90795e-05 0)
(-3.52844e-05 1.49571e-05 0)
(-2.77958e-05 1.17069e-05 0)
(-2.18573e-05 9.14904e-06 0)
(-1.71583e-05 7.13955e-06 0)
(-1.34478e-05 5.56349e-06 0)
(-1.05237e-05 4.32932e-06 0)
(-8.22325e-06 3.36434e-06 0)
(-6.41646e-06 2.61096e-06 0)
(-4.99959e-06 2.02361e-06 0)
(-3.89013e-06 1.56634e-06 0)
(-3.02266e-06 1.21085e-06 0)
(-2.34539e-06 9.34854e-07 0)
(-1.81739e-06 7.2087e-07 0)
(-1.40635e-06 5.55187e-07 0)
(-1.08684e-06 4.2707e-07 0)
(-8.38826e-07 3.2813e-07 0)
(-6.46587e-07 2.51819e-07 0)
(-4.97785e-07 1.93035e-07 0)
(-3.82762e-07 1.47808e-07 0)
(-2.93966e-07 1.13052e-07 0)
(-2.25507e-07 8.63748e-08 0)
(-1.72791e-07 6.5922e-08 0)
(-1.32249e-07 5.0259e-08 0)
(-1.01107e-07 3.82776e-08 0)
(-7.72136e-08 2.91224e-08 0)
(-5.89027e-08 2.21343e-08 0)
(-4.4886e-08 1.68062e-08 0)
(-3.41687e-08 1.27479e-08 0)
(-2.59831e-08 9.66009e-09 0)
(-1.97382e-08 7.3131e-09 0)
(-1.49789e-08 5.53102e-09 0)
(-1.13557e-08 4.17923e-09 0)
(-8.60037e-09 3.15486e-09 0)
(-6.50719e-09 2.37936e-09 0)
(-4.91867e-09 1.79285e-09 0)
(-3.71438e-09 1.34969e-09 0)
(-2.8023e-09 1.01517e-09 0)
(-2.1122e-09 7.62881e-10 0)
(-1.59059e-09 5.72795e-10 0)
(-1.19669e-09 4.29702e-10 0)
(-8.99532e-10 3.22078e-10 0)
(-6.75572e-10 2.41201e-10 0)
(-5.06916e-10 1.80493e-10 0)
(-3.80044e-10 1.34949e-10 0)
(-2.84681e-10 1.00813e-10 0)
(-2.13067e-10 7.52531e-11 0)
(-1.5934e-10 5.61258e-11 0)
(-1.19055e-10 4.18299e-11 0)
(-8.88824e-11 3.11504e-11 0)
(-6.63085e-11 2.31788e-11 0)
(-4.94257e-11 1.72329e-11 0)
(-3.68106e-11 1.2803e-11 0)
(-2.73924e-11 9.50574e-12 0)
(-2.0368e-11 7.05016e-12 0)
(-1.51351e-11 5.22777e-12 0)
(-1.1238e-11 3.87643e-12 0)
(-8.34487e-12 2.86742e-12 0)
(-6.18015e-12 2.12097e-12 0)
(-4.57398e-12 1.56756e-12 0)
(-3.38737e-12 1.15829e-12 0)
(-2.50449e-12 8.54564e-13 0)
(-1.85585e-12 6.33201e-13 0)
(-1.36679e-12 4.60744e-13 0)
(-1.009e-12 3.39767e-13 0)
(-7.38735e-13 2.49677e-13 0)
(-5.53408e-13 1.82753e-13 0)
(-4.11838e-13 1.31273e-13 0)
(-2.98583e-13 9.52376e-14 0)
(-2.13641e-13 6.94977e-14 0)
(-1.62161e-13 5.14798e-14 0)
(-1.26125e-13 3.34619e-14 0)
(-9.00896e-14 2.31659e-14 0)
(-7.20717e-14 1.80179e-14 0)
(-5.14798e-14 1.0296e-14 0)
(-4.63318e-14 5.14798e-15 0)
(-2.83139e-14 5.14798e-15 0)
(-0.00550401 0.00281272 0)
(-0.00466117 0.00233585 0)
(-0.00393011 0.00193298 0)
(-0.00329956 0.00159409 0)
(-0.00275867 0.00131023 0)
(-0.00229717 0.00107342 0)
(-0.00190542 0.000876664 0)
(-0.00157454 0.000713799 0)
(-0.00129639 0.000579489 0)
(-0.00106366 0.00046912 0)
(-0.000869769 0.000378736 0)
(-0.000708931 0.000304961 0)
(-0.000576038 0.000244934 0)
(-0.000466657 0.000196241 0)
(-0.000376964 0.000156858 0)
(-0.000303676 0.000125093 0)
(-0.000243989 9.95426e-05 0)
(-0.000195534 7.90434e-05 0)
(-0.000156317 6.2638e-05 0)