/*--------------------------------*- C++ -*----------------------------------*\
| =========                 |                                                 |
| \\      /  F ield         | OpenFOAM: The Open Source CFD Toolbox           |
|  \\    /   O peration     | Version:  2406                                  |
|   \\  /    A nd           | Website:  www.openfoam.com                      |
|    \\/     M anipulation  |                                                 |
\*---------------------------------------------------------------------------*/
FoamFile
{
    version     2.0;
    format      ascii;
    arch        "LSB;label=32;scalar=64";
    class       volScalarField;
    location    "185";
    object      T;
}
// * * * * * * * * * * * * * * * * * * * * * * * * * * * * * * * * * * * * * //

dimensions      [0 0 0 1 0 0 0];

internalField   nonuniform List<scalar> 
20000
(
299.645
299.663
299.682
299.702
299.722
299.741
299.761
299.78
299.799
299.818
299.836
299.854
299.871
299.887
299.903
299.918
299.932
299.945
299.958
299.97
299.981
299.991
300.001
300.01
300.018
300.026
300.032
300.039
300.044
300.049
300.054
300.057
300.061
300.064
300.066
300.068
300.07
300.071
300.072
300.072
300.072
300.072
300.072
300.072
300.071
300.07
300.069
300.068
300.067
300.065
300.064
300.062
300.06
300.059
300.057
300.055
300.053
300.051
300.05
300.048
300.046
300.044
300.042
300.04
300.039
300.037
300.035
300.034
300.032
300.03
300.029
300.027
300.026
300.025
300.023
300.022
300.021
300.019
300.018
300.017
300.016
300.015
300.014
300.013
300.012
300.011
300.01
300.009
300.008
300.008
300.007
300.006
300.005
300.005
300.004
300.003
300.002
300.002
300.001
300
298.934
298.99
299.047
299.106
299.165
299.224
299.283
299.341
299.398
299.454
299.509
299.561
299.613
299.662
299.709
299.753
299.796
299.836
299.874
299.91
299.943
299.974
300.003
300.03
300.055
300.077
300.097
300.116
300.133
300.148
300.161
300.172
300.182
300.191
300.198
300.204
300.209
300.212
300.215
300.217
300.217
300.217
300.216
300.215
300.213
300.21
300.207
300.204
300.2
300.195
300.191
300.186
300.181
300.176
300.171
300.165
300.16
300.154
300.149
300.143
300.138
300.132
300.127
300.121
300.116
300.111
300.106
300.101
300.096
300.091
300.087
300.082
300.078
300.074
300.07
300.066
300.062
300.058
300.055
300.051
300.048
300.045
300.042
300.039
300.036
300.033
300.03
300.028
300.025
300.023
300.02
300.018
300.016
300.014
300.011
300.009
300.007
300.005
300.003
300.001
298.224
298.316
298.412
298.51
298.608
298.706
298.805
298.902
298.997
299.09
299.181
299.269
299.354
299.436
299.514
299.589
299.66
299.727
299.79
299.85
299.905
299.957
300.005
300.05
300.091
300.128
300.162
300.193
300.221
300.246
300.268
300.287
300.304
300.318
300.33
300.34
300.348
300.354
300.358
300.361
300.362
300.362
300.361
300.358
300.355
300.35
300.345
300.339
300.333
300.326
300.318
300.31
300.302
300.293
300.284
300.275
300.266
300.257
300.248
300.238
300.229
300.22
300.211
300.202
300.193
300.185
300.176
300.168
300.16
300.152
300.144
300.137
300.13
300.123
300.116
300.109
300.103
300.097
300.091
300.085
300.08
300.074
300.069
300.064
300.06
300.055
300.05
300.046
300.042
300.038
300.034
300.03
300.026
300.023
300.019
300.015
300.012
300.009
300.005
300.002
297.514
297.644
297.778
297.914
298.052
298.189
298.327
298.462
298.596
298.727
298.854
298.977
299.096
299.211
299.32
299.425
299.524
299.618
299.707
299.79
299.868
299.94
300.008
300.07
300.127
300.18
300.227
300.271
300.309
300.344
300.375
300.402
300.425
300.445
300.462
300.476
300.487
300.495
300.501
300.505
300.507
300.507
300.505
300.501
300.496
300.49
300.483
300.475
300.466
300.456
300.445
300.434
300.422
300.41
300.398
300.385
300.372
300.36
300.347
300.334
300.321
300.308
300.295
300.283
300.271
300.259
300.247
300.235
300.224
300.213
300.202
300.192
300.182
300.172
300.162
300.153
300.144
300.136
300.127
300.119
300.112
300.104
300.097
300.09
300.083
300.077
300.071
300.065
300.059
300.053
300.047
300.042
300.037
300.032
300.027
300.022
300.017
300.012
300.007
300.002
296.804
296.971
297.143
297.319
297.496
297.673
297.849
298.024
298.195
298.363
298.527
298.685
298.838
298.985
299.126
299.261
299.388
299.509
299.623
299.73
299.83
299.923
300.01
300.09
300.164
300.231
300.292
300.348
300.398
300.442
300.482
300.516
300.546
300.572
300.594
300.611
300.626
300.637
300.644
300.649
300.651
300.651
300.649
300.644
300.638
300.63
300.621
300.61
300.598
300.586
300.572
300.558
300.543
300.527
300.511
300.495
300.479
300.462
300.446
300.429
300.412
300.396
300.38
300.364
300.348
300.332
300.317
300.302
300.288
300.274
300.26
300.246
300.233
300.221
300.209
300.197
300.185
300.174
300.164
300.153
300.144
300.134
300.125
300.116
300.107
300.099
300.091
300.083
300.075
300.068
300.061
300.054
300.047
300.041
300.034
300.028
300.022
300.015
300.009
300.003
296.096
296.3
296.51
296.724
296.94
297.157
297.373
297.586
297.795
298.001
298.2
298.394
298.581
298.761
298.933
299.097
299.253
299.4
299.539
299.67
299.792
299.906
300.012
300.11
300.2
300.282
300.357
300.425
300.486
300.54
300.589
300.631
300.668
300.699
300.725
300.747
300.764
300.778
300.787
300.793
300.796
300.796
300.793
300.787
300.78
300.77
300.759
300.746
300.731
300.716
300.699
300.681
300.663
300.644
300.625
300.605
300.585
300.565
300.544
300.524
300.504
300.484
300.464
300.444
300.425
300.406
300.388
300.369
300.352
300.334
300.317
300.301
300.285
300.27
300.255
300.24
300.227
300.213
300.2
300.187
300.175
300.164
300.152
300.141
300.131
300.121
300.111
300.101
300.092
300.083
300.075
300.066
300.058
300.05
300.042
300.034
300.026
300.019
300.011
300.004
295.388
295.629
295.878
296.13
296.386
296.642
296.896
297.148
297.396
297.638
297.874
298.103
298.324
298.536
298.739
298.933
299.117
299.291
299.456
299.61
299.755
299.889
300.014
300.13
300.236
300.333
300.422
300.502
300.574
300.638
300.695
300.745
300.789
300.826
300.857
300.882
300.903
300.919
300.93
300.937
300.94
300.94
300.936
300.93
300.921
300.91
300.896
300.881
300.864
300.845
300.825
300.805
300.783
300.761
300.738
300.714
300.691
300.667
300.643
300.619
300.595
300.571
300.548
300.525
300.502
300.48
300.458
300.436
300.415
300.395
300.375
300.356
300.337
300.319
300.301
300.284
300.268
300.252
300.236
300.221
300.207
300.193
300.18
300.167
300.155
300.143
300.131
300.12
300.109
300.098
300.088
300.078
300.068
300.059
300.049
300.04
300.031
300.022
300.013
300.004
294.682
294.96
295.246
295.538
295.832
296.127
296.421
296.711
296.997
297.276
297.548
297.812
298.067
298.312
298.546
298.769
298.982
299.183
299.372
299.55
299.717
299.872
300.016
300.15
300.272
300.384
300.486
300.579
300.662
300.736
300.802
300.859
300.909
300.952
300.988
301.018
301.041
301.059
301.072
301.08
301.084
301.084
301.08
301.072
301.062
301.049
301.033
301.016
300.996
300.975
300.952
300.928
300.903
300.877
300.851
300.824
300.797
300.769
300.741
300.714
300.686
300.659
300.632
300.605
300.579
300.553
300.528
300.503
300.479
300.455
300.432
300.41
300.389
300.368
300.347
300.328
300.309
300.29
300.272
300.255
300.239
300.223
300.208
300.193
300.178
300.164
300.151
300.138
300.126
300.113
300.102
300.09
300.079
300.068
300.057
300.046
300.036
300.026
300.015
300.005
293.977
294.292
294.616
294.946
295.28
295.614
295.946
296.275
296.599
296.915
297.223
297.522
297.811
298.088
298.353
298.606
298.847
299.074
299.289
299.491
299.68
299.855
300.019
300.169
300.308
300.435
300.551
300.655
300.75
300.834
300.908
300.973
301.03
301.078
301.119
301.153
301.179
301.2
301.214
301.224
301.228
301.227
301.223
301.215
301.203
301.188
301.17
301.15
301.128
301.104
301.078
301.051
301.023
300.994
300.964
300.933
300.902
300.871
300.84
300.808
300.777
300.746
300.716
300.686
300.656
300.627
300.598
300.57
300.542
300.516
300.49
300.465
300.44
300.416
300.393
300.371
300.349
300.329
300.309
300.289
300.271
300.252
300.235
300.218
300.202
300.186
300.171
300.156
300.142
300.128
300.115
300.102
300.089
300.077
300.065
300.053
300.041
300.029
300.017
300.006
293.273
293.625
293.987
294.356
294.728
295.101
295.473
295.84
296.201
296.555
296.899
297.233
297.555
297.864
298.161
298.443
298.712
298.966
299.206
299.431
299.642
299.839
300.021
300.189
300.344
300.486
300.615
300.732
300.837
300.931
301.014
301.087
301.15
301.204
301.25
301.287
301.317
301.34
301.356
301.367
301.371
301.371
301.366
301.356
301.343
301.327
301.307
301.285
301.26
301.233
301.204
301.174
301.142
301.11
301.076
301.042
301.008
300.973
300.938
300.903
300.868
300.834
300.799
300.766
300.732
300.7
300.668
300.636
300.606
300.576
300.547
300.519
300.491
300.465
300.439
300.414
300.39
300.367
300.345
300.323
300.302
300.282
300.262
300.244
300.226
300.208
300.191
300.175
300.159
300.143
300.128
300.114
300.1
300.086
300.072
300.059
300.045
300.032
300.019
300.006
292.571
292.959
293.359
293.767
294.178
294.59
295
295.406
295.805
296.195
296.575
296.944
297.3
297.641
297.969
298.281
298.578
298.859
299.123
299.372
299.605
299.822
300.023
300.209
300.38
300.537
300.679
300.808
300.924
301.028
301.12
301.2
301.27
301.33
301.38
301.422
301.455
301.48
301.498
301.509
301.514
301.514
301.508
301.498
301.483
301.465
301.443
301.419
301.391
301.361
301.33
301.296
301.261
301.225
301.188
301.151
301.113
301.074
301.036
300.997
300.959
300.921
300.883
300.845
300.809
300.773
300.737
300.703
300.669
300.636
300.604
300.573
300.543
300.513
300.485
300.458
300.431
300.405
300.381
300.357
300.334
300.311
300.29
300.269
300.249
300.23
300.211
300.193
300.175
300.158
300.142
300.126
300.11
300.095
300.08
300.065
300.05
300.036
300.021
300.007
291.871
292.296
292.733
293.179
293.629
294.08
294.529
294.973
295.41
295.837
296.253
296.656
297.045
297.419
297.777
298.119
298.444
298.751
299.041
299.313
299.568
299.805
300.025
300.229
300.416
300.587
300.743
300.885
301.012
301.125
301.225
301.314
301.39
301.455
301.51
301.556
301.592
301.619
301.639
301.651
301.657
301.657
301.65
301.639
301.623
301.603
301.579
301.552
301.522
301.49
301.455
301.418
301.38
301.341
301.301
301.259
301.218
301.176
301.133
301.091
301.049
301.007
300.966
300.925
300.885
300.846
300.807
300.769
300.732
300.696
300.661
300.627
300.594
300.562
300.531
300.501
300.472
300.444
300.417
300.39
300.365
300.341
300.317
300.295
300.273
300.251
300.231
300.211
300.192
300.173
300.155
300.138
300.12
300.104
300.087
300.071
300.055
300.039
300.023
300.008
291.173
291.634
292.109
292.593
293.082
293.572
294.059
294.541
295.015
295.479
295.931
296.369
296.791
297.198
297.587
297.958
298.31
298.644
298.958
299.254
299.53
299.788
300.027
300.248
300.452
300.638
300.807
300.961
301.098
301.222
301.331
301.426
301.509
301.58
301.64
301.689
301.728
301.758
301.78
301.793
301.799
301.799
301.792
301.78
301.763
301.741
301.715
301.686
301.653
301.618
301.58
301.54
301.499
301.456
301.412
301.367
301.322
301.276
301.231
301.185
301.139
301.094
301.049
301.005
300.961
300.918
300.876
300.835
300.795
300.756
300.718
300.681
300.645
300.61
300.576
300.544
300.512
300.482
300.452
300.424
300.396
300.37
300.344
300.32
300.296
300.273
300.251
300.229
300.208
300.188
300.169
300.149
300.131
300.112
300.095
300.077
300.06
300.042
300.025
300.008
290.477
290.975
291.487
292.01
292.537
293.065
293.591
294.111
294.622
295.123
295.61
296.082
296.538
296.977
297.396
297.796
298.177
298.537
298.876
299.195
299.493
299.771
300.029
300.268
300.487
300.688
300.871
301.036
301.185
301.318
301.436
301.539
301.628
301.705
301.769
301.822
301.865
301.897
301.92
301.935
301.941
301.941
301.933
301.92
301.902
301.878
301.85
301.819
301.783
301.745
301.705
301.662
301.617
301.571
301.524
301.475
301.426
301.377
301.328
301.278
301.229
301.18
301.132
301.084
301.037
300.991
300.945
300.901
300.858
300.815
300.774
300.735
300.696
300.658
300.622
300.587
300.553
300.52
300.488
300.457
300.428
300.399
300.372
300.345
300.319
300.295
300.271
300.247
300.225
300.203
300.182
300.161
300.141
300.121
300.102
300.083
300.064
300.046
300.027
300.009
289.783
290.317
290.867
291.428
291.993
292.56
293.124
293.682
294.231
294.768
295.29
295.797
296.286
296.756
297.207
297.636
298.044
298.43
298.794
299.136
299.456
299.755
300.032
300.287
300.523
300.738
300.934
301.112
301.271
301.414
301.54
301.651
301.747
301.829
301.898
301.955
302
302.035
302.06
302.075
302.083
302.082
302.074
302.06
302.04
302.015
301.985
301.951
301.913
301.872
301.829
301.783
301.735
301.685
301.634
301.583
301.53
301.477
301.424
301.371
301.318
301.266
301.214
301.163
301.112
301.063
301.014
300.967
300.92
300.875
300.831
300.788
300.746
300.706
300.667
300.629
300.593
300.558
300.523
300.491
300.459
300.428
300.399
300.37
300.343
300.316
300.29
300.265
300.241
300.218
300.195
300.173
300.151
300.13
300.109
300.089
300.069
300.049
300.029
300.01
289.092
289.662
290.25
290.848
291.452
292.057
292.659
293.255
293.84
294.414
294.972
295.513
296.035
296.537
297.018
297.476
297.912
298.324
298.713
299.078
299.42
299.738
300.034
300.307
300.558
300.788
300.997
301.187
301.357
301.51
301.644
301.763
301.865
301.953
302.027
302.087
302.136
302.173
302.199
302.216
302.223
302.223
302.215
302.199
302.178
302.151
302.119
302.083
302.043
301.999
301.952
301.903
301.852
301.799
301.745
301.69
301.634
301.577
301.521
301.464
301.408
301.352
301.296
301.241
301.188
301.135
301.083
301.032
300.982
300.934
300.887
300.841
300.797
300.754
300.712
300.672
300.633
300.595
300.559
300.524
300.49
300.457
300.426
300.395
300.366
300.337
300.31
300.283
300.258
300.233
300.208
300.185
300.162
300.139
300.117
300.095
300.074
300.052
300.031
300.01
288.404
289.01
289.634
290.27
290.912
291.556
292.196
292.829
293.452
294.061
294.654
295.23
295.785
296.318
296.829
297.317
297.78
298.218
298.631
299.02
299.383
299.722
300.036
300.326
300.593
300.838
301.06
301.262
301.443
301.605
301.748
301.874
301.983
302.076
302.154
302.219
302.27
302.31
302.338
302.356
302.364
302.363
302.354
302.338
302.316
302.287
302.253
302.214
302.172
302.125
302.076
302.023
301.969
301.913
301.855
301.796
301.737
301.677
301.617
301.556
301.496
301.437
301.378
301.32
301.262
301.206
301.151
301.097
301.044
300.993
300.943
300.894
300.847
300.801
300.757
300.714
300.673
300.633
300.594
300.557
300.521
300.486
300.452
300.42
300.389
300.359
300.329
300.301
300.274
300.247
300.221
300.196
300.172
300.148
300.124
300.101
300.078
300.056
300.033
300.011
287.718
288.36
289.021
289.695
290.375
291.056
291.734
292.405
293.065
293.71
294.338
294.948
295.536
296.101
296.642
297.158
297.649
298.113
298.551
298.962
299.347
299.705
300.038
300.346
300.628
300.887
301.123
301.336
301.528
301.7
301.851
301.985
302.1
302.199
302.282
302.35
302.405
302.446
302.476
302.495
302.503
302.503
302.494
302.477
302.453
302.422
302.386
302.345
302.3
302.251
302.198
302.143
302.085
302.026
301.965
301.903
301.84
301.776
301.712
301.648
301.585
301.522
301.459
301.398
301.337
301.278
301.219
301.162
301.106
301.052
300.999
300.947
300.897
300.849
300.802
300.757
300.713
300.67
300.629
300.59
300.552
300.515
300.479
300.445
300.412
300.38
300.349
300.319
300.29
300.262
300.235
300.208
300.182
300.156
300.132
300.107
300.083
300.059
300.035
300.012
287.036
287.713
288.411
289.122
289.84
290.559
291.275
291.983
292.679
293.36
294.024
294.667
295.288
295.884
296.455
297
297.518
298.008
298.47
298.904
299.31
299.689
300.04
300.365
300.663
300.937
301.185
301.411
301.613
301.794
301.954
302.095
302.217
302.321
302.409
302.481
302.538
302.582
302.614
302.634
302.643
302.642
302.632
302.614
302.589
302.557
302.519
302.476
302.428
302.376
302.321
302.262
302.201
302.139
302.074
302.008
301.942
301.875
301.807
301.74
301.673
301.606
301.541
301.475
301.411
301.348
301.287
301.226
301.168
301.11
301.054
301
300.947
300.896
300.847
300.799
300.752
300.707
300.664
300.623
300.582
300.543
300.506
300.47
300.435
300.401
300.368
300.337
300.306
300.276
300.248
300.219
300.192
300.165
300.139
300.113
300.088
300.062
300.037
300.012
286.356
287.07
287.804
288.552
289.308
290.065
290.818
291.563
292.296
293.013
293.711
294.387
295.041
295.668
296.27
296.843
297.388
297.904
298.39
298.847
299.274
299.672
300.042
300.384
300.698
300.986
301.248
301.485
301.698
301.888
302.057
302.205
302.333
302.443
302.535
302.611
302.671
302.718
302.751
302.772
302.781
302.78
302.77
302.751
302.724
302.691
302.651
302.605
302.555
302.5
302.442
302.381
302.317
302.251
302.183
302.114
302.044
301.973
301.902
301.831
301.761
301.691
301.621
301.553
301.485
301.419
301.354
301.291
301.229
301.168
301.109
301.052
300.997
300.943
300.891
300.84
300.792
300.745
300.699
300.655
300.613
300.572
300.532
300.494
300.458
300.422
300.388
300.354
300.322
300.291
300.261
300.231
300.202
300.174
300.146
300.119
300.092
300.066
300.039
300.013
285.68
286.429
287.2
287.985
288.778
289.572
290.363
291.145
291.914
292.666
293.399
294.109
294.795
295.454
296.085
296.687
297.258
297.8
298.31
298.79
299.238
299.656
300.044
300.403
300.733
301.035
301.309
301.558
301.782
301.982
302.159
302.314
302.448
302.564
302.66
302.74
302.804
302.852
302.887
302.909
302.919
302.918
302.907
302.887
302.859
302.824
302.782
302.734
302.682
302.624
302.563
302.499
302.432
302.362
302.291
302.218
302.145
302.071
301.996
301.922
301.848
301.774
301.702
301.63
301.559
301.489
301.421
301.355
301.29
301.226
301.164
301.104
301.046
300.99
300.935
300.882
300.831
300.781
300.734
300.688
300.643
300.6
300.559
300.519
300.48
300.443
300.407
300.372
300.338
300.305
300.273
300.242
300.212
300.182
300.153
300.125
300.097
300.069
300.041
300.014
285.008
285.792
286.599
287.421
288.251
289.083
289.91
290.729
291.534
292.322
293.089
293.833
294.55
295.24
295.901
296.531
297.13
297.696
298.231
298.733
299.202
299.64
300.046
300.422
300.767
301.083
301.371
301.631
301.866
302.075
302.26
302.423
302.563
302.684
302.785
302.869
302.935
302.986
303.023
303.045
303.056
303.055
303.044
303.023
302.994
302.957
302.913
302.863
302.808
302.748
302.683
302.616
302.546
302.473
302.398
302.322
302.246
302.168
302.09
302.012
301.935
301.858
301.781
301.706
301.632
301.559
301.488
301.418
301.35
301.284
301.219
301.156
301.095
301.036
300.979
300.923
300.87
300.818
300.768
300.72
300.673
300.628
300.585
300.543
300.503
300.464
300.426
300.389
300.354
300.32
300.286
300.254
300.222
300.191
300.161
300.131
300.101
300.072
300.043
300.014
284.339
285.158
286.001
286.86
287.727
288.596
289.46
290.316
291.157
291.98
292.781
293.558
294.307
295.028
295.718
296.376
297.002
297.594
298.152
298.676
299.167
299.624
300.048
300.441
300.801
301.131
301.432
301.704
301.949
302.167
302.361
302.531
302.678
302.804
302.91
302.997
303.066
303.119
303.157
303.181
303.192
303.191
303.179
303.158
303.127
303.089
303.043
302.991
302.933
302.87
302.803
302.733
302.659
302.583
302.505
302.426
302.346
302.265
302.183
302.102
302.021
301.941
301.861
301.782
301.705
301.629
301.554
301.482
301.41
301.341
301.274
301.208
301.144
301.082
301.023
300.965
300.909
300.855
300.802
300.752
300.703
300.656
300.611
300.567
300.525
300.484
300.445
300.407
300.37
300.334
300.299
300.265
300.232
300.2
300.168
300.137
300.106
300.075
300.045
300.015
283.674
284.528
285.407
286.302
287.206
288.112
289.013
289.904
290.781
291.639
292.474
293.284
294.066
294.817
295.536
296.223
296.874
297.492
298.073
298.62
299.131
299.608
300.05
300.459
300.835
301.179
301.493
301.776
302.032
302.259
302.461
302.638
302.791
302.923
303.033
303.124
303.196
303.252
303.291
303.316
303.328
303.327
303.314
303.292
303.26
303.22
303.172
303.118
303.057
302.992
302.922
302.849
302.772
302.693
302.612
302.529
302.445
302.361
302.276
302.191
302.107
302.023
301.94
301.858
301.777
301.698
301.62
301.544
301.47
301.398
301.328
301.259
301.193
301.128
301.066
301.006
300.947
300.891
300.836
300.784
300.733
300.684
300.637
300.591
300.547
300.505
300.464
300.424
300.385
300.348
300.312
300.276
300.242
300.208
300.175
300.142
300.11
300.078
300.047
300.016
283.014
283.902
284.816
285.748
286.688
287.63
288.568
289.496
290.408
291.301
292.17
293.012
293.826
294.607
295.356
296.07
296.748
297.39
297.995
298.564
299.096
299.592
300.053
300.478
300.869
301.227
301.553
301.848
302.114
302.351
302.561
302.745
302.904
303.041
303.156
303.25
303.326
303.383
303.425
303.451
303.462
303.461
303.449
303.425
303.392
303.35
303.3
303.244
303.181
303.113
303.04
302.964
302.884
302.802
302.717
302.631
302.544
302.456
302.368
302.28
302.192
302.105
302.018
301.933
301.849
301.767
301.686
301.607
301.53
301.455
301.381
301.31
301.241
301.174
301.109
301.046
300.986
300.927
300.87
300.816
300.763
300.712
300.663
300.615
300.57
300.525
300.483
300.441
300.401
300.362
300.324
300.288
300.252
300.216
300.182
300.148
300.115
300.082
300.049
300.016
282.357
283.279
284.229
285.197
286.173
287.152
288.126
289.09
290.037
290.964
291.867
292.742
293.587
294.399
295.176
295.918
296.622
297.289
297.918
298.509
299.061
299.576
300.055
300.496
300.903
301.275
301.613
301.92
302.196
302.442
302.66
302.851
303.017
303.159
303.278
303.376
303.454
303.514
303.557
303.584
303.596
303.595
303.582
303.558
303.523
303.48
303.428
303.369
303.304
303.233
303.158
303.079
302.996
302.91
302.823
302.733
302.643
302.551
302.46
302.368
302.277
302.186
302.096
302.008
301.921
301.835
301.751
301.669
301.589
301.511
301.435
301.361
301.289
301.219
301.152
301.087
301.024
300.963
300.904
300.847
300.792
300.739
300.688
300.639
300.592
300.546
300.501
300.458
300.417
300.376
300.337
300.299
300.261
300.225
300.189
300.154
300.119
300.085
300.051
300.017
281.705
282.661
283.646
284.649
285.662
286.677
287.687
288.686
289.669
290.63
291.566
292.474
293.35
294.192
294.998
295.767
296.497
297.189
297.841
298.453
299.027
299.561
300.057
300.515
300.936
301.322
301.673
301.991
302.277
302.532
302.758
302.956
303.128
303.275
303.399
303.501
303.582
303.644
303.689
303.716
303.729
303.728
303.714
303.689
303.653
303.608
303.555
303.494
303.426
303.353
303.275
303.192
303.107
303.018
302.927
302.834
302.74
302.646
302.551
302.456
302.361
302.267
302.174
302.082
301.992
301.903
301.816
301.731
301.648
301.567
301.488
301.411
301.337
301.264
301.195
301.127
301.062
300.998
300.937
300.878
300.822
300.767
300.714
300.663
300.613
300.566
300.52
300.475
300.432
300.39
300.349
300.31
300.271
300.233
300.196
300.159
300.124
300.088
300.053
300.018
281.057
282.047
283.067
284.106
285.155
286.206
287.251
288.286
289.303
290.299
291.268
292.207
293.114
293.986
294.821
295.617
296.373
297.089
297.764
298.399
298.992
299.545
300.059
300.533
300.969
301.369
301.732
302.061
302.357
302.622
302.856
303.061
303.239
303.391
303.519
303.625
303.709
303.773
303.819
303.848
303.861
303.86
303.846
303.82
303.783
303.736
303.68
303.617
303.547
303.472
303.391
303.305
303.217
303.125
303.031
302.935
302.837
302.739
302.641
302.542
302.444
302.347
302.251
302.156
302.062
301.97
301.88
301.792
301.706
301.622
301.54
301.461
301.384
301.309
301.237
301.167
301.099
301.034
300.971
300.91
300.851
300.794
300.739
300.686
300.635
300.586
300.538
300.492
300.447
300.404
300.362
300.321
300.281
300.241
300.203
300.165
300.128
300.091
300.055
300.018
280.414
281.438
282.492
283.566
284.651
285.737
286.819
287.888
288.94
289.969
290.971
291.943
292.881
293.782
294.645
295.468
296.25
296.991
297.689
298.344
298.958
299.53
300.061
300.551
301.002
301.415
301.791
302.131
302.437
302.711
302.953
303.165
303.349
303.506
303.639
303.748
303.835
303.901
303.949
303.979
303.992
303.991
303.976
303.949
303.911
303.863
303.805
303.74
303.668
303.589
303.506
303.418
303.326
303.231
303.133
303.034
302.934
302.832
302.73
302.629
302.527
302.427
302.327
302.229
302.132
302.037
301.944
301.853
301.764
301.677
301.593
301.511
301.431
301.354
301.279
301.206
301.136
301.069
301.004
300.94
300.88
300.821
300.764
300.71
300.657
300.606
300.556
300.509
300.462
300.418
300.374
300.332
300.29
300.25
300.21
300.171
300.132
300.094
300.056
300.019
279.776
280.833
281.922
283.031
284.15
285.273
286.389
287.493
288.58
289.642
290.677
291.68
292.648
293.579
294.47
295.32
296.128
296.892
297.613
298.29
298.924
299.515
300.063
300.569
301.035
301.461
301.849
302.201
302.517
302.799
303.049
303.268
303.458
303.621
303.757
303.87
303.96
304.028
304.077
304.108
304.122
304.121
304.106
304.078
304.039
303.989
303.929
303.862
303.787
303.706
303.62
303.529
303.434
303.336
303.236
303.133
303.029
302.925
302.819
302.714
302.61
302.506
302.403
302.302
302.202
302.104
302.007
301.913
301.821
301.732
301.645
301.56
301.478
301.398
301.321
301.246
301.174
301.104
301.036
300.971
300.908
300.848
300.789
300.733
300.678
300.626
300.575
300.525
300.478
300.431
300.386
300.342
300.3
300.258
300.217
300.176
300.137
300.097
300.058
300.019
279.142
280.233
281.356
282.499
283.654
284.811
285.963
287.102
288.222
289.318
290.385
291.42
292.418
293.378
294.297
295.174
296.007
296.795
297.539
298.237
298.89
299.499
300.065
300.587
301.067
301.507
301.907
302.27
302.596
302.887
303.144
303.37
303.566
303.734
303.875
303.991
304.084
304.155
304.205
304.237
304.252
304.25
304.235
304.206
304.165
304.114
304.052
303.983
303.906
303.823
303.733
303.64
303.542
303.441
303.337
303.231
303.124
303.016
302.908
302.799
302.692
302.584
302.478
302.374
302.271
302.17
302.07
301.973
301.878
301.786
301.696
301.609
301.524
301.442
301.362
301.285
301.21
301.138
301.069
301.002
300.937
300.874
300.814
300.756
300.699
300.645
300.593
300.542
300.492
300.445
300.398
300.353
300.309
300.266
300.223
300.182
300.141
300.1
300.06
300.02
278.514
279.638
280.794
281.972
283.162
284.354
285.54
286.713
287.867
288.996
290.096
291.161
292.19
293.179
294.126
295.029
295.887
296.699
297.464
298.184
298.857
299.484
300.066
300.604
301.099
301.552
301.965
302.338
302.674
302.974
303.239
303.472
303.674
303.847
303.992
304.111
304.207
304.28
304.332
304.365
304.38
304.378
304.362
304.332
304.29
304.237
304.175
304.103
304.024
303.938
303.846
303.749
303.648
303.544
303.437
303.328
303.218
303.107
302.995
302.884
302.773
302.662
302.553
302.445
302.339
302.235
302.133
302.033
301.935
301.84
301.747
301.657
301.57
301.485
301.403
301.323
301.247
301.172
301.101
301.032
300.965
300.901
300.838
300.778
300.72
300.665
300.61
300.558
300.507
300.458
300.41
300.364
300.318
300.274
300.23
300.187
300.145
300.103
300.062
300.021
277.891
279.047
280.237
281.45
282.674
283.9
285.121
286.328
287.516
288.677
289.809
290.905
291.964
292.981
293.955
294.884
295.767
296.603
297.391
298.131
298.824
299.469
300.068
300.622
301.131
301.597
302.022
302.406
302.751
303.06
303.333
303.572
303.78
303.958
304.108
304.231
304.329
304.404
304.457
304.491
304.507
304.505
304.489
304.458
304.415
304.36
304.296
304.222
304.14
304.052
303.957
303.858
303.754
303.647
303.537
303.425
303.311
303.197
303.082
302.967
302.853
302.739
302.627
302.516
302.407
302.3
302.194
302.092
301.991
301.893
301.798
301.705
301.615
301.528
301.444
301.362
301.283
301.206
301.133
301.062
300.993
300.927
300.863
300.801
300.741
300.684
300.628
300.574
300.522
300.471
300.422
300.374
300.327
300.282
300.237
300.193
300.149
300.106
300.064
300.021
277.274
278.462
279.686
280.932
282.19
283.451
284.706
285.947
287.167
288.361
289.524
290.651
291.739
292.785
293.786
294.742
295.649
296.508
297.318
298.079
298.791
299.454
300.07
300.639
301.163
301.642
302.078
302.473
302.828
303.145
303.426
303.672
303.886
304.069
304.222
304.349
304.45
304.527
304.582
304.616
304.632
304.631
304.614
304.582
304.538
304.482
304.415
304.34
304.256
304.165
304.068
303.966
303.859
303.749
303.636
303.521
303.404
303.286
303.168
303.05
302.933
302.816
302.7
302.586
302.474
302.364
302.256
302.15
302.047
301.946
301.848
301.753
301.66
301.571
301.484
301.4
301.319
301.24
301.164
301.091
301.021
300.953
300.887
300.823
300.762
300.703
300.646
300.59
300.537
300.485
300.434
300.385
300.337
300.29
300.243
300.198
300.153
300.109
300.065
300.022
276.662
277.883
279.139
280.418
281.711
283.005
284.294
285.568
286.822
288.048
289.242
290.4
291.517
292.591
293.619
294.6
295.532
296.414
297.246
298.027
298.758
299.44
300.072
300.657
301.194
301.686
302.134
302.54
302.904
303.23
303.518
303.771
303.99
304.178
304.336
304.466
304.569
304.649
304.705
304.741
304.757
304.756
304.738
304.706
304.66
304.603
304.534
304.457
304.37
304.277
304.177
304.072
303.963
303.85
303.734
303.615
303.496
303.375
303.253
303.132
303.012
302.892
302.773
302.656
302.541
302.427
302.316
302.208
302.102
301.998
301.898
301.8
301.705
301.613
301.524
301.438
301.354
301.274
301.196
301.121
301.048
300.978
300.911
300.845
300.783
300.722
300.663
300.606
300.551
300.498
300.446
300.395
300.346
300.297
300.25
300.203
300.158
300.112
300.067
300.022
276.056
277.308
278.597
279.91
281.236
282.564
283.886
285.193
286.479
287.737
288.963
290.15
291.297
292.398
293.454
294.46
295.416
296.321
297.174
297.976
298.726
299.425
300.074
300.674
301.225
301.73
302.189
302.605
302.98
303.314
303.61
303.869
304.094
304.287
304.448
304.582
304.688
304.769
304.827
304.864
304.881
304.879
304.861
304.828
304.781
304.722
304.652
304.572
304.484
304.388
304.286
304.178
304.066
303.95
303.831
303.709
303.586
303.462
303.338
303.214
303.09
302.967
302.845
302.725
302.607
302.491
302.377
302.265
302.156
302.05
301.947
301.847
301.749
301.655
301.563
301.475
301.389
301.307
301.227
301.15
301.075
301.004
300.934
300.867
300.803
300.741
300.68
300.622
300.565
300.511
300.457
300.405
300.355
300.305
300.256
300.209
300.162
300.115
300.069
300.023
275.456
276.739
278.061
279.406
280.765
282.127
283.482
284.822
286.14
287.43
288.686
289.903
291.078
292.208
293.289
294.321
295.301
296.229
297.104
297.925
298.694
299.411
300.076
300.69
301.256
301.773
302.244
302.671
303.054
303.397
303.7
303.966
304.197
304.394
304.56
304.696
304.805
304.889
304.948
304.986
305.003
305.001
304.983
304.949
304.901
304.84
304.769
304.687
304.596
304.498
304.393
304.283
304.168
304.049
303.927
303.802
303.676
303.549
303.422
303.294
303.167
303.041
302.916
302.793
302.672
302.553
302.436
302.322
302.21
302.102
301.996
301.893
301.793
301.696
301.603
301.512
301.424
301.339
301.258
301.179
301.102
301.029
300.958
300.889
300.823
300.759
300.697
300.637
300.58
300.523