/*--------------------------------*- C++ -*----------------------------------*\
| =========                 |                                                 |
| \\      /  F ield         | OpenFOAM: The Open Source CFD Toolbox           |
|  \\    /   O peration     | Version:  2406                                  |
|   \\  /    A nd           | Website:  www.openfoam.com                      |
|    \\/     M anipulation  |                                                 |
\*---------------------------------------------------------------------------*/
FoamFile
{
    version     2.0;
    format      ascii;
    arch        "LSB;label=32;scalar=64";
    class       volScalarField;
    location    "155";
    object      T;
}
// * * * * * * * * * * * * * * * * * * * * * * * * * * * * * * * * * * * * * //

dimensions      [0 0 0 1 0 0 0];

internalField   nonuniform List<scalar> 
20000
(
299.511
299.548
299.585
299.619
299.653
299.685
299.716
299.745
299.774
299.8
299.826
299.851
299.874
299.896
299.917
299.937
299.956
299.974
299.99
300.006
300.021
300.035
300.047
300.059
300.071
300.081
300.09
300.099
300.107
300.115
300.121
300.127
300.133
300.138
300.142
300.146
300.149
300.152
300.154
300.156
300.157
300.158
300.159
300.159
300.159
300.159
300.159
300.158
300.157
300.156
300.154
300.152
300.151
300.149
300.146
300.144
300.141
300.139
300.136
300.133
300.13
300.128
300.124
300.121
300.118
300.115
300.112
300.108
300.105
300.102
300.098
300.095
300.092
300.088
300.085
300.081
300.078
300.075
300.071
300.068
300.064
300.061
300.058
300.054
300.051
300.047
300.044
300.041
300.038
300.034
300.031
300.028
300.024
300.021
300.018
300.015
300.011
300.008
300.005
300.002
298.533
298.645
298.754
298.858
298.958
299.055
299.147
299.236
299.321
299.402
299.479
299.552
299.622
299.689
299.752
299.811
299.868
299.921
299.971
300.018
300.062
300.104
300.142
300.178
300.212
300.243
300.271
300.297
300.322
300.344
300.364
300.382
300.398
300.413
300.425
300.437
300.446
300.455
300.462
300.467
300.472
300.475
300.477
300.478
300.478
300.478
300.476
300.474
300.471
300.467
300.462
300.457
300.452
300.445
300.439
300.432
300.424
300.417
300.409
300.4
300.391
300.383
300.373
300.364
300.355
300.345
300.335
300.325
300.315
300.305
300.295
300.285
300.275
300.265
300.254
300.244
300.234
300.224
300.213
300.203
300.193
300.183
300.173
300.163
300.152
300.142
300.132
300.122
300.113
300.103
300.093
300.083
300.073
300.063
300.054
300.044
300.034
300.024
300.015
300.005
297.556
297.743
297.923
298.097
298.264
298.425
298.579
298.727
298.868
299.003
299.131
299.254
299.37
299.481
299.586
299.686
299.78
299.868
299.952
300.03
300.104
300.173
300.237
300.297
300.353
300.404
300.452
300.496
300.536
300.573
300.606
300.636
300.663
300.687
300.709
300.728
300.744
300.758
300.769
300.779
300.786
300.791
300.795
300.797
300.797
300.796
300.793
300.789
300.784
300.778
300.77
300.762
300.753
300.742
300.731
300.72
300.707
300.694
300.681
300.667
300.652
300.637
300.622
300.607
300.591
300.575
300.559
300.542
300.525
300.509
300.492
300.475
300.458
300.441
300.424
300.407
300.39
300.373
300.356
300.339
300.322
300.305
300.288
300.271
300.254
300.237
300.221
300.204
300.188
300.171
300.155
300.138
300.122
300.105
300.089
300.073
300.057
300.04
300.024
300.008
296.579
296.841
297.093
297.337
297.571
297.796
298.011
298.218
298.415
298.604
298.784
298.956
299.119
299.274
299.421
299.56
299.691
299.815
299.932
300.042
300.145
300.242
300.332
300.416
300.493
300.566
300.632
300.694
300.75
300.801
300.848
300.89
300.928
300.962
300.992
301.018
301.041
301.06
301.077
301.09
301.1
301.108
301.113
301.115
301.116
301.114
301.11
301.105
301.098
301.089
301.078
301.066
301.053
301.039
301.024
301.007
300.99
300.972
300.953
300.933
300.913
300.892
300.871
300.849
300.827
300.805
300.782
300.759
300.735
300.712
300.688
300.665
300.641
300.617
300.593
300.569
300.545
300.522
300.498
300.474
300.45
300.426
300.403
300.379
300.356
300.332
300.309
300.286
300.262
300.239
300.216
300.193
300.17
300.148
300.125
300.102
300.079
300.057
300.034
300.011
295.603
295.939
296.264
296.577
296.878
297.167
297.444
297.709
297.963
298.206
298.437
298.658
298.867
299.067
299.256
299.434
299.603
299.763
299.913
300.054
300.187
300.31
300.426
300.534
300.634
300.727
300.813
300.892
300.964
301.03
301.09
301.144
301.193
301.237
301.275
301.309
301.338
301.363
301.384
301.401
301.414
301.424
301.43
301.434
301.434
301.432
301.427
301.42
301.411
301.399
301.386
301.371
301.354
301.335
301.316
301.295
301.272
301.249
301.225
301.2
301.174
301.147
301.119
301.091
301.063
301.034
301.005
300.975
300.945
300.915
300.885
300.854
300.824
300.793
300.762
300.732
300.701
300.67
300.64
300.609
300.578
300.548
300.518
300.487
300.457
300.427
300.397
300.367
300.337
300.308
300.278
300.249
300.219
300.19
300.16
300.131
300.102
300.073
300.044
300.015
294.628
295.039
295.436
295.818
296.185
296.538
296.877
297.201
297.512
297.808
298.091
298.36
298.616
298.86
299.09
299.309
299.515
299.71
299.894
300.066
300.228
300.379
300.521
300.652
300.775
300.888
300.993
301.089
301.178
301.259
301.332
301.398
301.458
301.511
301.558
301.599
301.635
301.665
301.691
301.711
301.727
301.739
301.747
301.751
301.752
301.749
301.744
301.735
301.723
301.709
301.693
301.675
301.654
301.632
301.607
301.582
301.555
301.526
301.496
301.465
301.434
301.401
301.368
301.333
301.299
301.263
301.228
301.191
301.155
301.118
301.081
301.044
301.006
300.969
300.932
300.894
300.856
300.819
300.781
300.744
300.707
300.67
300.632
300.595
300.559
300.522
300.485
300.449
300.412
300.376
300.34
300.304
300.268
300.232
300.196
300.16
300.125
300.089
300.053
300.018
293.654
294.14
294.609
295.06
295.494
295.911
296.311
296.694
297.061
297.411
297.745
298.063
298.366
298.653
298.926
299.184
299.428
299.658
299.874
300.078
300.269
300.448
300.615
300.771
300.915
301.049
301.173
301.287
301.391
301.487
301.573
301.652
301.722
301.785
301.84
301.889
301.931
301.967
301.997
302.021
302.04
302.055
302.064
302.069
302.07
302.066
302.06
302.049
302.036
302.019
302
301.978
301.954
301.927
301.899
301.868
301.836
301.803
301.767
301.731
301.694
301.655
301.615
301.575
301.534
301.492
301.45
301.407
301.364
301.321
301.277
301.233
301.189
301.145
301.1
301.056
301.012
300.967
300.923
300.879
300.835
300.791
300.747
300.703
300.66
300.616
300.573
300.53
300.487
300.444
300.401
300.359
300.316
300.274
300.232
300.189
300.147
300.105
300.063
300.021
292.682
293.242
293.783
294.303
294.804
295.285
295.746
296.188
296.61
297.014
297.399
297.766
298.115
298.447
298.761
299.059
299.34
299.605
299.855
300.09
300.31
300.517
300.709
300.889
301.055
301.21
301.353
301.484
301.604
301.714
301.814
301.905
301.986
302.058
302.122
302.178
302.227
302.268
302.303
302.331
302.353
302.369
302.38
302.386
302.387
302.383
302.375
302.363
302.348
302.329
302.306
302.281
302.253
302.222
302.19
302.155
302.118
302.079
302.038
301.996
301.953
301.908
301.863
301.816
301.769
301.721
301.672
301.623
301.573
301.523
301.473
301.422
301.371
301.32
301.269
301.218
301.167
301.116
301.064
301.014
300.963
300.912
300.861
300.811
300.761
300.711
300.661
300.611
300.561
300.512
300.463
300.414
300.365
300.316
300.267
300.218
300.17
300.121
300.073
300.024
291.712
292.346
292.959
293.548
294.115
294.66
295.182
295.682
296.161
296.618
297.055
297.47
297.865
298.241
298.597
298.934
299.252
299.553
299.836
300.102
300.352
300.585
300.803
301.007
301.195
301.37
301.532
301.681
301.817
301.942
302.055
302.157
302.249
302.331
302.404
302.467
302.522
302.569
302.608
302.64
302.665
302.683
302.696
302.702
302.703
302.699
302.69
302.676
302.659
302.637
302.612
302.583
302.552
302.517
302.48
302.44
302.398
302.354
302.308
302.261
302.212
302.162
302.11
302.057
302.004
301.949
301.894
301.838
301.782
301.725
301.668
301.61
301.553
301.495
301.437
301.379
301.321
301.263
301.206
301.148
301.09
301.033
300.976
300.919
300.862
300.805
300.748
300.692
300.636
300.58
300.524
300.468
300.413
300.358
300.302
300.247
300.192
300.137
300.082
300.027
290.743
291.452
292.136
292.794
293.428
294.036
294.619
295.178
295.713
296.223
296.71
297.175
297.616
298.035
298.433
298.809
299.165
299.501
299.817
300.114
300.393
300.654
300.897
301.124
301.335
301.53
301.711
301.877
302.029
302.168
302.295
302.409
302.512
302.603
302.684
302.755
302.817
302.869
302.913
302.949
302.976
302.997
303.011
303.018
303.019
303.014
303.004
302.989
302.969
302.945
302.917
302.885
302.85
302.811
302.77
302.725
302.678
302.629
302.578
302.525
302.47
302.414
302.356
302.298
302.238
302.177
302.115
302.053
301.99
301.926
301.863
301.798
301.734
301.67
301.605
301.54
301.476
301.411
301.346
301.282
301.218
301.154
301.09
301.026
300.962
300.899
300.836
300.773
300.71
300.648
300.585
300.523
300.461
300.399
300.338
300.276
300.215
300.153
300.092
300.031
289.777
290.56
291.315
292.042
292.742
293.413
294.058
294.675
295.265
295.829
296.367
296.88
297.367
297.83
298.269
298.685
299.078
299.449
299.798
300.126
300.434
300.722
300.991
301.242
301.474
301.69
301.889
302.073
302.241
302.395
302.534
302.661
302.774
302.875
302.965
303.043
303.111
303.169
303.217
303.256
303.287
303.31
303.325
303.333
303.334
303.329
303.318
303.301
303.279
303.253
303.222
303.186
303.147
303.105
303.059
303.01
302.958
302.904
302.847
302.789
302.728
302.666
302.602
302.537
302.471
302.404
302.336
302.267
302.197
302.127
302.057
301.986
301.915
301.844
301.772
301.701
301.63
301.558
301.487
301.416
301.345
301.274
301.203
301.133
301.063
300.993
300.923
300.854
300.784
300.715
300.646
300.578
300.509
300.441
300.373
300.305
300.237
300.169
300.102
300.034
288.814
289.671
290.497
291.292
292.058
292.793
293.498
294.173
294.819
295.436
296.025
296.586
297.119
297.626
298.106
298.561
298.991
299.397
299.779
300.138
300.475
300.79
301.084
301.359
301.613
301.849
302.068
302.268
302.452
302.62
302.773
302.911
303.035
303.146
303.244
303.33
303.404
303.467
303.52
303.563
303.597
303.622
303.638
303.647
303.648
303.642
303.63
303.612
303.588
303.559
303.525
303.487
303.444
303.397
303.347
303.293
303.237
303.177
303.116
303.051
302.985
302.917
302.848
302.776
302.704
302.63
302.556
302.481
302.405
302.328
302.251
302.173
302.096
302.018
301.94
301.861
301.783
301.705
301.627
301.549
301.472
301.394
301.317
301.24
301.163
301.086
301.01
300.934
300.858
300.783
300.707
300.632
300.557
300.483
300.408
300.334
300.259
300.185
300.111
300.037
287.853
288.784
289.681
290.545
291.375
292.174
292.939
293.672
294.374
295.044
295.683
296.292
296.872
297.422
297.944
298.438
298.904
299.345
299.76
300.15
300.515
300.858
301.177
301.475
301.752
302.008
302.245
302.463
302.663
302.845
303.011
303.161
303.296
303.416
303.523
303.616
303.696
303.765
303.822
303.869
303.906
303.933
303.95
303.96
303.961
303.955
303.942
303.922
303.896
303.865
303.828
303.786
303.74
303.689
303.634
303.576
303.515
303.45
303.383
303.313
303.242
303.168
303.092
303.015
302.936
302.856
302.775
302.694
302.611
302.528
302.444
302.36
302.276
302.191
302.106
302.021
301.936
301.852
301.767
301.682
301.598
301.514
301.43
301.346
301.263
301.18
301.097
301.014
300.932
300.85
300.768
300.687
300.605
300.524
300.443
300.362
300.282
300.201
300.121
300.04
286.896
287.899
288.867
289.799
290.696
291.556
292.382
293.174
293.93
294.653
295.343
296
296.625
297.219
297.781
298.314
298.818
299.293
299.741
300.161
300.556
300.925
301.27
301.591
301.89
302.167
302.422
302.657
302.873
303.07
303.249
303.411
303.556
303.686
303.8
303.901
303.988
304.062
304.124
304.174
304.214
304.243
304.262
304.272
304.274
304.267
304.253
304.232
304.204
304.17
304.13
304.085
304.034
303.98
303.921
303.858
303.792
303.722
303.65
303.575
303.497
303.417
303.336
303.253
303.168
303.082
302.994
302.906
302.817
302.727
302.637
302.546
302.455
302.364
302.272
302.181
302.089
301.998
301.906
301.815
301.724
301.633
301.543
301.452
301.362
301.273
301.183
301.094
301.005
300.917
300.829
300.741
300.653
300.565
300.478
300.391
300.304
300.217
300.13
300.043
285.941
287.018
288.056
289.056
290.018
290.942
291.828
292.676
293.488
294.264
295.004
295.709
296.379
297.016
297.62
298.192
298.732
299.242
299.722
300.173
300.596
300.993
301.363
301.707
302.028
302.324
302.599
302.851
303.082
303.293
303.485
303.659
303.815
303.954
304.077
304.185
304.278
304.358
304.424
304.478
304.52
304.552
304.572
304.583
304.585
304.578
304.563
304.54
304.51
304.473
304.431
304.382
304.328
304.27
304.206
304.139
304.068
303.993
303.916
303.835
303.752
303.666
303.579
303.489
303.398
303.306
303.212
303.118
303.022
302.926
302.829
302.732
302.634
302.536
302.438
302.339
302.241
302.143
302.045
301.947
301.849
301.752
301.655
301.558
301.462
301.365
301.269
301.174
301.079
300.984
300.889
300.795
300.701
300.607
300.513
300.419
300.326
300.233
300.14
300.047
284.99
286.14
287.248
288.316
289.343
290.329
291.275
292.181
293.048
293.876
294.666
295.418
296.134
296.814
297.459
298.069
298.646
299.19
299.703
300.185
300.637
301.06
301.455
301.823
302.165
302.482
302.774
303.044
303.291
303.516
303.721
303.906
304.073
304.221
304.353
304.468
304.568
304.652
304.723
304.781
304.826
304.86
304.882
304.893
304.895
304.888
304.871
304.847
304.815
304.776
304.73
304.678
304.621
304.558
304.491
304.419
304.343
304.263
304.18
304.094
304.006
303.914
303.821
303.725
303.628
303.53
303.43
303.329
303.227
303.124
303.02
302.916
302.812
302.707
302.603
302.498
302.393
302.288
302.183
302.079
301.975
301.871
301.767
301.663
301.56
301.458
301.355
301.253
301.152
301.05
300.949
300.848
300.748
300.648
300.548
300.448
300.348
300.249
300.149
300.05
284.043
285.265
286.444
287.578
288.67
289.718
290.724
291.687
292.609
293.489
294.329
295.129
295.89
296.613
297.298
297.947
298.561
299.139
299.684
300.196
300.677
301.127
301.547
301.938
302.301
302.638
302.949
303.236
303.498
303.738
303.956
304.153
304.33
304.488
304.628
304.75
304.856
304.946
305.021
305.083
305.131
305.166
305.19
305.202
305.204
305.196
305.179
305.153
305.119
305.077
305.029
304.974
304.913
304.846
304.774
304.698
304.617
304.533
304.444
304.353
304.258
304.161
304.062
303.961
303.857
303.752
303.646
303.539
303.43
303.321
303.211
303.1
302.989
302.878
302.767
302.655
302.544
302.432
302.321
302.21
302.099
301.989
301.878
301.768
301.659
301.55
301.441
301.332
301.224
301.117
301.009
300.902
300.795
300.689
300.582
300.476
300.37
300.264
300.159
300.053
283.1
284.394
285.642
286.844
288
289.111
290.176
291.196
292.172
293.105
293.994
294.841
295.647
296.413
297.139
297.826
298.476
299.088
299.666
300.208
300.717
301.193
301.638
302.053
302.438
302.794
303.124
303.427
303.705
303.959
304.19
304.398
304.586
304.753
304.901
305.031
305.143
305.238
305.318
305.383
305.434
305.472
305.497
305.51
305.512
305.503
305.485
305.457
305.421
305.377
305.326
305.268
305.203
305.133
305.057
304.976
304.89
304.801
304.707
304.61
304.51
304.407
304.302
304.195
304.085
303.974
303.862
303.748
303.633
303.517
303.401
303.284
303.166
303.048
302.93
302.812
302.694
302.576
302.458
302.341
302.223
302.106
301.989
301.873
301.757
301.641
301.526
301.411
301.297
301.183
301.069
300.955
300.842
300.729
300.617
300.504
300.392
300.28
300.168
300.056
282.16
283.527
284.844
286.113
287.333
288.505
289.63
290.707
291.737
292.721
293.66
294.555
295.406
296.214
296.98
297.705
298.391
299.038
299.647
300.22
300.757
301.26
301.729
302.167
302.573
302.95
303.297
303.617
303.911
304.179
304.423
304.643
304.841
305.017
305.174
305.31
305.429
305.53
305.614
305.682
305.736
305.776
305.802
305.816
305.818
305.809
305.79
305.761
305.723
305.676
305.622
305.561
305.492
305.418
305.338
305.252
305.162
305.067
304.969
304.866
304.761
304.652
304.541
304.428
304.312
304.195
304.076
303.956
303.835
303.713
303.59
303.466
303.342
303.218
303.093
302.969
302.844
302.719
302.595
302.471
302.347
302.223
302.1
301.977
301.855
301.733
301.611
301.49
301.369
301.248
301.128
301.008
300.889
300.77
300.651
300.532
300.414
300.295
300.177
300.059
281.226
282.664
284.05
285.385
286.67
287.903
289.086
290.22
291.304
292.34
293.328
294.269
295.165
296.015
296.822
297.585
298.307
298.987
299.628
300.231
300.796
301.326
301.82
302.28
302.708
303.104
303.47
303.807
304.116
304.398
304.654
304.886
305.094
305.28
305.445
305.589
305.713
305.819
305.908
305.98
306.037
306.078
306.106
306.121
306.123
306.113
306.093
306.063
306.023
305.974
305.917
305.852
305.78
305.702
305.617
305.527
305.432
305.333
305.229
305.121
305.01
304.896
304.779
304.66
304.538
304.415
304.29
304.163
304.036
303.907
303.778
303.648
303.517
303.386
303.255
303.124
302.993
302.862
302.731
302.6
302.47
302.34
302.21
302.081
301.952
301.823
301.695
301.568
301.44
301.314
301.187
301.061
300.936
300.81
300.685
300.56
300.435
300.311
300.187
300.062
280.296
281.805
283.26
284.661
286.009
287.304
288.546
289.735
290.873
291.96
292.998
293.985
294.925
295.818
296.664
297.465
298.223
298.937
299.61
300.243
300.836
301.391
301.91
302.393
302.842
303.258
303.642
303.996
304.32
304.616
304.885
305.128
305.347
305.542
305.714
305.865
305.996
306.108
306.201
306.276
306.336
306.379
306.409
306.424
306.426
306.416
306.395
306.363
306.321
306.27
306.21
306.142
306.066
305.984
305.896
305.801
305.702
305.597
305.488
305.375
305.259
305.139
305.016
304.891
304.763
304.634
304.502
304.37
304.236
304.101
303.965
303.828
303.691
303.554
303.417
303.279
303.141
303.004
302.866
302.729
302.592
302.456
302.319
302.184
302.048
301.914
301.779
301.645
301.512
301.379
301.246
301.114
300.982
300.85
300.719
300.588
300.457
300.326
300.196
300.065
279.37
280.95
282.474
283.941
285.352
286.708
288.008
289.253
290.445
291.583
292.669
293.703
294.687
295.621
296.507
297.346
298.139
298.887
299.592
300.254
300.875
301.457
302
302.505
302.975
303.411
303.813
304.183
304.523
304.833
305.114
305.369
305.598
305.802
305.983
306.141
306.278
306.394
306.492
306.571
306.633
306.679
306.709
306.725
306.728
306.717
306.695
306.662
306.618
306.564
306.501
306.43
306.351
306.265
306.172
306.074
305.969
305.86
305.746
305.627
305.505
305.38
305.252
305.12
304.987
304.851
304.714
304.575
304.435
304.293
304.151
304.008
303.865
303.721
303.577
303.433
303.289
303.145
303.001
302.857
302.714
302.571
302.428
302.286
302.145
302.003
301.863
301.723
301.583
301.443
301.305
301.166
301.028
300.89
300.753
300.615
300.478
300.342
300.205
300.068
278.45
280.101
281.692
283.225
284.699
286.115
287.473
288.774
290.019
291.208
292.342
293.422
294.45
295.426
296.352
297.228
298.056
298.838
299.574
300.265
300.914
301.522
302.089
302.617
303.108
303.563
303.983
304.37
304.724
305.048
305.342
305.609
305.848
306.061
306.25
306.415
306.558
306.68
306.781
306.864
306.929
306.977
307.009
307.025
307.028
307.017
306.994
306.959
306.913
306.857
306.791
306.717
306.635
306.545
306.448
306.345
306.236
306.121
306.002
305.878
305.751
305.62
305.486
305.349
305.209
305.068
304.924
304.779
304.632
304.485
304.336
304.187
304.037
303.887
303.737
303.586
303.435
303.285
303.135
302.985
302.835
302.686
302.537
302.388
302.24
302.093
301.946
301.799
301.653
301.508
301.363
301.218
301.074
300.93
300.786
300.643
300.5
300.357
300.214
300.071
277.535
279.256
280.915
282.513
284.049
285.525
286.941
288.297
289.595
290.834
292.017
293.143
294.214
295.232
296.197
297.11
297.974
298.788
299.555
300.277
300.953
301.586
302.177
302.728
303.24
303.714
304.152
304.555
304.925
305.263
305.569
305.847
306.096
306.318
306.515
306.687
306.836
306.963
307.069
307.156
307.223
307.273
307.306
307.324
307.326
307.315
307.291
307.254
307.206
307.148
307.08
307.002
306.916
306.822
306.722
306.614
306.5
306.381
306.257
306.128
305.995
305.859
305.719
305.576
305.43
305.283
305.133
304.982
304.829
304.675
304.52
304.365
304.209
304.052
303.895
303.738
303.581
303.424
303.268
303.111
302.955
302.8
302.644
302.49
302.335
302.182
302.028
301.876
301.724
301.572
301.421
301.27
301.119
300.969
300.82
300.67
300.521
300.372
300.223
300.074
276.626
278.416
280.142
281.805
283.404
284.939
286.413
287.824
289.174
290.463
291.693
292.865
293.98
295.039
296.043
296.993
297.892
298.739
299.537
300.288
300.992
301.65
302.266
302.839
303.371
303.865
304.32
304.74
305.124
305.476
305.795
306.083
306.343
306.574
306.779
306.958
307.113
307.245
307.356
307.445
307.516
307.567
307.602
307.62
307.623
307.611
307.586
307.548
307.498
307.437
307.366
307.286
307.196
307.099
306.994
306.882
306.763
306.639
306.51
306.376
306.238
306.096
305.95
305.802
305.65
305.497
305.341
305.183
305.025
304.864
304.703
304.541
304.379
304.216
304.053
303.89
303.726
303.563
303.4
303.237
303.075
302.913
302.751
302.59
302.43
302.27
302.111
301.952
301.793
301.635
301.478
301.321
301.165
301.009
300.853
300.697
300.542
300.387
300.232
300.077
275.722
277.582
279.375
281.101
282.762
284.357
285.887
287.353
288.755
290.095
291.372
292.59
293.747
294.847
295.89
296.877
297.81
298.69
299.52
300.299
301.03
301.714
302.353
302.948
303.502
304.014
304.487
304.923
305.322
305.687
306.019
306.318
306.588
306.828
307.041
307.227
307.388
307.525
307.64
307.733
307.806
307.86
307.896
307.915
307.917
307.905
307.879
307.84
307.788
307.725
307.651
307.567
307.474
307.373
307.264
307.148
307.025
306.896
306.762
306.623
306.479
306.331
306.18
306.026
305.869
305.709
305.547
305.384
305.219
305.052
304.885
304.717
304.548
304.379
304.209
304.04
303.87
303.701
303.531
303.362
303.194
303.026
302.858
302.691
302.524
302.358
302.192
302.027
301.863
301.699
301.535
301.372
301.21
301.048
300.886
300.724
300.563
300.402
300.241
300.08
274.825
276.753
278.612
280.403
282.125
283.779
285.366
286.885
288.339
289.728
291.053
292.316
293.516
294.657
295.738
296.762
297.729
298.642
299.502
300.31
301.068
301.778
302.44
303.057
303.631
304.162
304.653
305.105
305.519
305.897
306.241
306.552
306.831
307.08
307.301
307.494
307.661
307.803
307.922
308.019
308.095
308.151
308.188
308.207
308.21
308.198
308.17
308.129
308.076
308.01
307.934
307.847
307.751
307.646
307.532
307.412
307.285
307.151
307.012
306.867
306.718
306.565
306.409
306.249
306.086
305.92
305.752
305.583
305.412
305.239
305.066
304.891
304.716
304.541
304.365
304.189
304.013
303.838
303.662
303.487
303.312
303.137
302.963
302.79
302.617
302.445
302.273
302.102
301.932
301.762
301.592
301.423
301.254
301.086
300.919
300.751
300.584
300.417
300.25
300.083
273.933
275.93
277.855
279.709
281.492
283.205
284.847
286.421
287.927
289.365
290.737
292.044
293.287
294.467
295.587
296.647
297.649
298.594
299.484
300.321
301.106
301.84
302.527
303.166
303.76
304.31
304.818
305.286
305.715
306.106
306.462
306.784
307.073
307.331
307.559
307.759
307.932
308.08
308.203
308.303
308.381
308.439
308.478
308.498
308.501
308.488
308.46
308.417
308.362
308.294
308.215
308.125
308.025
307.916
307.799
307.674
307.542
307.404
307.26
307.111
306.956
306.798
306.636
306.47
306.301
306.13
305.956
305.781
305.603
305.425
305.245
305.065
304.883
304.702
304.52
304.338
304.155
303.973
303.792
303.61
303.429
303.249
303.068
302.889
302.71
302.531
302.354
302.177
302
301.824
301.648
301.473
301.299
301.125
300.951
300.778
300.605
300.432
300.259
300.086
273.049
275.113
277.103
279.02
280.864
282.634
284.333
285.96
287.517
289.004
290.422
291.773
293.059
294.28
295.437
296.533
297.569
298.546
299.467
300.332
301.143
301.903
302.612
303.273
303.887
304.456
304.982
305.465
305.909
306.314
306.682
307.014
307.313
307.58
307.816
308.023
308.202
308.354
308.481
308.585
308.666
308.726
308.765
308.786
308.789
308.776
308.747
308.703
308.646
308.576
308.494
308.401
308.298
308.185
308.064
307.935
307.799
307.656
307.506
307.352
307.193
307.029
306.861
306.689
306.515
306.338
306.158
305.977
305.794
305.609
305.423
305.236
305.049
304.861
304.673
304.485
304.296
304.108
303.92
303.733
303.546
303.359
303.173
302.987
302.802
302.617
302.434
302.25
302.068
301.886
301.704
301.523
301.343
301.163
300.983
300.804
300.625
300.446
300.268
300.089
272.17
274.302
276.357
278.336
280.24
282.069
283.822
285.503
287.11
288.645
290.11
291.505
292.833
294.093
295.288
296.42
297.49
298.499
299.449
300.343
301.181
301.965
302.697
303.38
304.014
304.601
305.144
305.643
306.101
306.519
306.899
307.243
307.552
307.827
308.071
308.284
308.469
308.626
308.758
308.865
308.948
309.01
309.051
309.073
309.076
309.062
309.032
308.987
308.927
308.855
308.77
308.674
308.568
308.452
308.327
308.193
308.053
307.905
307.751
307.592
307.427
307.258
307.084
306.907
306.727
306.544
306.359
306.172
305.982
305.792
305.6
305.407
305.214
305.02
304.825
304.631
304.436
304.242
304.048
303.854
303.661
303.468
303.276
303.084
302.893
302.703
302.513
302.324
302.135
301.947
301.76
301.573
301.387
301.201
301.015
300.83
300.645
300.461
300.276
300.092
271.299
273.497
275.617
277.658
279.621
281.507
283.316
285.049
286.706
288.29
289.8
291.239
292.608
293.908
295.141
296.308
297.411
298.452
299.432
300.353
301.218
302.026
302.782
303.486
304.14
304.745
305.305
305.82
306.292
306.723
307.115
307.47
307.788
308.072
308.323
308.544
308.734
308.896
309.032
309.142
309.228
309.292
309.335
309.357
309.36
309.346
309.315
309.268
309.207
309.132
309.045
308.946
308.836
308.716
308.587
308.45
308.305
308.152
307.994
307.829
307.659
307.485
307.306
307.124
306.938
306.749
306.558
306.365
306.17
305.973
305.775
305.576
305.377
305.177
304.976
304.776
304.575
304.375
304.175
303.975
303.776
303.577
303.379
303.181
302.984
302.787
302.592
302.397
302.202
302.008
301.815
301.622
301.43
301.238
301.047
300.856
300.666
300.475
300.285
300.095
270.435
272.699
274.882
276.985
279.008
280.95
282.813
284.598
286.306
287.937
289.493
290.976
292.386
293.725
294.995
296.197
297.333
298.405
299.415
300.364
301.254
302.087
302.866
303.591
304.264
304.888
305.465
305.995
306.482
306.926
307.33
307.695
308.023
308.315
308.574
308.801
308.997
309.164
309.304
309.417
309.506
309.572
309.616
309.639
309.642
309.627
309.595
309.547
309.484
309.407
309.317
309.215
309.102
308.979
308.846
308.704
308.555
308.398
308.235
308.065
307.89
307.71
307.526
307.338
307.147
306.952
306.756
306.556
306.355
306.153
305.949
305.744
305.539
305.333
305.126
304.92
304.713
304.507
304.301
304.095
303.889
303.685
303.48
303.277
303.074
302.871
302.67
302.469
302.268
302.069
301.87
301.671
301.473
301.276
301.079
300.882
300.686
300.49
300.294
300.098
269.578
271.908
274.154
276.318
278.399
280.398
282.315
284.152
285.909
287.587
289.189
290.714
292.165
293.543
294.85
296.087
297.256
298.359
299.398
300.374
301.291
302.148
302.949
303.695
304.388
305.03
305.623
306.169
306.67
307.127
307.542
307.918
308.255
308.556
308.823
309.056
309.258
309.43
309.574
309.69
309.782
309.849
309.894
309.918
309.921
309.906
309.873
309.824
309.759
309.68
309.587
309.483
309.366
309.239
309.102
308.957
308.803
308.641
308.473
308.299
308.119
307.934
307.744
307.551
307.354
307.154
306.951
306.747
306.54
306.331
306.122
305.911
305.699
305.487
305.275
305.062
304.85
304.637
304.425
304.213
304.002
303.791
303.581
303.372
303.163
302.955
302.747
302.54
302.334
302.129
301.924
301.72
301.516
301.313
301.11
300.908
300.706
300.504
300.302
300.101
268.728
271.123
273.433
275.657
277.796
279.851
281.821
283.709
285.515
287.241
288.887
290.455
291.946
293.363
294.706
295.977
297.179
298.313
299.381
300.385
301.327
302.208
303.031
303.798
304.51
305.17
305.78
306.341
306.856
307.326
307.753
308.139
308.486
308.795
309.069
309.309
309.516
309.693
309.841
309.961
310.055
310.124
310.171
310.195
310.199
310.183
310.149
310.098
310.032
309.95
309.855
309.747
309.628
309.497
309.357
309.207
309.049
308.883
308.71
308.531
308.346
308.155
307.961
307.762
307.559
307.354
307.146
306.935
306.722
306.508
306.293
306.076
305.859
305.641
305.422
305.204
304.985
304.767
304.549
304.331
304.114
303.897
303.681
303.466
303.251
303.037
302.824
302.611
302.399
302.188
301.978
301.768
301.558
301.349
301.141
300.933
300.725
300.518
300.311
300.104
267.886
270.346
272.717
275.002
277.198
279.308
281.332
283.271
285.126
286.897
288.588
290.198
291.729
293.184
294.563
295.869
297.103
298.268
299.364
300.395
301.362
302.267
303.113
303.9
304.632
305.31
305.936
306.512
307.04
307.523
307.961
308.358
308.714
309.032
309.313
309.559
309.772
309.954
310.106
310.229
310.326
310.397
310.444
310.469
310.473
310.457
310.422
310.37
310.302
310.218
310.12
310.01
309.887
309.753
309.609
309.455
309.292
309.122
308.944
308.76
308.57
308.375
308.175
307.971
307.763
307.552
307.338
307.122
306.903
306.683
306.462
306.239
306.016
305.792
305.568
305.344
305.119
304.895
304.671
304.448
304.225
304.002
303.78
303.559
303.339
303.119
302.9
302.681
302.464
302.247
302.031
301.815
301.6
301.386
301.172
300.958
300.745
300.532
300.319
300.106
267.052
269.576
272.009
274.352
276.606
278.771
280.847
282.836
284.739
286.557
288.291
289.943
291.514
293.007
294.422
295.762
297.028
298.223
299.348
300.406
301.398
302.326
303.194
304.001
304.752
305.448
306.09
306.681
307.223
307.718
308.168
308.575
308.94
309.266
309.555
309.808
310.026
310.213
310.368
310.495
310.594
310.667
310.716
310.741
310.745
310.728
310.693
310.639
310.569
310.483
310.383
310.27
310.144
310.006
309.858
309.7
309.534
309.359
309.177
308.988
308.793
308.592
308.387
308.178
307.964
307.748
307.528
307.306
307.083
306.857
306.63
306.401
306.172
305.943
305.713
305.483
305.252
305.022
304.793
304.563
304.334
304.106
303.878
303.651
303.425
303.2
302.975
302.751
302.528
302.305
302.084
301.862
301.642
301.422
301.202
300.983
300.764
300.546
300.327
300.109
266.227
268.813
271.307
273.71
276.02
278.239
280.367
282.406
284.357
286.22
287.998
289.691
291.302
292.832
294.282
295.656
296.954
298.178
299.332
300.416
301.433
302.385
303.274
304.102
304.871
305.584
306.242
306.848
307.404
307.912
308.373
308.79
309.164
309.499
309.794
310.053
310.278
310.469
310.628
310.758
310.859
310.934
310.984
311.01
311.014
310.997
310.961
310.906
310.834
310.746
310.643
310.527
310.398
310.257
310.105
309.943
309.772
309.593
309.407
309.213
309.013
308.808
308.597
308.383
308.164
307.942
307.717
307.49
307.26
307.029
306.796
306.562
306.327
306.092
305.856
305.62
305.384
305.148
304.913
304.678
304.443
304.209
303.976
303.743
303.511
303.28