/*--------------------------------*- C++ -*----------------------------------*\
| =========                 |                                                 |
| \\      /  F ield         | OpenFOAM: The Open Source CFD Toolbox           |
|  \\    /   O peration     | Version:  2406                                  |
|   \\  /    A nd           | Website:  www.openfoam.com                      |
|    \\/     M anipulation  |                                                 |
\*---------------------------------------------------------------------------*/
FoamFile
{
    version     2.0;
    format      ascii;
    arch        "LSB;label=32;scalar=64";
    class       volScalarField;
    location    "165";
    object      T;
}
// * * * * * * * * * * * * * * * * * * * * * * * * * * * * * * * * * * * * * //

dimensions      [0 0 0 1 0 0 0];

internalField   nonuniform List<scalar> 
20000
(
299.495
299.529
299.562
299.594
299.626
299.656
299.685
299.713
299.74
299.766
299.791
299.815
299.837
299.859
299.88
299.899
299.918
299.935
299.952
299.968
299.982
299.996
300.009
300.021
300.032
300.042
300.052
300.061
300.069
300.076
300.083
300.089
300.095
300.1
300.104
300.108
300.111
300.114
300.117
300.119
300.12
300.122
300.123
300.123
300.123
300.123
300.123
300.123
300.122
300.121
300.12
300.118
300.117
300.115
300.113
300.111
300.109
300.107
300.105
300.102
300.1
300.097
300.095
300.092
300.09
300.087
300.084
300.082
300.079
300.076
300.074
300.071
300.068
300.066
300.063
300.06
300.058
300.055
300.052
300.05
300.047
300.044
300.042
300.039
300.037
300.034
300.032
300.029
300.027
300.025
300.022
300.02
300.017
300.015
300.013
300.01
300.008
300.006
300.003
300.001
298.485
298.587
298.687
298.783
298.877
298.968
299.055
299.139
299.22
299.298
299.373
299.444
299.512
299.577
299.639
299.698
299.753
299.806
299.856
299.903
299.947
299.988
300.027
300.063
300.096
300.127
300.156
300.183
300.207
300.229
300.25
300.268
300.285
300.299
300.313
300.324
300.334
300.343
300.35
300.357
300.361
300.365
300.368
300.37
300.37
300.37
300.369
300.368
300.365
300.362
300.359
300.355
300.35
300.345
300.339
300.334
300.327
300.321
300.314
300.307
300.3
300.292
300.285
300.277
300.269
300.261
300.253
300.245
300.237
300.229
300.221
300.213
300.205
300.197
300.189
300.181
300.173
300.165
300.157
300.149
300.141
300.133
300.126
300.118
300.111
300.103
300.096
300.088
300.081
300.074
300.067
300.06
300.052
300.045
300.038
300.031
300.024
300.017
300.01
300.003
297.475
297.646
297.811
297.973
298.129
298.28
298.425
298.566
298.701
298.83
298.955
299.074
299.187
299.296
299.399
299.496
299.589
299.677
299.76
299.838
299.911
299.98
300.044
300.104
300.16
300.212
300.26
300.304
300.345
300.382
300.416
300.447
300.474
300.499
300.521
300.54
300.557
300.572
300.584
300.594
300.602
300.608
300.613
300.616
300.617
300.617
300.615
300.613
300.609
300.604
300.598
300.591
300.583
300.575
300.566
300.556
300.546
300.535
300.523
300.512
300.5
300.487
300.475
300.462
300.449
300.435
300.422
300.409
300.395
300.382
300.368
300.355
300.341
300.328
300.314
300.301
300.288
300.274
300.261
300.248
300.235
300.222
300.21
300.197
300.184
300.172
300.16
300.147
300.135
300.123
300.111
300.099
300.087
300.076
300.064
300.052
300.041
300.029
300.017
300.006
296.466
296.705
296.937
297.162
297.381
297.592
297.796
297.992
298.181
298.363
298.537
298.703
298.862
299.014
299.158
299.295
299.425
299.548
299.664
299.773
299.876
299.972
300.062
300.146
300.224
300.297
300.364
300.426
300.483
300.535
300.582
300.625
300.664
300.698
300.729
300.756
300.78
300.8
300.817
300.832
300.843
300.852
300.858
300.862
300.864
300.864
300.861
300.858
300.852
300.845
300.837
300.827
300.816
300.805
300.792
300.778
300.764
300.748
300.732
300.716
300.699
300.682
300.664
300.646
300.628
300.61
300.591
300.572
300.553
300.534
300.515
300.496
300.478
300.459
300.44
300.421
300.403
300.384
300.366
300.347
300.329
300.311
300.293
300.276
300.258
300.241
300.224
300.206
300.189
300.172
300.156
300.139
300.122
300.106
300.089
300.073
300.057
300.041
300.024
300.008
295.458
295.765
296.063
296.353
296.633
296.905
297.167
297.42
297.663
297.896
298.12
298.334
298.538
298.733
298.918
299.094
299.261
299.419
299.568
299.708
299.84
299.964
300.08
300.188
300.288
300.381
300.468
300.547
300.621
300.687
300.748
300.803
300.853
300.898
300.937
300.972
301.002
301.028
301.05
301.069
301.083
301.095
301.103
301.108
301.11
301.11
301.107
301.102
301.095
301.086
301.076
301.063
301.049
301.034
301.018
301
300.981
300.962
300.941
300.92
300.899
300.876
300.854
300.831
300.807
300.783
300.759
300.735
300.711
300.687
300.662
300.638
300.614
300.59
300.565
300.541
300.517
300.494
300.47
300.447
300.423
300.4
300.377
300.354
300.332
300.31
300.287
300.265
300.243
300.222
300.2
300.179
300.157
300.136
300.115
300.094
300.073
300.052
300.031
300.01
294.451
294.825
295.19
295.544
295.887
296.219
296.539
296.848
297.144
297.43
297.703
297.964
298.214
298.452
298.678
298.893
299.097
299.29
299.472
299.643
299.805
299.956
300.097
300.229
300.352
300.466
300.572
300.669
300.758
300.84
300.914
300.982
301.042
301.097
301.145
301.188
301.225
301.256
301.283
301.306
301.324
301.337
301.347
301.354
301.356
301.356
301.353
301.347
301.338
301.327
301.314
301.299
301.282
301.263
301.243
301.222
301.199
301.175
301.15
301.124
301.098
301.071
301.043
301.015
300.986
300.957
300.928
300.898
300.869
300.839
300.809
300.78
300.75
300.72
300.691
300.661
300.632
300.603
300.574
300.546
300.517
300.489
300.461
300.433
300.405
300.378
300.351
300.324
300.297
300.271
300.244
300.218
300.192
300.166
300.141
300.115
300.089
300.064
300.038
300.013
293.445
293.888
294.318
294.736
295.142
295.533
295.912
296.276
296.627
296.964
297.286
297.595
297.89
298.171
298.439
298.693
298.933
299.161
299.376
299.579
299.769
299.948
300.115
300.271
300.416
300.551
300.675
300.79
300.895
300.992
301.08
301.16
301.231
301.296
301.353
301.403
301.447
301.484
301.516
301.542
301.563
301.58
301.591
301.599
301.602
301.602
301.598
301.591
301.581
301.568
301.552
301.534
301.514
301.492
301.469
301.443
301.416
301.388
301.359
301.328
301.297
301.265
301.232
301.199
301.165
301.131
301.096
301.061
301.026
300.991
300.956
300.921
300.886
300.851
300.816
300.781
300.747
300.712
300.678
300.644
300.611
300.577
300.544
300.512
300.479
300.447
300.415
300.383
300.351
300.32
300.289
300.258
300.227
300.196
300.166
300.136
300.105
300.075
300.045
300.015
292.441
292.951
293.448
293.93
294.397
294.849
295.285
295.706
296.11
296.499
296.871
297.227
297.567
297.891
298.199
298.492
298.77
299.033
299.281
299.514
299.734
299.94
300.132
300.312
300.48
300.635
300.779
300.911
301.033
301.144
301.245
301.337
301.42
301.494
301.56
301.618
301.668
301.712
301.748
301.779
301.803
301.822
301.835
301.844
301.848
301.847
301.843
301.834
301.823
301.808
301.79
301.769
301.746
301.721
301.693
301.664
301.633
301.601
301.567
301.532
301.496
301.459
301.421
301.382
301.343
301.304
301.264
301.224
301.183
301.143
301.102
301.062
301.022
300.981
300.941
300.901
300.861
300.822
300.782
300.743
300.704
300.666
300.628
300.59
300.552
300.515
300.478
300.441
300.405
300.369
300.333
300.297
300.262
300.227
300.191
300.156
300.122
300.087
300.052
300.017
291.439
292.017
292.579
293.125
293.654
294.166
294.66
295.137
295.595
296.034
296.456
296.859
297.244
297.611
297.961
298.292
298.607
298.904
299.185
299.45
299.699
299.932
300.15
300.354
300.543
300.719
300.882
301.032
301.17
301.296
301.41
301.514
301.608
301.692
301.767
301.832
301.889
301.938
301.98
302.014
302.042
302.063
302.079
302.088
302.093
302.092
302.087
302.078
302.064
302.048
302.027
302.004
301.978
301.949
301.918
301.885
301.85
301.813
301.775
301.735
301.694
301.652
301.609
301.566
301.521
301.477
301.431
301.386
301.34
301.295
301.249
301.203
301.157
301.111
301.066
301.02
300.975
300.93
300.886
300.842
300.798
300.754
300.711
300.668
300.626
300.583
300.542
300.5
300.459
300.418
300.377
300.337
300.297
300.257
300.217
300.177
300.138
300.098
300.059
300.02
290.439
291.084
291.712
292.322
292.913
293.485
294.037
294.568
295.08
295.571
296.042
296.492
296.922
297.332
297.722
298.093
298.444
298.776
299.09
299.386
299.663
299.924
300.168
300.395
300.607
300.803
300.985
301.152
301.306
301.447
301.575
301.691
301.796
301.89
301.973
302.046
302.11
302.165
302.211
302.25
302.281
302.304
302.321
302.332
302.337
302.336
302.331
302.32
302.306
302.287
302.264
302.238
302.209
302.177
302.142
302.105
302.066
302.025
301.982
301.937
301.892
301.845
301.797
301.748
301.699
301.649
301.599
301.548
301.497
301.446
301.394
301.343
301.292
301.241
301.19
301.14
301.089
301.039
300.989
300.94
300.891
300.842
300.794
300.746
300.699
300.652
300.605
300.558
300.512
300.467
300.421
300.376
300.331
300.287
300.242
300.198
300.154
300.11
300.066
300.022
289.441
290.154
290.848
291.521
292.174
292.805
293.414
294.002
294.566
295.109
295.629
296.126
296.601
297.054
297.485
297.894
298.282
298.649
298.995
299.321
299.628
299.916
300.185
300.436
300.67
300.887
301.088
301.273
301.442
301.598
301.74
301.868
301.983
302.087
302.179
302.26
302.33
302.391
302.442
302.484
302.519
302.545
302.564
302.575
302.581
302.58
302.574
302.563
302.546
302.525
302.5
302.472
302.439
302.404
302.366
302.325
302.281
302.236
302.189
302.14
302.089
302.037
301.985
301.931
301.876
301.821
301.766
301.709
301.653
301.597
301.54
301.483
301.427
301.371
301.314
301.258
301.203
301.148
301.093
301.038
300.984
300.93
300.877
300.824
300.772
300.72
300.668
300.617
300.566
300.515
300.465
300.415
300.366
300.316
300.267
300.218
300.17
300.121
300.073
300.024
288.446
289.226
289.985
290.722
291.436
292.127
292.794
293.436
294.054
294.648
295.217
295.761
296.281
296.776
297.248
297.695
298.12
298.521
298.9
299.257
299.593
299.908
300.202
300.477
300.733
300.97
301.19
301.392
301.578
301.749
301.903
302.044
302.17
302.284
302.384
302.473
302.55
302.616
302.672
302.719
302.756
302.785
302.805
302.818
302.824
302.823
302.817
302.804
302.786
302.763
302.736
302.705
302.669
302.631
302.589
302.544
302.496
302.447
302.395
302.341
302.286
302.229
302.172
302.113
302.053
301.993
301.932
301.871
301.809
301.747
301.685
301.623
301.561
301.5
301.438
301.377
301.316
301.256
301.196
301.136
301.077
301.018
300.96
300.902
300.844
300.787
300.731
300.675
300.619
300.564
300.509
300.454
300.4
300.346
300.293
300.239
300.186
300.133
300.08
300.026
287.453
288.301
289.125
289.925
290.701
291.451
292.175
292.873
293.544
294.188
294.806
295.397
295.961
296.499
297.011
297.497
297.958
298.394
298.806
299.194
299.558
299.9
300.22
300.518
300.796
301.054
301.292
301.512
301.714
301.899
302.067
302.219
302.357
302.48
302.589
302.685
302.769
302.841
302.902
302.952
302.993
303.024
303.046
303.06
303.067
303.066
303.059
303.045
303.025
303.001
302.971
302.937
302.899
302.856
302.811
302.762
302.711
302.657
302.601
302.542
302.482
302.421
302.358
302.294
302.23
302.164
302.098
302.031
301.964
301.897
301.83
301.763
301.696
301.629
301.562
301.495
301.429
301.364
301.298
301.233
301.169
301.105
301.042
300.979
300.917
300.855
300.794
300.733
300.672
300.612
300.553
300.493
300.435
300.376
300.318
300.26
300.202
300.144
300.086
300.029
286.464
287.378
288.267
289.131
289.967
290.777
291.558
292.311
293.035
293.73
294.396
295.034
295.643
296.223
296.776
297.3
297.797
298.268
298.712
299.13
299.523
299.892
300.237
300.559
300.859
301.137
301.394
301.631
301.849
302.048
302.23
302.394
302.543
302.675
302.793
302.897
302.987
303.065
303.131
303.185
303.229
303.262
303.286
303.301
303.308
303.308
303.3
303.285
303.264
303.237
303.205
303.168
303.127
303.082
303.033
302.98
302.924
302.866
302.806
302.743
302.678
302.612
302.544
302.475
302.405
302.335
302.263
302.191
302.119
302.047
301.974
301.902
301.829
301.757
301.685
301.613
301.542
301.471
301.401
301.331
301.261
301.192
301.124
301.056
300.989
300.922
300.856
300.791
300.725
300.661
300.596
300.532
300.469
300.406
300.343
300.28
300.218
300.155
300.093
300.031
285.478
286.459
287.413
288.339
289.237
290.105
290.943
291.751
292.527
293.273
293.988
294.672
295.326
295.948
296.541
297.104
297.637
298.142
298.618
299.067
299.489
299.884
300.254
300.6
300.921
301.22
301.496
301.75
301.984
302.198
302.392
302.569
302.728
302.87
302.996
303.108
303.205
303.288
303.359
303.417
303.464
303.5
303.526
303.542
303.549
303.549
303.54
303.524
303.502
303.473
303.439
303.399
303.355
303.306
303.253
303.197
303.138
303.075
303.01
302.943
302.873
302.802
302.729
302.655
302.58
302.505
302.428
302.351
302.273
302.196
302.118
302.04
301.962
301.885
301.808
301.731
301.654
301.578
301.503
301.428
301.353
301.279
301.206
301.133
301.061
300.99
300.919
300.848
300.778
300.709
300.64
300.571
300.503
300.435
300.368
300.3
300.233
300.167
300.1
300.033
284.496
285.543
286.561
287.55
288.509
289.435
290.33
291.192
292.022
292.818
293.582
294.312
295.009
295.674
296.307
296.908
297.477
298.016
298.524
299.004
299.454
299.876
300.272
300.64
300.984
301.302
301.597
301.868
302.118
302.346
302.554
302.743
302.912
303.064
303.199
303.318
303.421
303.51
303.586
303.648
303.698
303.736
303.764
303.782
303.79
303.789
303.779
303.763
303.739
303.708
303.671
303.629
303.582
303.53
303.473
303.413
303.35
303.283
303.214
303.142
303.068
302.992
302.914
302.835
302.755
302.674
302.592
302.51
302.427
302.344
302.261
302.178
302.095
302.012
301.93
301.848
301.766
301.685
301.604
301.524
301.445
301.366
301.288
301.21
301.133
301.056
300.981
300.905
300.831
300.757
300.683
300.61
300.537
300.465
300.393
300.321
300.249
300.178
300.107
300.036
283.517
284.631
285.713
286.765
287.783
288.769
289.72
290.637
291.518
292.365
293.177
293.953
294.694
295.401
296.074
296.712
297.318
297.891
298.431
298.941
299.42
299.869
300.289
300.681
301.046
301.384
301.698
301.986
302.252
302.494
302.715
302.916
303.096
303.258
303.401
303.527
303.637
303.732
303.812
303.878
303.931
303.972
304.002
304.02
304.029
304.028
304.018
304
303.975
303.942
303.903
303.858
303.808
303.752
303.693
303.629
303.561
303.49
303.416
303.34
303.261
303.18
303.098
303.014
302.929
302.843
302.756
302.668
302.58
302.492
302.404
302.316
302.227
302.139
302.052
301.964
301.878
301.791
301.706
301.62
301.536
301.452
301.369
301.286
301.204
301.123
301.043
300.963
300.883
300.804
300.726
300.648
300.571
300.494
300.417
300.341
300.265
300.189
300.113
300.038
282.543
283.722
284.869
285.982
287.061
288.105
289.112
290.083
291.017
291.914
292.773
293.595
294.381
295.129
295.842
296.518
297.159
297.766
298.339
298.878
299.385
299.861
300.306
300.721
301.108
301.466
301.798
302.104
302.385
302.642
302.876
303.088
303.279
303.45
303.602
303.736
303.852
303.953
304.037
304.107
304.164
304.207
304.238
304.258
304.267
304.266
304.255
304.236
304.209
304.175
304.134
304.086
304.033
303.974
303.911
303.843
303.772
303.697
303.618
303.537
303.454
303.368
303.281
303.192
303.102
303.011
302.919
302.826
302.733
302.64
302.546
302.452
302.359
302.266
302.173
302.081
301.989
301.897
301.806
301.716
301.627
301.538
301.45
301.362
301.276
301.19
301.104
301.02
300.935
300.852
300.769
300.687
300.605
300.523
300.442
300.361
300.281
300.2
300.12
300.04
281.573
282.817
284.028
285.203
286.342
287.444
288.507
289.532
290.518
291.464
292.372
293.24
294.069
294.859
295.611
296.325
297.001
297.642
298.246
298.816
299.351
299.853
300.323
300.761
301.169
301.548
301.898
302.221
302.517
302.789
303.036
303.26
303.461
303.642
303.802
303.944
304.067
304.172
304.262
304.336
304.395
304.441
304.474
304.494
304.504
304.503
304.492
304.472
304.443
304.407
304.363
304.313
304.257
304.195
304.128
304.057
303.981
303.902
303.819
303.734
303.646
303.556
303.463
303.37
303.274
303.178
303.081
302.983
302.885
302.786
302.688
302.589
302.49
302.392
302.294
302.196
302.099
302.003
301.907
301.812
301.717
301.623
301.53
301.438
301.346
301.256
301.166
301.076
300.987
300.899
300.812
300.725
300.638
300.552
300.467
300.381
300.296
300.211
300.127
300.042
280.607
281.917
283.191
284.428
285.626
286.786
287.905
288.984
290.021
291.017
291.972
292.885
293.758
294.589
295.381
296.132
296.844
297.518
298.154
298.754
299.317
299.845
300.34
300.801
301.23
301.629
301.997
302.337
302.649
302.935
303.195
303.43
303.643
303.833
304.002
304.15
304.28
304.391
304.485
304.563
304.625
304.674
304.708
304.73
304.74
304.739
304.727
304.706
304.676
304.638
304.592
304.539
304.48
304.415
304.345
304.269
304.19
304.106
304.02
303.93
303.837
303.742
303.645
303.546
303.446
303.345
303.242
303.139
303.036
302.932
302.828
302.724
302.621
302.517
302.414
302.311
302.209
302.108
302.007
301.907
301.807
301.708
301.611
301.513
301.417
301.321
301.227
301.133
301.039
300.946
300.854
300.763
300.672
300.581
300.491
300.401
300.312
300.223
300.133
300.044
279.647
281.021
282.358
283.656
284.914
286.131
287.306
288.438
289.527
290.572
291.574
292.533
293.448
294.321
295.152
295.94
296.688
297.395
298.063
298.692
299.283
299.838
300.357
300.841
301.291
301.709
302.096
302.453
302.78
303.08
303.353
303.6
303.823
304.023
304.2
304.356
304.492
304.608
304.707
304.789
304.855
304.905
304.941
304.964
304.975
304.974
304.962
304.939
304.908
304.868
304.82
304.764
304.702
304.634
304.56
304.481
304.397
304.31
304.219
304.124
304.027
303.927
303.825
303.722
303.617
303.51
303.403
303.295
303.186
303.078
302.968
302.859
302.75
302.642
302.534
302.426
302.319
302.212
302.106
302.001
301.897
301.793
301.69
301.588
301.487
301.387
301.287
301.189
301.091
300.993
300.897
300.801
300.705
300.61
300.515
300.421
300.327
300.234
300.14
300.047
278.691
280.13
281.53
282.889
284.206
285.48
286.71
287.895
289.035
290.129
291.178
292.182
293.141
294.055
294.924
295.75
296.533
297.273
297.972
298.631
299.25
299.83
300.373
300.88
301.352
301.79
302.195
302.568
302.911
303.225
303.511
303.769
304.003
304.211
304.397
304.56
304.703
304.825
304.928
305.014
305.083
305.135
305.173
305.197
305.208
305.207
305.195
305.171
305.138
305.096
305.046
304.988
304.923
304.851
304.774
304.691
304.604
304.512
304.417
304.318
304.216
304.112
304.005
303.897
303.787
303.675
303.563
303.45
303.336
303.222
303.108
302.994
302.88
302.766
302.653
302.54
302.427
302.316
302.205
302.095
301.986
301.877
301.77
301.663
301.557
301.452
301.348
301.244
301.142
301.04
300.939
300.838
300.738
300.639
300.54
300.441
300.343
300.245
300.147
300.049
277.74
279.244
280.706
282.126
283.501
284.832
286.117
287.355
288.546
289.689
290.785
291.834
292.835
293.789
294.698
295.56
296.378
297.151
297.882
298.569
299.216
299.823
300.39
300.92
301.412
301.87
302.293
302.683
303.041
303.369
303.667
303.938
304.181
304.399
304.593
304.764
304.912
305.04
305.148
305.237
305.309
305.364
305.404
305.429
305.441
305.439
305.426
305.402
305.368
305.324
305.271
305.21
305.142
305.068
304.987
304.901
304.809
304.714
304.614
304.511
304.404
304.295
304.184
304.07
303.955
303.839
303.722
303.604
303.485
303.366
303.246
303.127
303.008
302.889
302.771
302.653
302.536
302.419
302.303
302.188
302.074
301.961
301.849
301.737
301.627
301.517
301.408
301.3
301.193
301.086
300.981
300.876
300.771
300.667
300.564
300.461
300.358
300.255
300.153
300.051
276.795
278.362
279.887
281.367
282.801
284.188
285.527
286.818
288.059
289.251
290.394
291.487
292.531
293.526
294.473
295.372
296.224
297.03
297.792
298.509
299.183
299.815
300.407
300.959
301.472
301.949
302.39
302.797
303.17
303.512
303.823
304.105
304.359
304.586
304.788
304.966
305.121
305.254
305.367
305.46
305.535
305.592
305.634
305.66
305.672
305.67
305.657
305.631
305.595
305.55
305.495
305.432
305.361
305.283
305.199
305.109
305.013
304.914
304.81
304.702
304.591
304.477
304.361
304.243
304.123
304.002
303.88
303.757
303.633
303.509
303.384
303.26
303.136
303.012
302.888
302.766
302.643
302.522
302.401
302.281
302.162
302.044
301.927
301.811
301.696
301.581
301.468
301.355
301.243
301.132
301.022
300.913
300.804
300.695
300.588
300.48
300.373
300.266
300.16
300.053
275.856
277.487
279.073
280.613
282.105
283.548
284.942
286.284
287.576
288.816
290.005
291.142
292.228
293.264
294.249
295.184
296.071
296.91
297.702
298.448
299.15
299.808
300.423
300.997
301.532
302.028
302.487
302.91
303.298
303.654
303.978
304.271
304.535
304.772
304.982
305.167
305.328
305.467
305.584
305.681
305.759
305.819
305.862
305.889
305.901
305.9
305.886
305.859
305.822
305.774
305.717
305.651
305.578
305.497
305.409
305.315
305.216
305.113
305.004
304.892
304.777
304.659
304.538
304.415
304.29
304.164
304.037
303.909
303.78
303.651
303.521
303.392
303.263
303.134
303.005
302.878
302.75
302.624
302.498
302.374
302.25
302.127
302.005
301.884
301.764
301.645
301.527
301.41
301.294
301.178
301.064
300.95
300.836
300.724
300.611
300.5
300.388
300.277
300.166
300.055
274.923
276.616
278.264
279.863
281.413
282.912
284.36
285.754
287.096
288.384
289.619
290.8
291.928
293.003
294.026
294.998
295.919
296.791
297.613
298.388
299.117
299.8
300.439
301.036
301.591
302.106
302.583
303.022
303.426
303.795
304.131
304.436
304.71
304.956
305.174
305.367
305.534
305.678
305.8
305.9
305.981
306.044
306.088
306.116
306.129
306.128
306.113
306.086
306.047
305.998
305.938
305.87
305.793
305.709
305.618
305.521
305.418
305.31
305.198
305.081
304.962
304.839
304.713
304.586
304.456
304.325
304.193
304.06
303.926
303.792
303.657
303.523
303.389
303.255
303.122
302.989
302.857
302.725
302.595
302.465
302.337
302.209
302.083
301.957
301.832
301.709
301.586
301.465
301.344
301.224
301.105
300.986
300.869
300.752
300.635
300.519
300.403
300.288
300.173
300.058
273.996
275.752
277.46
279.119
280.726
282.281
283.781
285.228
286.619
287.955
289.235
290.46
291.629
292.745
293.806
294.813
295.768
296.672
297.525
298.329
299.084
299.793
300.456
301.074
301.65
302.184
302.678
303.134
303.552
303.935
304.284
304.6
304.885
305.139
305.366
305.565
305.739
305.888
306.014
306.119
306.202
306.267
306.313
306.343
306.356
306.354
306.339
306.311
306.271
306.219
306.158
306.087
306.007
305.92
305.826
305.725
305.618
305.506
305.39
305.269
305.145
305.018
304.888
304.755
304.621
304.485
304.348
304.21
304.071
303.932
303.793
303.653
303.514
303.375
303.237
303.099
302.962
302.826
302.691
302.557
302.423
302.291
302.16
302.029
301.9
301.772
301.645
301.519
301.393
301.269
301.146
301.023
300.901
300.779
300.658
300.538
300.418
300.298
300.179
300.06
273.075
274.893
276.662
278.379
280.044
281.653
283.207
284.705
286.145
287.528
288.854
290.122
291.333
292.488
293.586
294.63
295.619
296.554
297.438
298.27
299.052
299.785
300.472
301.112
301.708
302.261
302.773
303.245
303.678
304.075
304.436
304.763
305.058
305.321
305.556
305.762
305.942
306.096
306.227
306.335
306.422
306.489
306.537
306.567
306.581
306.579
306.563
306.534
306.493
306.439
306.376
306.302
306.22
306.13
306.032
305.928
305.817
305.701
305.581
305.456
305.327
305.195
305.061
304.924
304.785
304.644
304.502
304.359
304.215
304.071
303.927
303.783
303.639
303.495
303.352
303.209
303.067
302.926
302.786
302.647
302.509
302.372
302.236
302.101
301.967
301.835
301.703
301.572
301.443
301.314
301.186
301.059
300.933
300.807
300.682
300.557
300.433
300.309
300.185
300.062
272.161
274.041
275.87
277.645
279.366
281.03
282.637
284.185
285.675
287.105
288.475
289.787
291.039
292.233
293.369
294.447
295.47
296.437
297.351
298.211
299.02
299.778
300.488
301.15
301.766
302.338
302.867
303.355
303.803
304.213
304.586
304.925
305.229
305.502
305.744
305.958
306.144
306.303
306.438
306.55
306.64
306.709
306.759
306.79
306.804
306.803
306.786
306.756
306.713
306.658
306.592
306.516
306.431
306.338
306.237
306.129
306.015
305.895
305.77
305.641
305.508
305.372
305.232
305.091
304.947
304.801
304.655
304.507
304.358
304.209
304.06
303.911
303.762
303.613
303.465
303.318
303.171
303.026
302.881
302.737
302.594
302.452
302.312
302.173
302.034
301.897
301.761
301.626
301.492
301.359
301.226
301.095
300.964
300.834
300.705
300.576
300.448
300.319
300.192
300.064
271.254
273.195
275.083
276.917
278.694
280.412
282.071
283.67
285.208
286.684
288.1
289.454
290.747
291.98
293.152
294.266
295.322
296.321
297.264
298.153
298.988
299.771
300.504
301.187
301.824
302.414
302.961
303.464
303.927
304.35
304.736
305.085
305.4
305.681
305.932
306.152
306.344
306.509
306.648
306.764
306.856
306.928
306.979
307.011
307.026
307.024
307.007
306.976
306.932
306.875
306.807
306.729
306.641
306.544
306.44
306.329
306.211
306.087
305.958
305.825
305.688
305.547
305.403
305.257
305.108
304.958
304.806
304.654
304.5
304.347
304.193
304.038
303.885
303.731
303.578
303.426
303.275
303.124
302.975
302.826
302.679
302.532
302.387
302.243
302.101
301.959
301.818
301.679
301.54
301.403
301.266
301.131
300.996
300.862
300.728
300.595
300.462
300.33
300.198
300.066
270.354
272.356
274.303
276.194
278.027
279.799
281.51
283.159
284.745
286.267
287.727
289.124
290.457
291.728
292.938
294.087
295.176
296.206
297.179
298.095
298.956
299.764
300.519
301.225
301.881
302.49
303.053
303.573
304.05
304.486
304.884
305.244
305.569
305.859
306.117
306.345
306.542
306.713
306.856
306.975
307.071
307.145
307.197
307.231
307.246
307.244
307.227
307.195
307.149
307.09
307.02
306.939
306.849
306.749
306.642
306.527
306.405
306.278
306.145
306.007
305.866
305.72
305.572
305.421
305.268
305.113
304.957
304.799
304.641
304.483
304.324
304.165
304.006
303.848
303.69
303.533
303.377
303.222
303.068
302.915
302.763
302.612
302.462
302.314
302.166
302.02
301.875
301.731
301.589
301.447
301.306
301.166
301.027
300.888
300.751
300.613
300.477
300.34
300.204
300.068
269.461
271.523
273.529
275.477
277.365
279.19
280.953
282.651
284.285
285.854
287.357
288.796
290.17
291.479
292.725
293.909
295.031
296.092
297.094
298.037
298.925
299.757
300.535
301.262
301.938
302.565
303.145
303.68
304.172
304.622
305.031
305.402
305.736
306.036
306.302
306.536
306.739
306.915
307.063
307.186
307.284
307.36
307.414
307.449
307.464
307.463
307.445
307.411
307.364
307.304
307.232
307.148
307.055
306.953
306.842
306.723
306.598
306.467
306.33
306.188
306.042
305.893
305.74
305.584
305.427
305.267
305.106
304.944
304.781
304.618
304.454
304.29
304.127
303.964
303.801
303.64
303.479
303.319
303.16
303.002
302.846
302.69
302.536
302.383
302.232
302.081
301.932
301.784
301.636
301.49
301.345
301.201
301.058
300.915
300.773
300.632
300.491
300.35
300.21
300.07
268.576
270.698
272.762
274.766
276.709
278.587
280.401
282.149
283.83
285.444
286.991
288.471
289.885
291.232
292.515
293.732
294.887
295.978
297.009
297.98
298.893
299.75
300.551
301.298
301.994
302.639
303.237
303.787
304.293
304.756
305.177
305.559
305.903
306.211
306.484
306.725
306.935
307.115
307.268
307.394
307.495
307.573
307.629
307.665
307.681
307.679
307.66
307.626
307.578
307.516
307.441
307.356
307.26
307.154
307.04
306.918
306.789
306.654
306.513
306.368
306.217
306.064
305.906
305.746
305.584
305.42
305.254
305.087
304.92
304.751
304.583
304.415
304.247
304.079
303.912
303.745
303.58
303.415
303.252
303.089
302.928
302.768
302.61
302.452
302.296
302.141
301.988
301.835
301.684
301.534
301.384
301.236
301.088
300.942
300.796
300.65
300.505
300.361
300.216
300.072
267.698
269.879
272.001
274.062
276.058
277.989
279.854
281.65
283.378
285.037
286.628
288.149
289.602
290.988
292.306
293.557
294.744
295.866
296.926
297.924
298.863
299.743
300.566
301.334
302.049
302.713
303.327
303.893
304.413
304.888
305.321
305.714
306.068
306.384
306.665
306.913
307.128
307.314
307.471
307.6
307.704
307.785
307.842
307.879
307.895
307.893
307.874
307.839
307.789
307.725
307.649
307.561
307.462
307.354
307.237
307.111
306.979
306.84
306.695
306.545
306.391
306.233
306.071
305.907
305.74
305.571
305.401
305.229
305.057
304.884
304.711
304.538
304.365
304.193
304.021
303.85
303.68
303.511
303.343
303.176
303.01
302.846
302.683
302.521
302.36
302.201
302.043
301.886
301.731
301.576
301.423
301.27
301.119
300.968
300.818
300.668
300.519
300.371
300.222
300.074
266.829
269.069
271.248
273.364
275.414
277.397
279.311
281.156
282.931
284.635
286.268
287.83
289.322
290.745
292.098
293.384
294.602
295.755
296.843
297.868
298.832
299.736
300.581
301.37
302.105
302.786
303.416
303.998
304.532
305.02
305.465
305.868
306.231
306.556
306.845
307.099
307.32
307.511
307.672
307.805
307.912
307.994
308.053
308.091
308.108
308.106
308.086
308.05
307.999
307.933
307.855
307.765
307.663
307.552
307.432
307.303
307.167
307.024
306.875
306.722
306.563
306.401
306.235
306.066
305.894
305.721
305.546
305.37
305.193
305.016
304.838
304.66
304.483
304.306
304.129
303.953
303.779
303.605
303.432
303.261
303.091
302.922
302.755
302.589
302.424
302.26
302.098
301.937
301.777
301.619
301.461
301.305
301.149
300.994
300.84
300.686
300.533
300.381
300.228
300.076
265.967
268.265
270.501
272.672
274.775
276.81
278.774
280.667
282.487
284.236
285.911
287.514
289.045
290.505
291.893
293.212
294.462
295.645
296.761
297.813
298.802
299.729
300.596
301.406
302.159
302.858
303.505
304.101
304.649
305.15
305.607
306.02
306.393
306.726
307.022
307.283
307.51
307.706
307.871
308.008
308.117
308.202
308.262
308.301
308.318
308.316
308.296
308.259
308.206
308.139
308.059
307.966
307.862
307.748
307.624
307.493
307.353
307.207
307.054
306.896
306.734
306.567
306.397
306.223
306.048
305.87
305.69
305.51
305.328
305.146
304.964
304.781
304.599
304.417
304.236
304.056
303.877
303.699
303.522
303.346
303.171
302.998
302.826
302.656
302.487
302.319
302.153
301.988
301.824
301.661
301.499
301.339
301.179
301.02
300.862
300.704
300.547
300.391
300.234
300.078
265.114
267.47
269.762
271.987
274.143
276.229
278.242
280.182
282.049
283.841
285.558
287.201
288.771
290.267
291.69
293.042
294.323
295.535
296.68
297.758
298.772
299.722
300.611
301.441
302.213
302.93
303.593
304.204
304.766
305.279
305.747
306.171
306.553
306.895
307.198
307.466
307.699
307.899
308.068
308.208
308.321
308.407
308.469
308.509
308.527
308.525
308.504
308.466
308.412
308.343
308.261
308.166
308.059
307.942
307.816
307.68
307.537
307.387
307.231
307.069
306.902
306.731
306.557
306.379
306.199
306.017
305.833
305.648
305.462
305.275
305.088
304.901
304.714
304.528
304.343
304.158
303.974
303.791
303.61
303.43
303.251
303.073
302.897
302.722
302.549
302.377
302.207