/*--------------------------------*- C++ -*----------------------------------*\
| =========                 |                                                 |
| \\      /  F ield         | OpenFOAM: The Open Source CFD Toolbox           |
|  \\    /   O peration     | Version:  2406                                  |
|   \\  /    A nd           | Website:  www.openfoam.com                      |
|    \\/     M anipulation  |                                                 |
\*---------------------------------------------------------------------------*/
FoamFile
{
    version     2.0;
    format      ascii;
    arch        "LSB;label=32;scalar=64";
    class       volVectorField;
    location    "95";
    object      flux;
}
// * * * * * * * * * * * * * * * * * * * * * * * * * * * * * * * * * * * * * //

dimensions      [0 1 -1 1 0 0 0];

internalField   nonuniform List<vector> 
20000
(
(-0.000165875 0.0239611 0)
(-0.000205756 0.0235867 0)
(-0.000240237 0.0231382 0)
(-0.000269668 0.0226259 0)
(-0.00029444 0.0220596 0)
(-0.000315006 0.0214481 0)
(-0.000331649 0.0207996 0)
(-0.000344664 0.0201216 0)
(-0.000354443 0.019421 0)
(-0.000361302 0.0187039 0)
(-0.000365508 0.0179759 0)
(-0.000367321 0.017242 0)
(-0.000366996 0.0165067 0)
(-0.000364782 0.0157741 0)
(-0.000360906 0.0150477 0)
(-0.000355581 0.0143306 0)
(-0.000348999 0.0136255 0)
(-0.00034134 0.0129347 0)
(-0.000332769 0.0122602 0)
(-0.000323436 0.0116037 0)
(-0.000313481 0.0109665 0)
(-0.00030303 0.0103498 0)
(-0.000292201 0.00975447 0)
(-0.000281096 0.0091811 0)
(-0.00026981 0.00863016 0)
(-0.000258427 0.00810192 0)
(-0.000247023 0.00759651 0)
(-0.000235664 0.00711389 0)
(-0.000224409 0.00665391 0)
(-0.000213308 0.00621631 0)
(-0.000202406 0.00580073 0)
(-0.00019174 0.00540674 0)
(-0.000181343 0.00503382 0)
(-0.00017124 0.00468141 0)
(-0.000161454 0.0043489 0)
(-0.000152002 0.00403564 0)
(-0.000142896 0.00374093 0)
(-0.000134147 0.00346409 0)
(-0.00012576 0.00320438 0)
(-0.000117738 0.00296108 0)
(-0.000110083 0.00273346 0)
(-0.000102792 0.00252078 0)
(-9.58626e-05 0.00232231 0)
(-8.92889e-05 0.00213735 0)
(-8.3064e-05 0.00196518 0)
(-7.71801e-05 0.00180511 0)
(-7.16278e-05 0.00165648 0)
(-6.63973e-05 0.00151862 0)
(-6.14777e-05 0.00139091 0)
(-5.68579e-05 0.00127272 0)
(-5.25263e-05 0.00116349 0)
(-4.84708e-05 0.00106263 0)
(-4.46794e-05 0.000969617 0)
(-4.114e-05 0.000883926 0)
(-3.78403e-05 0.000805067 0)
(-3.47684e-05 0.000732574 0)
(-3.19123e-05 0.000666002 0)
(-2.92603e-05 0.000604933 0)
(-2.68011e-05 0.000548968 0)
(-2.45235e-05 0.000497735 0)
(-2.24168e-05 0.00045088 0)
(-2.04704e-05 0.000408073 0)
(-1.86745e-05 0.000369003 0)
(-1.70194e-05 0.00033338 0)
(-1.54957e-05 0.00030093 0)
(-1.40948e-05 0.000271401 0)
(-1.28083e-05 0.000244554 0)
(-1.16281e-05 0.000220171 0)
(-1.05467e-05 0.000198045 0)
(-9.557e-06 0.000177986 0)
(-8.65222e-06 0.000159819 0)
(-7.82601e-06 0.00014338 0)
(-7.07241e-06 0.000128517 0)
(-6.38582e-06 0.000115092 0)
(-5.761e-06 0.000102975 0)
(-5.19306e-06 9.20492e-05 0)
(-4.67742e-06 8.22044e-05 0)
(-4.20986e-06 7.33407e-05 0)
(-3.78641e-06 6.5366e-05 0)
(-3.40342e-06 5.8196e-05 0)
(-3.05752e-06 5.17531e-05 0)
(-2.74557e-06 4.59666e-05 0)
(-2.4647e-06 4.07715e-05 0)
(-2.21226e-06 3.61084e-05 0)
(-1.98583e-06 3.1923e-05 0)
(-1.7832e-06 2.81656e-05 0)
(-1.60235e-06 2.47907e-05 0)
(-1.44143e-06 2.17566e-05 0)
(-1.2988e-06 1.90253e-05 0)
(-1.17295e-06 1.65617e-05 0)
(-1.06256e-06 1.43338e-05 0)
(-9.66432e-07 1.23117e-05 0)
(-8.83515e-07 1.04683e-05 0)
(-8.12896e-07 8.7779e-06 0)
(-7.53788e-07 7.21689e-06 0)
(-7.05527e-07 5.76293e-06 0)
(-6.67563e-07 4.39495e-06 0)
(-6.39466e-07 3.09284e-06 0)
(-6.20911e-07 1.83725e-06 0)
(-6.11685e-07 6.09348e-07 0)
(-0.000497609 0.0239552 0)
(-0.000617224 0.0235809 0)
(-0.000720599 0.0231324 0)
(-0.000808931 0.0226203 0)
(-0.000883296 0.0220541 0)
(-0.000944933 0.0214428 0)
(-0.000994826 0.0207945 0)
(-0.0010339 0.0201167 0)
(-0.00106326 0.0194163 0)
(-0.00108383 0.0186993 0)
(-0.00109643 0.0179715 0)
(-0.00110187 0.0172377 0)
(-0.00110089 0.0165027 0)
(-0.00109425 0.0157702 0)
(-0.00108263 0.015044 0)
(-0.00106666 0.014327 0)
(-0.00104691 0.0136221 0)
(-0.00102394 0.0129315 0)
(-0.000998224 0.0122572 0)
(-0.000970228 0.0116008 0)
(-0.000940365 0.0109638 0)
(-0.000909017 0.0103473 0)
(-0.00087653 0.00975206 0)
(-0.000843218 0.00917883 0)
(-0.000809363 0.00862803 0)
(-0.000775218 0.00809992 0)
(-0.000741009 0.00759464 0)
(-0.000706935 0.00711214 0)
(-0.000673171 0.00665227 0)
(-0.000639871 0.00621478 0)
(-0.000607167 0.0057993 0)
(-0.000575173 0.00540541 0)
(-0.000543983 0.00503258 0)
(-0.000513678 0.00468026 0)
(-0.000484323 0.00434783 0)
(-0.000455968 0.00403464 0)
(-0.000428653 0.00374001 0)
(-0.000402407 0.00346323 0)
(-0.000377248 0.00320359 0)
(-0.000353185 0.00296035 0)
(-0.000330221 0.00273278 0)
(-0.000308351 0.00252015 0)
(-0.000287564 0.00232174 0)
(-0.000267845 0.00213682 0)
(-0.000249172 0.0019647 0)
(-0.000231521 0.00180467 0)
(-0.000214866 0.00165607 0)
(-0.000199175 0.00151825 0)
(-0.000184418 0.00139056 0)
(-0.00017056 0.00127241 0)
(-0.000157566 0.0011632 0)
(-0.0001454 0.00106237 0)
(-0.000134027 0.000969378 0)
(-0.00012341 0.000883708 0)
(-0.000113512 0.000804869 0)
(-0.000104297 0.000732393 0)
(-9.5729e-05 0.000665838 0)
(-8.77738e-05 0.000604783 0)
(-8.03968e-05 0.000548833 0)
(-7.35645e-05 0.000497612 0)
(-6.72448e-05 0.000450769 0)
(-6.14063e-05 0.000407973 0)
(-5.6019e-05 0.000368912 0)
(-5.10539e-05 0.000333297 0)
(-4.64834e-05 0.000300856 0)
(-4.2281e-05 0.000271334 0)
(-3.84216e-05 0.000244494 0)
(-3.48814e-05 0.000220116 0)
(-3.16375e-05 0.000197996 0)
(-2.86686e-05 0.000177943 0)
(-2.59545e-05 0.00015978 0)
(-2.34761e-05 0.000143344 0)
(-2.12155e-05 0.000128485 0)
(-1.91559e-05 0.000115063 0)
(-1.72816e-05 0.00010295 0)
(-1.55779e-05 9.20265e-05 0)
(-1.40311e-05 8.21842e-05 0)
(-1.26285e-05 7.33226e-05 0)
(-1.13583e-05 6.53499e-05 0)
(-1.02094e-05 5.81816e-05 0)
(-9.1718e-06 5.17404e-05 0)
(-8.23603e-06 4.59553e-05 0)
(-7.39349e-06 4.07615e-05 0)
(-6.63624e-06 3.60996e-05 0)
(-5.95701e-06 3.19152e-05 0)
(-5.34917e-06 2.81587e-05 0)
(-4.80665e-06 2.47846e-05 0)
(-4.32394e-06 2.17513e-05 0)
(-3.89608e-06 1.90206e-05 0)
(-3.51858e-06 1.65577e-05 0)
(-3.18743e-06 1.43302e-05 0)
(-2.89906e-06 1.23087e-05 0)
(-2.65033e-06 1.04657e-05 0)
(-2.43849e-06 8.77575e-06 0)
(-2.26118e-06 7.21512e-06 0)
(-2.11641e-06 5.76152e-06 0)
(-2.00253e-06 4.39388e-06 0)
(-1.91824e-06 3.09208e-06 0)
(-1.86258e-06 1.8368e-06 0)
(-1.83491e-06 6.092e-07 0)
(-0.000829219 0.0239434 0)
(-0.00102856 0.0235693 0)
(-0.0012008 0.023121 0)
(-0.00134799 0.0226091 0)
(-0.00147195 0.0220432 0)
(-0.00157462 0.0214322 0)
(-0.00165774 0.0207842 0)
(-0.00172289 0.0201068 0)
(-0.00177183 0.0194067 0)
(-0.0018061 0.0186901 0)
(-0.00182709 0.0179626 0)
(-0.00183613 0.0172292 0)
(-0.00183451 0.0164945 0)
(-0.00182345 0.0157624 0)
(-0.00180408 0.0150366 0)
(-0.00177747 0.01432 0)
(-0.00174457 0.0136154 0)
(-0.00170628 0.0129251 0)
(-0.00166343 0.0122511 0)
(-0.00161678 0.0115951 0)
(-0.00156702 0.0109584 0)
(-0.00151478 0.0103422 0)
(-0.00146064 0.00974725 0)
(-0.00140513 0.0091743 0)
(-0.00134872 0.00862377 0)
(-0.00129182 0.00809593 0)
(-0.00123481 0.00759089 0)
(-0.00117803 0.00710863 0)
(-0.00112177 0.00664899 0)
(-0.00106628 0.00621171 0)
(-0.00101178 0.00579644 0)
(-0.000958463 0.00540274 0)
(-0.00090649 0.00503009 0)
(-0.00085599 0.00467795 0)
(-0.000807072 0.00434568 0)
(-0.000759822 0.00403265 0)
(-0.000714304 0.00373816 0)
(-0.000670568 0.00346152 0)
(-0.000628642 0.00320201 0)
(-0.000588545 0.00295889 0)
(-0.000550278 0.00273143 0)
(-0.000513834 0.00251891 0)
(-0.000479195 0.00232059 0)
(-0.000446334 0.00213577 0)
(-0.000415218 0.00196373 0)
(-0.000385805 0.00180378 0)
(-0.000358051 0.00165525 0)
(-0.000331904 0.0015175 0)
(-0.000307313 0.00138988 0)
(-0.00028422 0.00127178 0)
(-0.000262567 0.00116263 0)
(-0.000242294 0.00106185 0)
(-0.000223342 0.0009689 0)
(-0.000205649 0.000883272 0)
(-0.000189155 0.000804472 0)
(-0.000173799 0.000732032 0)
(-0.000159522 0.00066551 0)
(-0.000146266 0.000604485 0)
(-0.000133973 0.000548562 0)
(-0.000122587 0.000497367 0)
(-0.000112056 0.000450547 0)
(-0.000102327 0.000407771 0)
(-9.33496e-05 0.00036873 0)
(-8.50758e-05 0.000333133 0)
(-7.74595e-05 0.000300708 0)
(-7.04567e-05 0.0002712 0)
(-6.40255e-05 0.000244373 0)
(-5.81261e-05 0.000220008 0)
(-5.27205e-05 0.000197898 0)
(-4.77732e-05 0.000177855 0)
(-4.32504e-05 0.000159701 0)
(-3.91204e-05 0.000143274 0)
(-3.53533e-05 0.000128422 0)
(-3.19212e-05 0.000115007 0)
(-2.87979e-05 0.000102899 0)
(-2.59589e-05 9.19812e-05 0)
(-2.33814e-05 8.21437e-05 0)
(-2.10441e-05 7.32865e-05 0)
(-1.89274e-05 6.53177e-05 0)
(-1.70129e-05 5.8153e-05 0)
(-1.52838e-05 5.17149e-05 0)
(-1.37245e-05 4.59327e-05 0)
(-1.23205e-05 4.07414e-05 0)
(-1.10586e-05 3.60818e-05 0)
(-9.92673e-06 3.18995e-05 0)
(-8.91382e-06 2.81448e-05 0)
(-8.00976e-06 2.47724e-05 0)
(-7.20538e-06 2.17406e-05 0)
(-6.4924e-06 1.90113e-05 0)
(-5.86333e-06 1.65495e-05 0)
(-5.31151e-06 1.43232e-05 0)
(-4.83097e-06 1.23027e-05 0)
(-4.41649e-06 1.04606e-05 0)
(-4.06348e-06 8.77144e-06 0)
(-3.76802e-06 7.21157e-06 0)
(-3.52677e-06 5.75869e-06 0)
(-3.337e-06 4.39172e-06 0)
(-3.19654e-06 3.09057e-06 0)
(-3.1038e-06 1.8359e-06 0)
(-3.05768e-06 6.08902e-07 0)
(-0.0011606 0.0239257 0)
(-0.00143964 0.0235518 0)
(-0.00168073 0.0231039 0)
(-0.00188672 0.0225924 0)
(-0.00206022 0.0220269 0)
(-0.00220392 0.0214163 0)
(-0.00232024 0.0207688 0)
(-0.00241145 0.0200919 0)
(-0.00247996 0.0193923 0)
(-0.00252792 0.0186762 0)
(-0.00255729 0.0179493 0)
(-0.00256994 0.0172165 0)
(-0.00256768 0.0164823 0)
(-0.0025522 0.0157508 0)
(-0.0025251 0.0150254 0)
(-0.00248784 0.0143094 0)
(-0.0024418 0.0136053 0)
(-0.00238821 0.0129155 0)
(-0.00232823 0.012242 0)
(-0.00226294 0.0115865 0)
(-0.00219328 0.0109503 0)
(-0.00212017 0.0103345 0)
(-0.0020444 0.00974003 0)
(-0.0019667 0.00916751 0)
(-0.00188774 0.00861738 0)
(-0.0018081 0.00808993 0)
(-0.00172831 0.00758527 0)
(-0.00164884 0.00710336 0)
(-0.00157009 0.00664406 0)
(-0.00149242 0.00620711 0)
(-0.00141614 0.00579215 0)
(-0.00134152 0.00539874 0)
(-0.00126877 0.00502637 0)
(-0.00119809 0.00467448 0)
(-0.00112962 0.00434247 0)
(-0.00106349 0.00402966 0)
(-0.000999779 0.0037354 0)
(-0.000938563 0.00345896 0)
(-0.000879882 0.00319964 0)
(-0.000823759 0.0029567 0)
(-0.000770199 0.00272941 0)
(-0.00071919 0.00251705 0)
(-0.000670707 0.00231888 0)
(-0.000624714 0.00213419 0)
(-0.000581161 0.00196227 0)
(-0.000539994 0.00180244 0)
(-0.000501147 0.00165403 0)
(-0.000464551 0.00151637 0)
(-0.000430132 0.00138885 0)
(-0.000397809 0.00127084 0)
(-0.000367502 0.00116177 0)
(-0.000339128 0.00106106 0)
(-0.000312602 0.000968182 0)
(-0.000287838 0.000882618 0)
(-0.000264752 0.000803876 0)
(-0.000243259 0.00073149 0)
(-0.000223276 0.000665017 0)
(-0.000204721 0.000604038 0)
(-0.000187515 0.000548156 0)
(-0.00017158 0.000496999 0)
(-0.00015684 0.000450213 0)
(-0.000143222 0.00040747 0)
(-0.000130657 0.000368458 0)
(-0.000119077 0.000332887 0)
(-0.000108417 0.000300485 0)
(-9.86151e-05 0.000270999 0)
(-8.96137e-05 0.000244193 0)
(-8.13564e-05 0.000219845 0)
(-7.37905e-05 0.000197752 0)
(-6.6866e-05 0.000177723 0)
(-6.05357e-05 0.000159583 0)
(-5.47551e-05 0.000143168 0)
(-4.94825e-05 0.000128327 0)
(-4.46787e-05 0.000114922 0)
(-4.03071e-05 0.000102823 0)
(-3.63335e-05 9.19132e-05 0)
(-3.27258e-05 8.2083e-05 0)
(-2.94545e-05 7.32324e-05 0)
(-2.64918e-05 6.52695e-05 0)
(-2.38122e-05 5.811e-05 0)
(-2.13921e-05 5.16767e-05 0)
(-1.92095e-05 4.58988e-05 0)
(-1.72444e-05 4.07114e-05 0)
(-1.54782e-05 3.60552e-05 0)
(-1.3894e-05 3.18759e-05 0)
(-1.24763e-05 2.81241e-05 0)
(-1.12109e-05 2.47541e-05 0)
(-1.00851e-05 2.17245e-05 0)
(-9.08712e-06 1.89972e-05 0)
(-8.20665e-06 1.65373e-05 0)
(-7.43428e-06 1.43126e-05 0)
(-6.7617e-06 1.22936e-05 0)
(-6.18156e-06 1.04529e-05 0)
(-5.68748e-06 8.76497e-06 0)
(-5.27393e-06 7.20626e-06 0)
(-4.93626e-06 5.75445e-06 0)
(-4.67065e-06 4.38849e-06 0)
(-4.47406e-06 3.08829e-06 0)
(-4.34425e-06 1.83455e-06 0)
(-4.27971e-06 6.08454e-07 0)
(-0.00149169 0.023902 0)
(-0.00185034 0.0235285 0)
(-0.00216024 0.0230811 0)
(-0.00242499 0.0225701 0)
(-0.00264799 0.0220051 0)
(-0.00283267 0.0213952 0)
(-0.00298217 0.0207483 0)
(-0.00309943 0.0200721 0)
(-0.00318749 0.0193731 0)
(-0.00324912 0.0186578 0)
(-0.00328686 0.0179316 0)
(-0.00330312 0.0171995 0)
(-0.00330021 0.016466 0)
(-0.00328031 0.0157352 0)
(-0.00324548 0.0150106 0)
(-0.0031976 0.0142952 0)
(-0.00313842 0.0135919 0)
(-0.00306955 0.0129028 0)
(-0.00299246 0.0122299 0)
(-0.00290853 0.0115751 0)
(-0.00281901 0.0109395 0)
(-0.00272503 0.0103243 0)
(-0.00262764 0.00973041 0)
(-0.00252778 0.00915845 0)
(-0.00242629 0.00860887 0)
(-0.00232393 0.00808194 0)
(-0.00222138 0.00757777 0)
(-0.00211923 0.00709634 0)
(-0.00201802 0.0066375 0)
(-0.00191819 0.00620098 0)
(-0.00182015 0.00578642 0)
(-0.00172424 0.0053934 0)
(-0.00163074 0.0050214 0)
(-0.00153989 0.00466987 0)
(-0.00145189 0.00433818 0)
(-0.00136689 0.00402568 0)
(-0.00128501 0.00373171 0)
(-0.00120633 0.00345554 0)
(-0.0011309 0.00319648 0)
(-0.00105877 0.00295378 0)
(-0.00098993 0.00272671 0)
(-0.000924368 0.00251456 0)
(-0.000862054 0.00231659 0)
(-0.000802939 0.00213208 0)
(-0.000746962 0.00196033 0)
(-0.000694049 0.00180066 0)
(-0.00064412 0.00165239 0)
(-0.000597084 0.00151488 0)
(-0.000552844 0.00138748 0)
(-0.000511301 0.00126959 0)
(-0.000472348 0.00116062 0)
(-0.000435879 0.00106001 0)
(-0.000401784 0.000967227 0)
(-0.000369955 0.000881747 0)
(-0.000340283 0.000803083 0)
(-0.000312658 0.000730768 0)
(-0.000286974 0.000664361 0)
(-0.000263127 0.000603441 0)
(-0.000241012 0.000547615 0)
(-0.00022053 0.000496508 0)
(-0.000201585 0.000449769 0)
(-0.000184083 0.000407067 0)
(-0.000167933 0.000368094 0)
(-0.000153048 0.000332558 0)
(-0.000139347 0.000300189 0)
(-0.000126749 0.000270732 0)
(-0.00011518 0.000243952 0)
(-0.000104567 0.000219628 0)
(-9.48423e-05 0.000197557 0)
(-8.59423e-05 0.000177548 0)
(-7.7806e-05 0.000159426 0)
(-7.03762e-05 0.000143027 0)
(-6.35994e-05 0.000128201 0)
(-5.74252e-05 0.000114808 0)
(-5.18064e-05 0.000102722 0)
(-4.66991e-05 9.18226e-05 0)
(-4.20622e-05 8.20021e-05 0)
(-3.78576e-05 7.31602e-05 0)
(-3.40497e-05 6.52052e-05 0)
(-3.06057e-05 5.80528e-05 0)
(-2.74951e-05 5.16258e-05 0)
(-2.46898e-05 4.58536e-05 0)
(-2.21641e-05 4.06713e-05 0)
(-1.9894e-05 3.60197e-05 0)
(-1.78578e-05 3.18445e-05 0)
(-1.60357e-05 2.80964e-05 0)
(-1.44093e-05 2.47297e-05 0)
(-1.29622e-05 2.17031e-05 0)
(-1.16796e-05 1.89785e-05 0)
(-1.05479e-05 1.6521e-05 0)
(-9.55522e-06 1.42986e-05 0)
(-8.69076e-06 1.22815e-05 0)
(-7.94512e-06 1.04426e-05 0)
(-7.31007e-06 8.75635e-06 0)
(-6.77854e-06 7.19918e-06 0)
(-6.34454e-06 5.74879e-06 0)
(-6.00315e-06 4.38417e-06 0)
(-5.75049e-06 3.08526e-06 0)
(-5.58364e-06 1.83274e-06 0)
(-5.50068e-06 6.07856e-07 0)
(-0.00182242 0.0238725 0)
(-0.00226059 0.0234995 0)
(-0.0026392 0.0230526 0)
(-0.00296265 0.0225422 0)
(-0.0032351 0.021978 0)
(-0.00346073 0.0213688 0)
(-0.00364338 0.0207227 0)
(-0.00378664 0.0200473 0)
(-0.00389422 0.0193492 0)
(-0.00396952 0.0186347 0)
(-0.00401562 0.0179094 0)
(-0.00403548 0.0171782 0)
(-0.00403192 0.0164457 0)
(-0.00400762 0.0157158 0)
(-0.00396507 0.0149921 0)
(-0.00390658 0.0142776 0)
(-0.00383427 0.0135751 0)
(-0.00375013 0.0128868 0)
(-0.00365595 0.0122148 0)
(-0.00355341 0.0115608 0)
(-0.00344404 0.010926 0)
(-0.00332923 0.0103115 0)
(-0.00321024 0.00971839 0)
(-0.00308824 0.00914713 0)
(-0.00296425 0.00859823 0)
(-0.00283919 0.00807195 0)
(-0.0027139 0.00756841 0)
(-0.00258911 0.00708757 0)
(-0.00246545 0.0066293 0)
(-0.00234349 0.00619332 0)
(-0.00222372 0.00577927 0)
(-0.00210654 0.00538674 0)
(-0.00199231 0.0050152 0)
(-0.00188132 0.0046641 0)
(-0.00177381 0.00433282 0)
(-0.00166996 0.00402071 0)
(-0.00156992 0.00372709 0)
(-0.00147379 0.00345127 0)
(-0.00138165 0.00319253 0)
(-0.00129352 0.00295013 0)
(-0.00120942 0.00272335 0)
(-0.00112932 0.00251145 0)
(-0.00105319 0.00231372 0)
(-0.000980966 0.00212944 0)
(-0.000912577 0.00195791 0)
(-0.000847934 0.00179844 0)
(-0.000786934 0.00165035 0)
(-0.000729469 0.001513 0)
(-0.000675421 0.00138576 0)
(-0.000624666 0.00126802 0)
(-0.000577076 0.00115919 0)
(-0.000532521 0.0010587 0)
(-0.000490868 0.000966032 0)
(-0.000451982 0.000880658 0)
(-0.00041573 0.000802091 0)
(-0.000381981 0.000729866 0)
(-0.000350602 0.00066354 0)
(-0.000321467 0.000602696 0)
(-0.000294449 0.000546939 0)
(-0.000269426 0.000495895 0)
(-0.00024628 0.000449214 0)
(-0.000224897 0.000406565 0)
(-0.000205166 0.00036764 0)
(-0.000186982 0.000332148 0)
(-0.000170243 0.000299818 0)
(-0.000154852 0.000270398 0)
(-0.000140717 0.000243651 0)
(-0.000127751 0.000219357 0)
(-0.000115871 0.000197313 0)
(-0.000104997 0.000177329 0)
(-9.50571e-05 0.000159229 0)
(-8.598e-05 0.00014285 0)
(-7.77006e-05 0.000128042 0)
(-7.01575e-05 0.000114667 0)
(-6.32929e-05 0.000102595 0)
(-5.70532e-05 9.17094e-05 0)
(-5.13883e-05 8.19009e-05 0)
(-4.62514e-05 7.307e-05 0)
(-4.15992e-05 6.51248e-05 0)
(-3.73916e-05 5.79812e-05 0)
(-3.35913e-05 5.15622e-05 0)
(-3.01641e-05 4.57971e-05 0)
(-2.70783e-05 4.06211e-05 0)
(-2.43049e-05 3.59753e-05 0)
(-2.18173e-05 3.18053e-05 0)
(-1.95911e-05 2.80617e-05 0)
(-1.76041e-05 2.46993e-05 0)
(-1.58362e-05 2.16764e-05 0)
(-1.42692e-05 1.89552e-05 0)
(-1.28866e-05 1.65007e-05 0)
(-1.16738e-05 1.4281e-05 0)
(-1.06177e-05 1.22664e-05 0)
(-9.70672e-06 1.04297e-05 0)
(-8.93087e-06 8.74558e-06 0)
(-8.28149e-06 7.19032e-06 0)
(-7.75126e-06 5.74172e-06 0)
(-7.33418e-06 4.37878e-06 0)
(-7.02549e-06 3.08146e-06 0)
(-6.82165e-06 1.83049e-06 0)
(-6.72031e-06 6.07109e-07 0)
(-0.0021527 0.0238371 0)
(-0.00267028 0.0234646 0)
(-0.00311751 0.0230184 0)
(-0.00349958 0.0225087 0)
(-0.00382142 0.0219453 0)
(-0.00408793 0.021337 0)
(-0.00430368 0.0206919 0)
(-0.00447291 0.0200175 0)
(-0.0046 0.0193205 0)
(-0.00468893 0.0186071 0)
(-0.00474338 0.0178828 0)
(-0.00476684 0.0171527 0)
(-0.00476264 0.0164213 0)
(-0.00473394 0.0156925 0)
(-0.00468368 0.0149698 0)
(-0.00461459 0.0142564 0)
(-0.00452918 0.0135549 0)
(-0.00442978 0.0128677 0)
(-0.00431854 0.0121967 0)
(-0.00419741 0.0115436 0)
(-0.00406822 0.0109097 0)
(-0.0039326 0.0102962 0)
(-0.00379205 0.00970396 0)
(-0.00364794 0.00913356 0)
(-0.00350147 0.00858547 0)
(-0.00335375 0.00805997 0)
(-0.00320576 0.00755718 0)
(-0.00305835 0.00707706 0)
(-0.00291228 0.00661946 0)
(-0.00276821 0.00618413 0)
(-0.00262673 0.0057707 0)
(-0.00248832 0.00537874 0)
(-0.00235338 0.00500776 0)
(-0.00222228 0.00465717 0)
(-0.00209528 0.00432639 0)
(-0.00197261 0.00401474 0)
(-0.00185444 0.00372156 0)
(-0.0017409 0.00344615 0)
(-0.00163205 0.00318779 0)
(-0.00152795 0.00294575 0)
(-0.0014286 0.00271931 0)
(-0.00133399 0.00250773 0)
(-0.00124406 0.00231029 0)
(-0.00115875 0.00212629 0)
(-0.00107797 0.00195501 0)
(-0.00100161 0.00179577 0)
(-0.000929554 0.0016479 0)
(-0.000861674 0.00151076 0)
(-0.00079783 0.00138371 0)
(-0.000737877 0.00126614 0)
(-0.000681663 0.00115747 0)
(-0.000629033 0.00105713 0)
(-0.00057983 0.000964599 0)
(-0.000533897 0.000879352 0)
(-0.000491075 0.000800901 0)
(-0.000451209 0.000728783 0)
(-0.000414144 0.000662556 0)
(-0.000379728 0.000601803 0)
(-0.000347813 0.000546128 0)
(-0.000318256 0.00049516 0)
(-0.000290915 0.000448548 0)
(-0.000265657 0.000405962 0)
(-0.00024235 0.000367095 0)
(-0.00022087 0.000331655 0)
(-0.000201097 0.000299374 0)
(-0.000182917 0.000269997 0)
(-0.00016622 0.00024329 0)
(-0.000150904 0.000219032 0)
(-0.000136871 0.000197021 0)
(-0.000124027 0.000177066 0)
(-0.000112285 0.000158993 0)
(-0.000101563 0.000142639 0)
(-9.17827e-05 0.000127853 0)
(-8.28725e-05 0.000114497 0)
(-7.47638e-05 0.000102443 0)
(-6.73933e-05 9.15735e-05 0)
(-6.07017e-05 8.17796e-05 0)
(-5.46338e-05 7.29618e-05 0)
(-4.91385e-05 6.50283e-05 0)
(-4.41683e-05 5.78954e-05 0)
(-3.96792e-05 5.14858e-05 0)
(-3.56309e-05 4.57293e-05 0)
(-3.19859e-05 4.0561e-05 0)
(-2.87098e-05 3.5922e-05 0)
(-2.57714e-05 3.17582e-05 0)
(-2.31417e-05 2.80202e-05 0)
(-2.07946e-05 2.46627e-05 0)
(-1.87063e-05 2.16443e-05 0)
(-1.68553e-05 1.89271e-05 0)
(-1.52222e-05 1.64763e-05 0)
(-1.37895e-05 1.42598e-05 0)
(-1.2542e-05 1.22483e-05 0)
(-1.14659e-05 1.04143e-05 0)
(-1.05495e-05 8.73265e-06 0)
(-9.7824e-06 7.17969e-06 0)
(-9.15608e-06 5.73323e-06 0)
(-8.66341e-06 4.37231e-06 0)
(-8.29878e-06 3.07691e-06 0)
(-8.05799e-06 1.82779e-06 0)
(-7.93828e-06 6.06212e-07 0)
(-0.00248246 0.0237958 0)
(-0.00307932 0.0234239 0)
(-0.00359506 0.0229785 0)
(-0.00403565 0.0224697 0)
(-0.00440679 0.0219073 0)
(-0.00471413 0.0213001 0)
(-0.00496292 0.0206561 0)
(-0.00515808 0.0199828 0)
(-0.00530464 0.019287 0)
(-0.00540719 0.0185748 0)
(-0.00546998 0.0178518 0)
(-0.00549702 0.017123 0)
(-0.00549218 0.0163928 0)
(-0.00545909 0.0156653 0)
(-0.00540114 0.0149439 0)
(-0.00532146 0.0142317 0)
(-0.00522297 0.0135314 0)
(-0.00510835 0.0128454 0)
(-0.00498006 0.0121756 0)
(-0.00484038 0.0115236 0)
(-0.0046914 0.0108908 0)
(-0.004535 0.0102784 0)
(-0.00437292 0.00968715 0)
(-0.00420673 0.00911773 0)
(-0.00403783 0.00857059 0)
(-0.00386749 0.00804601 0)
(-0.00369682 0.00754408 0)
(-0.00352683 0.00706479 0)
(-0.00335838 0.00660799 0)
(-0.00319225 0.00617341 0)
(-0.0030291 0.0057607 0)
(-0.00286948 0.00536942 0)
(-0.00271388 0.00499908 0)
(-0.00256269 0.0046491 0)
(-0.00241624 0.00431889 0)
(-0.00227478 0.00400779 0)
(-0.00213851 0.00371512 0)
(-0.00200757 0.00344018 0)
(-0.00188205 0.00318227 0)
(-0.001762 0.00294065 0)
(-0.00164744 0.00271459 0)
(-0.00153833 0.00250338 0)
(-0.00143463 0.00230629 0)
(-0.00133625 0.0021226 0)
(-0.00124309 0.00195162 0)
(-0.00115504 0.00179266 0)
(-0.00107194 0.00164505 0)
(-0.000993666 0.00150814 0)
(-0.000920043 0.00138131 0)
(-0.000850906 0.00126394 0)
(-0.000786081 0.00115546 0)
(-0.000725389 0.0010553 0)
(-0.000668649 0.000962928 0)
(-0.00061568 0.000877829 0)
(-0.000566299 0.000799514 0)
(-0.000520326 0.000727521 0)
(-0.000477583 0.000661409 0)
(-0.000437895 0.000600761 0)
(-0.000401092 0.000545182 0)
(-0.000367007 0.000494302 0)
(-0.000335478 0.000447771 0)
(-0.00030635 0.000405259 0)
(-0.000279473 0.000366459 0)
(-0.000254703 0.000331081 0)
(-0.000231901 0.000298855 0)
(-0.000210936 0.00026953 0)
(-0.000191682 0.000242868 0)
(-0.00017402 0.000218653 0)
(-0.000157837 0.00019668 0)
(-0.000143025 0.00017676 0)
(-0.000129485 0.000158718 0)
(-0.00011712 0.000142392 0)
(-0.000105842 0.000127632 0)
(-9.55671e-05 0.000114299 0)
(-8.62163e-05 0.000102266 0)
(-7.77168e-05 9.14151e-05 0)
(-7.00001e-05 8.16382e-05 0)
(-6.30027e-05 7.28356e-05 0)
(-5.66656e-05 6.49159e-05 0)
(-5.0934e-05 5.77952e-05 0)
(-4.57574e-05 5.13968e-05 0)
(-4.10889e-05 4.56502e-05 0)
(-3.68855e-05 4.04909e-05 0)
(-3.31077e-05 3.58599e-05 0)
(-2.97191e-05 3.17034e-05 0)
(-2.66866e-05 2.79718e-05 0)
(-2.398e-05 2.46201e-05 0)
(-2.15718e-05 2.16069e-05 0)
(-1.94373e-05 1.88944e-05 0)
(-1.75539e-05 1.64478e-05 0)
(-1.59019e-05 1.42352e-05 0)
(-1.44632e-05 1.22271e-05 0)
(-1.32223e-05 1.03963e-05 0)
(-1.21655e-05 8.71757e-06 0)
(-1.12809e-05 7.16729e-06 0)
(-1.05586e-05 5.72334e-06 0)
(-9.99051e-06 4.36476e-06 0)
(-9.57002e-06 3.0716e-06 0)
(-9.29235e-06 1.82463e-06 0)
(-9.15431e-06 6.05165e-07 0)
(-0.0028116 0.0237486 0)
(-0.0034876 0.0233775 0)
(-0.00407172 0.0229329 0)
(-0.00457073 0.0224252 0)
(-0.00499107 0.0218639 0)
(-0.00533916 0.0212578 0)
(-0.00562094 0.0206151 0)
(-0.00584198 0.0199432 0)
(-0.00600797 0.0192488 0)
(-0.00612411 0.018538 0)
(-0.00619522 0.0178165 0)
(-0.00622585 0.0170891 0)
(-0.00622037 0.0163603 0)
(-0.00618289 0.0156342 0)
(-0.00611726 0.0149143 0)
(-0.00602702 0.0142035 0)
(-0.00591547 0.0135046 0)
(-0.00578565 0.0128199 0)
(-0.00564035 0.0121514 0)
(-0.00548216 0.0115007 0)
(-0.00531342 0.0108692 0)
(-0.00513628 0.010258 0)
(-0.00495272 0.00966794 0)
(-0.00476449 0.00909965 0)
(-0.0045732 0.0085536 0)
(-0.00438027 0.00803005 0)
(-0.00418697 0.00752912 0)
(-0.00399444 0.00705079 0)
(-0.00380366 0.00659489 0)
(-0.0036155 0.00616117 0)
(-0.00343072 0.00574928 0)
(-0.00324994 0.00535878 0)
(-0.0030737 0.00498917 0)
(-0.00290247 0.00463989 0)
(-0.0027366 0.00431033 0)
(-0.00257638 0.00399984 0)
(-0.00242205 0.00370775 0)
(-0.00227375 0.00343336 0)
(-0.00213159 0.00317596 0)
(-0.00199562 0.00293482 0)
(-0.00186587 0.00270921 0)
(-0.0017423 0.00249842 0)
(-0.00162484 0.00230172 0)
(-0.00151342 0.00211839 0)
(-0.00140791 0.00194775 0)
(-0.00130818 0.00178911 0)
(-0.00121407 0.00164179 0)
(-0.00112541 0.00150515 0)
(-0.00104203 0.00137857 0)
(-0.000963725 0.00126144 0)
(-0.000890305 0.00115317 0)
(-0.000821566 0.00105321 0)
(-0.000757303 0.00096102 0)
(-0.000697311 0.000876089 0)
(-0.000641383 0.00079793 0)
(-0.000589314 0.000726079 0)
(-0.000540904 0.000660098 0)
(-0.000495954 0.00059957 0)
(-0.000454271 0.000544102 0)
(-0.000415667 0.000493323 0)
(-0.000379958 0.000446884 0)
(-0.000346968 0.000404457 0)
(-0.000316528 0.000365733 0)
(-0.000288473 0.000330425 0)
(-0.000262648 0.000298263 0)
(-0.000238904 0.000268996 0)
(-0.000217097 0.000242387 0)
(-0.000197093 0.00021822 0)
(-0.000178764 0.00019629 0)
(-0.000161989 0.00017641 0)
(-0.000146653 0.000158404 0)
(-0.000132649 0.00014211 0)
(-0.000119876 0.000127379 0)
(-0.000108238 0.000114073 0)
(-9.76476e-05 0.000102064 0)
(-8.80211e-05 9.12342e-05 0)
(-7.92812e-05 8.14766e-05 0)
(-7.13561e-05 7.26914e-05 0)
(-6.41788e-05 6.47874e-05 0)
(-5.76873e-05 5.76809e-05 0)
(-5.18243e-05 5.12951e-05 0)
(-4.65368e-05 4.55599e-05 0)
(-4.17761e-05 4.04108e-05 0)
(-3.74974e-05 3.5789e-05 0)
(-3.36595e-05 3.16406e-05 0)
(-3.02249e-05 2.79165e-05 0)
(-2.71595e-05 2.45714e-05 0)
(-2.4432e-05 2.15642e-05 0)
(-2.20144e-05 1.88571e-05 0)
(-1.98814e-05 1.64153e-05 0)
(-1.80103e-05 1.42071e-05 0)
(-1.63809e-05 1.22029e-05 0)
(-1.49755e-05 1.03758e-05 0)
(-1.37785e-05 8.70034e-06 0)
(-1.27766e-05 7.15313e-06 0)
(-1.19586e-05 5.71203e-06 0)
(-1.13151e-05 4.35614e-06 0)
(-1.08389e-05 3.06553e-06 0)
(-1.05244e-05 1.82103e-06 0)
(-1.03681e-05 6.0397e-07 0)
(-0.00314005 0.0236956 0)
(-0.00389502 0.0233253 0)
(-0.00454737 0.0228817 0)
(-0.00510467 0.0223751 0)
(-0.00557413 0.0218151 0)
(-0.00596288 0.0212104 0)
(-0.00627757 0.0205691 0)
(-0.00652444 0.0198987 0)
(-0.00670982 0.0192058 0)
(-0.00683952 0.0184966 0)
(-0.00691893 0.0177767 0)
(-0.00695314 0.0170509 0)
(-0.00694703 0.0163238 0)
(-0.00690517 0.0155993 0)
(-0.00683187 0.0148809 0)
(-0.00673109 0.0141718 0)
(-0.00660652 0.0134745 0)
(-0.00646153 0.0127913 0)
(-0.00629926 0.0121243 0)
(-0.00612258 0.0114751 0)
(-0.00593412 0.010845 0)
(-0.0057363 0.0102351 0)
(-0.00553129 0.00964635 0)
(-0.00532107 0.00907933 0)
(-0.00510743 0.0085345 0)
(-0.00489196 0.00801212 0)
(-0.00467609 0.00751231 0)
(-0.00446106 0.00703504 0)
(-0.004248 0.00658016 0)
(-0.00403786 0.00614741 0)
(-0.00383149 0.00573644 0)
(-0.00362959 0.00534681 0)
(-0.00343277 0.00497803 0)
(-0.00324153 0.00462953 0)
(-0.00305629 0.0043007 0)
(-0.00287735 0.00399091 0)
(-0.00270499 0.00369947 0)
(-0.00253936 0.00342569 0)
(-0.00238059 0.00316887 0)
(-0.00222875 0.00292826 0)
(-0.00208384 0.00270316 0)
(-0.00194583 0.00249284 0)
(-0.00181465 0.00229658 0)
(-0.00169022 0.00211366 0)
(-0.00157238 0.0019434 0)
(-0.001461 0.00178511 0)
(-0.0013559 0.00163812 0)
(-0.00125688 0.00150179 0)
(-0.00116376 0.00137549 0)
(-0.00107631 0.00125862 0)
(-0.000994309 0.0011506 0)
(-0.00091754 0.00105086 0)
(-0.000845771 0.000958875 0)
(-0.00077877 0.000874133 0)
(-0.000716308 0.000796149 0)
(-0.000658157 0.000724459 0)
(-0.000604092 0.000658625 0)
(-0.000553891 0.000598232 0)
(-0.000507339 0.000542888 0)
(-0.000464225 0.000492222 0)
(-0.000424344 0.000445887 0)
(-0.000387501 0.000403554 0)
(-0.000353505 0.000364917 0)
(-0.000322173 0.000329688 0)
(-0.000293331 0.000297598 0)
(-0.000266812 0.000268396 0)
(-0.000242458 0.000241847 0)
(-0.000220117 0.000217733 0)
(-0.000199647 0.000195852 0)
(-0.000180912 0.000176016 0)
(-0.000163785 0.00015805 0)
(-0.000148145 0.000141793 0)
(-0.000133879 0.000127095 0)
(-0.000120882 0.000113818 0)
(-0.000109055 0.000101836 0)
(-9.83037e-05 9.10307e-05 0)
(-8.85429e-05 8.12949e-05 0)
(-7.96919e-05 7.25293e-05 0)
(-7.16761e-05 6.4643e-05 0)
(-6.44263e-05 5.75523e-05 0)
(-5.78784e-05 5.11808e-05 0)
(-5.19732e-05 4.54583e-05 0)
(-4.66564e-05 4.03207e-05 0)
(-4.18778e-05 3.57092e-05 0)
(-3.75916e-05 3.15701e-05 0)
(-3.37558e-05 2.78543e-05 0)
(-3.03323e-05 2.45167e-05 0)
(-2.72862e-05 2.15162e-05 0)
(-2.45862e-05 1.88151e-05 0)
(-2.2204e-05 1.63788e-05 0)
(-2.01142e-05 1.41754e-05 0)
(-1.82945e-05 1.21758e-05 0)
(-1.67249e-05 1.03527e-05 0)
(-1.53881e-05 8.68097e-06 0)
(-1.42692e-05 7.1372e-06 0)
(-1.33556e-05 5.69931e-06 0)
(-1.2637e-05 4.34644e-06 0)
(-1.21051e-05 3.05871e-06 0)
(-1.17539e-05 1.81697e-06 0)
(-1.15793e-05 6.02625e-07 0)
(-0.00346772 0.0236367 0)
(-0.00430147 0.0232673 0)
(-0.0050219 0.0228248 0)
(-0.00563736 0.0223195 0)
(-0.00615581 0.0217609 0)
(-0.00658512 0.0211577 0)
(-0.00693265 0.020518 0)
(-0.00720528 0.0198492 0)
(-0.00741001 0.0191581 0)
(-0.00755325 0.0184507 0)
(-0.00764094 0.0177325 0)
(-0.00767872 0.0170085 0)
(-0.00767197 0.0162832 0)
(-0.00762575 0.0155606 0)
(-0.0075448 0.014844 0)
(-0.00743351 0.0141366 0)
(-0.00729593 0.013441 0)
(-0.00713581 0.0127595 0)
(-0.00695661 0.0120942 0)
(-0.00676149 0.0114465 0)
(-0.00655337 0.010818 0)
(-0.0063349 0.0102097 0)
(-0.0061085 0.00962238 0)
(-0.00587634 0.00905677 0)
(-0.00564041 0.00851329 0)
(-0.00540245 0.00799221 0)
(-0.00516405 0.00749364 0)
(-0.00492659 0.00701756 0)
(-0.00469129 0.00656381 0)
(-0.00445923 0.00613213 0)
(-0.00423131 0.00572218 0)
(-0.00400835 0.00533352 0)
(-0.00379099 0.00496566 0)
(-0.00357979 0.00461802 0)
(-0.00337522 0.00429001 0)
(-0.00317761 0.00398099 0)
(-0.00298726 0.00369028 0)
(-0.00280435 0.00341718 0)
(-0.00262902 0.00316099 0)
(-0.00246133 0.00292099 0)
(-0.00230129 0.00269645 0)
(-0.00214888 0.00248665 0)
(-0.00200402 0.00229087 0)
(-0.00186659 0.00210841 0)
(-0.00173646 0.00193857 0)
(-0.00161346 0.00178068 0)
(-0.00149739 0.00163405 0)
(-0.00138804 0.00149806 0)
(-0.0012852 0.00137208 0)
(-0.00118862 0.0012555 0)
(-0.00109807 0.00114774 0)
(-0.00101329 0.00104825 0)
(-0.000934029 0.000956493 0)