/*--------------------------------*- C++ -*----------------------------------*\
| =========                 |                                                 |
| \\      /  F ield         | OpenFOAM: The Open Source CFD Toolbox           |
|  \\    /   O peration     | Version:  2406                                  |
|   \\  /    A nd           | Website:  www.openfoam.com                      |
|    \\/     M anipulation  |                                                 |
\*---------------------------------------------------------------------------*/
FoamFile
{
    version     2.0;
    format      ascii;
    arch        "LSB;label=32;scalar=64";
    class       volScalarField;
    location    "95";
    object      gradTx;
}
// * * * * * * * * * * * * * * * * * * * * * * * * * * * * * * * * * * * * * //

dimensions      [0 -1 0 1 0 0 0];

internalField   nonuniform List<scalar> 
20000
(
-1.41006
-1.74907
-2.04218
-2.29237
-2.50295
-2.67778
-2.81925
-2.92989
-3.01301
-3.07132
-3.10708
-3.12248
-3.11973
-3.1009
-3.06796
-3.02269
-2.96674
-2.90163
-2.82877
-2.74943
-2.66481
-2.57597
-2.48391
-2.38951
-2.29357
-2.19681
-2.09987
-2.00331
-1.90763
-1.81327
-1.72059
-1.62993
-1.54154
-1.45566
-1.37247
-1.29212
-1.21472
-1.14034
-1.06904
-1.00086
-0.935781
-0.873806
-0.8149
-0.759018
-0.706103
-0.656085
-0.608887
-0.564423
-0.522604
-0.483333
-0.44651
-0.412036
-0.379807
-0.349719
-0.321669
-0.295556
-0.271277
-0.248733
-0.227828
-0.208467
-0.190558
-0.174013
-0.158747
-0.144676
-0.131725
-0.119816
-0.108879
-0.0988469
-0.0896544
-0.0812412
-0.0735499
-0.0665266
-0.0601205
-0.054284
-0.0489726
-0.0441446
-0.0397614
-0.0357867
-0.0321871
-0.0289315
-0.0259911
-0.0233393
-0.0209517
-0.0188058
-0.016881
-0.0151585
-0.0136211
-0.0122532
-0.0110407
-0.00997094
-0.00903253
-0.00821535
-0.0075105
-0.00691019
-0.00640773
-0.00599747
-0.00567476
-0.00543591
-0.00527818
-0.00519976
-4.23003
-5.24684
-6.1256
-6.87648
-7.50864
-8.0326
-8.45672
-8.78891
-9.03845
-9.2133
-9.32047
-9.36663
-9.35837
-9.30192
-9.20311
-9.06732
-8.8995
-8.70419
-8.48561
-8.24762
-7.99376
-7.72728
-7.45112
-7.16795
-6.88016
-6.5899
-6.2991
-6.00944
-5.72243
-5.43936
-5.16135
-4.88937
-4.62424
-4.36663
-4.11708
-3.87605
-3.64385
-3.42074
-3.20687
-3.00232
-2.80711
-2.6212
-2.4445
-2.27687
-2.11813
-1.96809
-1.82651
-1.69313
-1.56768
-1.44988
-1.33942
-1.23601
-1.13933
-1.04907
-0.964929
-0.886595
-0.813764
-0.746139
-0.683429
-0.62535
-0.571628
-0.521997
-0.476201
-0.433994
-0.395141
-0.359418
-0.326611
-0.296516
-0.268941
-0.243704
-0.220632
-0.199563
-0.180347
-0.162839
-0.146906
-0.132423
-0.119274
-0.107351
-0.0965535
-0.0867874
-0.0779668
-0.0700121
-0.0628498
-0.0564127
-0.0506388
-0.0454717
-0.0408599
-0.0367565
-0.0331194
-0.0299104
-0.0270954
-0.024644
-0.0225297
-0.0207289
-0.0192216
-0.017991
-0.0170229
-0.0163064
-0.0158333
-0.015598
-7.04895
-8.74353
-10.2077
-11.4589
-12.5126
-13.3854
-14.0919
-14.6458
-15.0618
-15.3531
-15.5316
-15.6084
-15.5947
-15.5006
-15.336
-15.1097
-14.8301
-14.5046
-14.1404
-13.7438
-13.3207
-12.8767
-12.4165
-11.9446
-11.465
-10.9814
-10.4968
-10.0141
-9.53581
-9.0641
-8.60083
-8.14762
-7.7058
-7.27652
-6.86068
-6.45902
-6.07209
-5.7003
-5.3439
-5.00304
-4.67775
-4.36795
-4.07349
-3.79416
-3.52964
-3.27962
-3.04368
-2.82142
-2.61237
-2.41607
-2.232
-2.05967
-1.89856
-1.74816
-1.60795
-1.47741
-1.35605
-1.24336
-1.13886
-1.04208
-0.952557
-0.869852
-0.793537
-0.723204
-0.65846
-0.598932
-0.544262
-0.494112
-0.448162
-0.406106
-0.367659
-0.332551
-0.300528
-0.271353
-0.244802
-0.220669
-0.198758
-0.17889
-0.160896
-0.144622
-0.129923
-0.116668
-0.104733
-0.0940057
-0.0843842
-0.0757737
-0.0680886
-0.0612508
-0.05519
-0.0498425
-0.0451516
-0.0410667
-0.0375433
-0.0345425
-0.0320308
-0.02998
-0.0283668
-0.0271729
-0.0263845
-0.0259925
-9.86592
-12.2379
-14.2874
-16.0385
-17.5134
-18.7348
-19.7237
-20.4991
-21.0814
-21.4891
-21.7388
-21.8463
-21.8271
-21.6955
-21.4651
-21.1484
-20.757
-20.3015
-19.7916
-19.2365
-18.6445
-18.0229
-17.3788
-16.7183
-16.0471
-15.3701
-14.6919
-14.0163
-13.3468
-12.6866
-12.0382
-11.4038
-10.7855
-10.1846
-9.60258
-9.04039
-8.49883
-7.97845
-7.47962
-7.00253
-6.54723
-6.11362
-5.70148
-5.31051
-4.94028
-4.59033
-4.2601
-3.94901
-3.65642
-3.38166
-3.12403
-2.88283
-2.65733
-2.44682
-2.25058
-2.06787
-1.898
-1.74028
-1.59401
-1.45855
-1.33325
-1.21749
-1.11068
-1.01224
-0.921617
-0.838298
-0.761779
-0.691587
-0.627272
-0.568408
-0.514596
-0.465457
-0.420636
-0.3798
-0.342639
-0.30886
-0.278193
-0.250384
-0.225199
-0.202421
-0.181848
-0.163294
-0.146589
-0.131576
-0.118109
-0.106057
-0.0953006
-0.0857301
-0.0772469
-0.0697623
-0.0631966
-0.0574792
-0.0525477
-0.0483476
-0.0448321
-0.0419617
-0.0397038
-0.0380327
-0.0369292
-0.0363805
-12.6804
-15.7292
-18.3635
-20.6141
-22.5098
-24.0797
-25.3506
-26.3473
-27.0959
-27.6198
-27.9406
-28.0788
-28.0541
-27.885
-27.5889
-27.1819
-26.6788
-26.0933
-25.438
-24.7246
-23.9636
-23.1647
-22.3368
-21.4879
-20.6252
-19.7551
-18.8833
-18.015
-17.1546
-16.306
-15.4726
-14.6573
-13.8625
-13.0902
-12.3421
-11.6195
-10.9235
-10.2546
-9.61349
-9.00029
-8.4151
-7.85778
-7.32807
-6.82555
-6.3497
-5.89991
-5.47547
-5.07563
-4.69957
-4.34642
-4.01529
-3.70527
-3.41545
-3.14488
-2.89264
-2.65782
-2.43949
-2.23676
-2.04877
-1.87466
-1.71362
-1.56483
-1.42754
-1.30102
-1.18455
-1.07746
-0.979108
-0.888891
-0.806227
-0.73057
-0.661406
-0.598247
-0.54064
-0.488154
-0.440391
-0.396975
-0.357559
-0.321816
-0.289446
-0.26017
-0.233728
-0.209881
-0.18841
-0.169113
-0.151804
-0.136314
-0.122489
-0.110188
-0.0992849
-0.0896649
-0.0812261
-0.0738776
-0.0675391
-0.0621408
-0.0576224
-0.0539331
-0.051031
-0.0488832
-0.0474648
-0.0467597
-15.4918
-19.2166
-22.4351
-25.1846
-27.5006
-29.4186
-30.9713
-32.1891
-33.1036
-33.7437
-34.1356
-34.3044
-34.2742
-34.0676
-33.7059
-33.2087
-32.594
-31.8787
-31.0782
-30.2065
-29.2768
-28.3008
-27.2893
-26.2522
-25.1982
-24.1352
-23.0701
-22.0093
-20.9581
-19.9213
-18.9032
-17.9071
-16.936
-15.9925
-15.0786
-14.1958
-13.3454
-12.5283
-11.745
-10.9958
-10.2809
-9.6
-8.95284
-8.3389
-7.75755
-7.20803
-6.68949
-6.201
-5.74155
-5.3101
-4.90556
-4.52681
-4.17272
-3.84216
-3.534
-3.24711
-2.98037
-2.73269
-2.50302
-2.29031
-2.09356
-1.91179
-1.74406
-1.58948
-1.44718
-1.31635
-1.1962
-1.08598
-0.984983
-0.892552
-0.808052
-0.730891
-0.66051
-0.596388
-0.538034
-0.484993
-0.436837
-0.393169
-0.353623
-0.317855
-0.28555
-0.256416
-0.230185
-0.206609
-0.185462
-0.166538
-0.149647
-0.134619
-0.121298
-0.109546
-0.0992357
-0.0902578
-0.082514
-0.0759187
-0.0703985
-0.0658912
-0.0623457
-0.0597217
-0.0579889
-0.0571274
-18.2995
-22.6993
-26.5011
-29.7489
-32.4847
-34.7503
-36.5843
-38.0229
-39.1032
-39.8592
-40.3221
-40.5215
-40.4858
-40.2418
-39.8146
-39.2273
-38.5012
-37.6563
-36.7106
-35.681
-34.5827
-33.4299
-32.2351
-31.01
-29.765
-28.5093
-27.2512
-25.9981
-24.7564
-23.5318
-22.3291
-21.1524
-20.0054
-18.8909
-17.8114
-16.7686
-15.7641
-14.7988
-13.8736
-12.9887
-12.1441
-11.3399
-10.5754
-9.8502
-9.16349
-8.51438
-7.90186
-7.32484
-6.78212
-6.27247
-5.79461
-5.34722
-4.92896
-4.5385
-4.17448
-3.83559
-3.52051
-3.22795
-2.95666
-2.7054
-2.47298
-2.25827
-2.06014
-1.87755
-1.70946
-1.55492
-1.41299
-1.28279
-1.1635
-1.05431
-0.9545
-0.863354
-0.780218
-0.704474
-0.635545
-0.572891
-0.516007
-0.464426
-0.417712
-0.375461
-0.337301
-0.302888
-0.271902
-0.244054
-0.219075
-0.196721
-0.176769
-0.159017
-0.143282
-0.129399
-0.117221
-0.106616
-0.0974685
-0.0896779
-0.0831573
-0.0778331
-0.0736451
-0.0705454
-0.0684986
-0.067481
-21.1026
-26.1764
-30.5605
-34.3059
-37.4608
-40.0734
-42.1883
-43.8474
-45.0932
-45.9649
-46.4986
-46.7286
-46.6874
-46.4061
-45.9135
-45.2362
-44.3989
-43.4246
-42.334
-41.1467
-39.8802
-38.5507
-37.1729
-35.7602
-34.3244
-32.8764
-31.4256
-29.9805
-28.5486
-27.1364
-25.7495
-24.3926
-23.0699
-21.7847
-20.5397
-19.3372
-18.1788
-17.0657
-15.9988
-14.9783
-14.0044
-13.0769
-12.1954
-11.3591
-10.5672
-9.81862
-9.11228
-8.44687
-7.82102
-7.2333
-6.68224
-6.16632
-5.68399
-5.23371
-4.81394
-4.42314
-4.05979
-3.72242
-3.40956
-3.11981
-2.8518
-2.60419
-2.37572
-2.16516
-1.97132
-1.79311
-1.62943
-1.47929
-1.34172
-1.21582
-1.10071
-0.995604
-0.899733
-0.812387
-0.7329
-0.660647
-0.59505
-0.535567
-0.481698
-0.432975
-0.38897
-0.349285
-0.313553
-0.281439
-0.252633
-0.226855
-0.203847
-0.183376
-0.16523
-0.149221
-0.135177
-0.122948
-0.112399
-0.103415
-0.0958956
-0.0897559
-0.0849264
-0.0813519
-0.0789915
-0.077818
-23.9006
-29.647
-34.6124
-38.8544
-42.4276
-45.3866
-47.7819
-49.661
-51.072
-52.0593
-52.6637
-52.9241
-52.8775
-52.559
-52.001
-51.2339
-50.2857
-49.1821
-47.947
-46.6022
-45.1678
-43.662
-42.1016
-40.5015
-38.8754
-37.2354
-35.5922
-33.9555
-32.3338
-30.7343
-29.1635
-27.6267
-26.1286
-24.673
-23.263
-21.9011
-20.5891
-19.3284
-18.12
-16.9642
-15.8612
-14.8107
-13.8123
-12.8651
-11.9682
-11.1204
-10.3205
-9.56681
-8.85798
-8.19234
-7.56822
-6.98389
-6.43761
-5.92763
-5.4522
-5.00959
-4.59807
-4.21596
-3.86163
-3.53346
-3.22991
-2.94948
-2.69071
-2.45223
-2.2327
-2.03085
-1.84548
-1.67543
-1.51962
-1.37702
-1.24665
-1.12761
-1.01903
-0.9201
-0.830073
-0.748241
-0.673946
-0.606577
-0.545565
-0.490383
-0.440543
-0.395596
-0.355126
-0.318754
-0.286129
-0.256933
-0.230875
-0.207689
-0.187138
-0.169006
-0.1531
-0.139249
-0.127302
-0.117127
-0.10861
-0.101657
-0.0961867
-0.0921384
-0.089465
-0.088136
-26.6926
-33.1104
-38.6558
-43.3933
-47.384
-50.6887
-53.3637
-55.4623
-57.0382
-58.1408
-58.8158
-59.1066
-59.0546
-58.6988
-58.0757
-57.219
-56.16
-54.9275
-53.5481
-52.0462
-50.4442
-48.7626
-47.0199
-45.2329
-43.4168
-41.5851
-39.75
-37.9222
-36.111
-34.3247
-32.5703
-30.8541
-29.181
-27.5553
-25.9806
-24.4595
-22.9943
-21.5864
-20.2367
-18.9459
-17.7141
-16.5409
-15.4258
-14.368
-13.3663
-12.4195
-11.5261
-10.6844
-9.89276
-9.14936
-8.45233
-7.79974
-7.18965
-6.62009
-6.08913
-5.5948
-5.13521
-4.70847
-4.31274
-3.94624
-3.60723
-3.29403
-3.00504
-2.73869
-2.49352
-2.26809
-2.06106
-1.87115
-1.69714
-1.53788
-1.39229
-1.25934
-1.13807
-1.02759
-0.927042
-0.83565
-0.752677
-0.677438
-0.609298
-0.547669
-0.492007
-0.441809
-0.396612
-0.355991
-0.319555
-0.286948
-0.257846
-0.231952
-0.209
-0.188749
-0.170985
-0.155516
-0.142174
-0.13081
-0.121298
-0.113532
-0.107423
-0.102902
-0.0999165
-0.0984322
-29.4781
-36.5656
-42.6897
-47.9215
-52.3287
-55.9782
-58.9324
-61.25
-62.9903
-64.2079
-64.9534
-65.2745
-65.2171
-64.8242
-64.1361
-63.1901
-62.0205
-60.6594
-59.1361
-57.4774
-55.7083
-53.8511
-51.9265
-49.9531
-47.9475
-45.9247
-43.8981
-41.8795
-39.8793
-37.9066
-35.9692
-34.0738
-32.2261
-30.4308
-28.6917
-27.012
-25.3938
-23.839
-22.3485
-20.923
-19.5626
-18.267
-17.0356
-15.8674
-14.7612
-13.7155
-12.7289
-11.7993
-10.9251
-10.1041
-9.33436
-8.61367
-7.93991
-7.31092
-6.72454
-6.17864
-5.67108
-5.19981
-4.76279
-4.35804
-3.98365
-3.63777
-3.31862
-3.02449
-2.75372
-2.50477
-2.27614
-2.06641
-1.87424
-1.69836
-1.53758
-1.39075
-1.25683
-1.13482
-1.02378
-0.922854
-0.831222
-0.748131
-0.67288
-0.604821
-0.54335
-0.487914
-0.438001
-0.39314
-0.352902
-0.316893
-0.284753
-0.256157
-0.23081
-0.208446
-0.188828
-0.171745
-0.15701
-0.144461
-0.133957
-0.12538
-0.118634
-0.113641
-0.110343
-0.108704
-32.2562
-40.0117
-46.713
-52.4379
-57.2605
-61.2539
-64.4865
-67.0225
-68.9269
-70.2592
-71.0749
-71.4263
-71.3635
-70.9337
-70.1807
-69.1455
-67.8657
-66.3763
-64.7094
-62.8944
-60.9585
-58.9264
-56.8204
-54.6609
-52.4663
-50.2529
-48.0353
-45.8264
-43.6377
-41.4791
-39.3591
-37.2851
-35.2632
-33.2987
-31.3958
-29.5577
-27.7871
-26.0857
-24.4547
-22.8949
-21.4063
-19.9886
-18.6411
-17.3628
-16.1523
-15.0082
-13.9285
-12.9114
-11.9547
-11.0564
-10.2141
-9.42547
-8.68821
-7.99994
-7.3583
-6.76095
-6.20556
-5.68987
-5.21166
-4.76877
-4.3591
-3.98062
-3.63139
-3.30953
-3.01325
-2.74084
-2.49066
-2.26116
-2.05088
-1.85843
-1.68249
-1.52183
-1.37528
-1.24177
-1.12027
-1.00983
-0.909561
-0.81864
-0.736297
-0.661823
-0.594559
-0.533898
-0.479281
-0.430193
-0.386162
-0.346759
-0.31159
-0.280299
-0.252563
-0.228092
-0.206625
-0.187932
-0.171808
-0.158076
-0.146582
-0.137197
-0.129815
-0.124351
-0.120743
-0.11895
-35.0265
-43.448
-50.7248
-56.9414
-62.1781
-66.5144
-70.0247
-72.7786
-74.8464
-76.2932
-77.1789
-77.5605
-77.4924
-77.0256
-76.208
-75.0838
-73.6942
-72.0769
-70.2668
-68.2959
-66.1938
-63.9871
-61.7002
-59.3553
-56.9722
-54.5687
-52.1606
-49.7621
-47.3854
-45.0414
-42.7393
-40.4872
-38.2917
-36.1585
-34.0921
-32.0962
-30.1735
-28.326
-26.5549
-24.8611
-23.2447
-21.7052
-20.242
-18.8539
-17.5395
-16.2971
-15.1247
-14.0202
-12.9814
-12.0059
-11.0913
-10.2349
-9.43437
-8.68699
-7.99025
-7.34159
-6.7385
-6.17853
-5.65925
-5.17832
-4.73346
-4.32248
-3.94326
-3.59376
-3.27204
-2.97623
-2.70456
-2.45536
-2.22702
-2.01803
-1.82698
-1.65252
-1.4934
-1.34842
-1.21648
-1.09656
-0.987677
-0.888947
-0.799533
-0.718662
-0.645622
-0.579751
-0.520443
-0.467139
-0.419327
-0.37654
-0.338351
-0.304372
-0.274254
-0.247681
-0.224371
-0.204072
-0.186564
-0.171652
-0.159171
-0.14898
-0.140964
-0.135031
-0.131113
-0.129166
-37.788
-46.8735
-54.7241
-61.4308
-67.0804
-71.7586
-75.5456
-78.5166
-80.7475
-82.3084
-83.2639
-83.6756
-83.6021
-83.0985
-82.2164
-81.0037
-79.5045
-77.7596
-75.8068
-73.6806
-71.4127
-69.032
-66.5648
-64.035
-61.464
-58.871
-56.2731
-53.6855
-51.1214
-48.5926
-46.109
-43.6793
-41.3107
-39.0093
-36.78
-34.6267
-32.5524
-30.5592
-28.6486
-26.8213
-25.0774
-23.4165
-21.838
-20.3404
-18.9224
-17.582
-16.3172
-15.1256
-14.0049
-12.9525
-11.9657
-11.0419
-10.1782
-9.3719
-8.62022
-7.92042
-7.26979
-6.66566
-6.10544
-5.58659
-5.10666
-4.66328
-4.25416
-3.8771
-3.53001
-3.21088
-2.9178
-2.64895
-2.4026
-2.17714
-1.97103
-1.78281
-1.61114
-1.45473
-1.31239
-1.18301
-1.06555
-0.959034
-0.862571
-0.775324
-0.696525
-0.625461
-0.561477
-0.50397
-0.452389
-0.406228
-0.365028
-0.32837
-0.295878
-0.26721
-0.242061
-0.220162
-0.201273
-0.185186
-0.171721
-0.160727
-0.152078
-0.145678
-0.141451
-0.13935
-40.5403
-50.2875
-58.7099
-65.905
-71.9661
-76.9851
-81.0478
-84.2353
-86.6287
-88.3032
-89.3283
-89.77
-89.6911
-89.1509
-88.2046
-86.9035
-85.2951
-83.4232
-81.3281
-79.0471
-76.6139
-74.0598
-71.413
-68.699
-65.9407
-63.1588
-60.3717
-57.5956
-54.8448
-52.1317
-49.4673
-46.8606
-44.3195
-41.8505
-39.4589
-37.1487
-34.9233
-32.785
-30.7352
-28.7748
-26.9038
-25.1221
-23.4285
-21.8219
-20.3006
-18.8626
-17.5056
-16.2273
-15.025
-13.8959
-12.8373
-11.8461
-10.9195
-10.0545
-9.24807
-8.4973
-7.79928
-7.15115
-6.55012
-5.99349
-5.4786
-5.00293
-4.56401
-4.15949
-3.78712
-3.44475
-3.13031
-2.84188
-2.5776
-2.33571
-2.11459
-1.91266
-1.72849
-1.56069
-1.40798
-1.26918
-1.14316
-1.02889
-0.925396
-0.831795
-0.747257
-0.671017
-0.602372
-0.540677
-0.485339
-0.435816
-0.391615
-0.352287
-0.317428
-0.286672
-0.259692
-0.236198
-0.215933
-0.198674
-0.184228
-0.172433
-0.163155
-0.156288
-0.151754
-0.1495
-43.2825
-53.6891
-62.6812
-70.363
-76.8341
-82.1925
-86.5301
-89.9332
-92.4885
-94.2763
-95.3707
-95.8423
-95.7581
-95.1813
-94.171
-92.7819
-91.0647
-89.0662
-86.8294
-84.394
-81.7963
-79.0695
-76.2436
-73.3459
-70.4011
-67.431
-64.4554
-61.4915
-58.5546
-55.6581
-52.8134
-50.0304
-47.3174
-44.6814
-42.1279
-39.6616
-37.2856
-35.0026
-32.8142
-30.7212
-28.7237
-26.8214
-25.0133
-23.298
-21.6738
-20.1385
-18.6897
-17.3249
-16.0413
-14.8359
-13.7056
-12.6474
-11.6581
-10.7346
-9.87363
-9.07208
-8.32684
-7.63487
-6.99319
-6.3989
-5.84919
-5.34134
-4.87273
-4.44085
-4.04329
-3.67776
-3.34206
-3.03411
-2.75195
-2.49371
-2.25763
-2.04204
-1.84541
-1.66626
-1.50322
-1.35503
-1.22049
-1.09848
-0.987994
-0.888061
-0.797804
-0.716407
-0.643119
-0.577251
-0.518169
-0.465296
-0.418105
-0.376118
-0.338901
-0.306064
-0.277259
-0.252176
-0.23054
-0.212114
-0.196691
-0.184098
-0.174192
-0.166861
-0.16202
-0.159613
-46.0141
-57.0774
-66.637
-74.8036
-81.6831
-87.3797
-91.991
-95.6089
-98.3255
-100.226
-101.39
-101.891
-101.801
-101.188
-100.114
-98.6375
-96.8119
-94.6872
-92.3093
-89.7202
-86.9585
-84.0596
-81.0553
-77.9748
-74.8441
-71.6866
-68.5232
-65.3722
-62.25
-59.1706
-56.1464
-53.1878
-50.3036
-47.5012
-44.7866
-42.1646
-39.6387
-37.2117
-34.8851
-32.66
-30.5364
-28.5141
-26.5919
-24.7683
-23.0416
-21.4094
-19.8692
-18.4183
-17.0537
-15.7722
-14.5706
-13.4456
-12.3939
-11.4121
-10.4968
-9.64462
-8.85235
-8.11671
-7.43454
-6.80274
-6.21834
-5.67844
-5.18025
-4.72112
-4.29847
-3.90987
-3.55298
-3.2256
-2.92563
-2.65109
-2.40011
-2.17092
-1.96187
-1.77142
-1.59809
-1.44055
-1.29751
-1.16781
-1.05035
-0.944108
-0.848155
-0.761621
-0.683708
-0.613682
-0.550872
-0.494662
-0.444493
-0.399855
-0.360289
-0.32538
-0.294758
-0.268091
-0.24509
-0.225501
-0.209104
-0.195717
-0.185186
-0.177392
-0.172245
-0.169687
-48.7343
-60.4517
-70.5764
-79.2258
-86.512
-92.5454
-97.4292
-101.261
-104.138
-106.151
-107.383
-107.914
-107.82
-107.17
-106.033
-104.469
-102.535
-100.285
-97.7663
-95.0242
-92.0992
-89.0289
-85.8471
-82.5844
-79.2687
-75.9245
-72.574
-69.2368
-65.93
-62.6686
-59.4656
-56.3321
-53.2774
-50.3094
-47.4343
-44.6572
-41.982
-39.4115
-36.9474
-34.5907
-32.3417
-30.1997
-28.1639
-26.2326
-24.4037
-22.6751
-21.0439
-19.5071
-18.0618
-16.7046
-15.4319
-14.2405
-13.1266
-12.0867
-11.1173
-10.2148
-9.37568
-8.59655
-7.87405
-7.2049
-6.58595
-6.01413
-5.4865
-5.00022
-4.55258
-4.14101
-3.76302
-3.41629
-3.09859
-2.80782
-2.542
-2.29926
-2.07786
-1.87614
-1.69257
-1.52571
-1.37422
-1.23685
-1.11244
-0.999922
-0.898296
-0.806647
-0.724127
-0.649962
-0.583439
-0.523906
-0.470771
-0.423494
-0.381589
-0.344617
-0.312184
-0.283941
-0.25958
-0.238832
-0.221467
-0.207288
-0.196134
-0.187879
-0.182429
-0.179719
-51.4425
-63.811
-74.4983
-83.6284
-91.3195
-97.6881
-102.843
-106.888
-109.925
-112.05
-113.351
-113.911
-113.811
-113.126
-111.925
-110.274
-108.233
-105.858
-103.199
-100.305
-97.2173
-93.9763
-90.6176
-87.1737
-83.6737
-80.1437
-76.607
-73.0843
-69.5938
-66.1511
-62.7701
-59.4625
-56.2381
-53.1051
-50.0702
-47.1389
-44.315
-41.6016
-39.0006
-36.513
-34.1389
-31.8779
-29.729
-27.6903
-25.7599
-23.9351
-22.2133
-20.5912
-19.0655
-17.6328
-16.2895
-15.0318
-13.856
-12.7584
-11.7351
-10.7824
-9.89669
-9.07427
-8.31161
-7.60528
-6.95194
-6.34834
-5.79139
-5.27808
-4.80558
-4.37113
-3.97214
-3.60614
-3.27078
-2.96385
-2.68326
-2.42703
-2.19332
-1.9804
-1.78663
-1.6105
-1.45059
-1.30558
-1.17426
-1.05549
-0.948216
-0.851473
-0.764369
-0.686082
-0.615862
-0.553021
-0.496933
-0.447029
-0.402795
-0.363768
-0.329533
-0.29972
-0.274006
-0.252105
-0.233774
-0.218807
-0.207034
-0.198321
-0.192567
-0.189706
-54.138
-67.1546
-78.4019
-88.0104
-96.1045
-102.807
-108.232
-112.489
-115.685
-117.921
-119.29
-119.88
-119.775
-119.053
-117.79
-116.052
-113.904
-111.405
-108.607
-105.561
-102.311
-98.9005
-95.3659
-91.7415
-88.058
-84.3431
-80.6211
-76.9138
-73.2404
-69.6173
-66.0592
-62.5782
-59.1848
-55.8877
-52.6938
-49.6088
-46.637
-43.7815
-41.0442
-38.4262
-35.9277
-33.5483
-31.2867
-29.1412
-27.1096
-25.1893
-23.3772
-21.6701
-20.0645
-18.5568
-17.143
-15.8195
-14.5821
-13.4269
-12.35
-11.3474
-10.4153
-9.54974
-8.74713
-8.00379
-7.31621
-6.68099
-6.09485
-5.55465
-5.05738
-4.60017
-4.18027
-3.79509
-3.44216
-3.11915
-2.82386
-2.55421
-2.30825
-2.08417
-1.88025
-1.69488
-1.5266
-1.374
-1.23579
-1.1108
-0.997903
-0.896091
-0.804421
-0.722033
-0.648133
-0.581999
-0.522972
-0.470454
-0.423902
-0.38283
-0.3468
-0.315426
-0.288364
-0.265316
-0.246025
-0.230273
-0.217883
-0.208713
-0.202658
-0.199647
-56.8202
-70.4816
-82.2862
-92.3707
-100.866
-107.9
-113.594
-118.062
-121.417
-123.763
-125.2
-125.819
-125.709
-124.952
-123.625
-121.802
-119.548
-116.924
-113.987
-110.79
-107.38
-103.8
-100.091
-96.2866
-92.4206
-88.5216
-84.6153
-80.7243
-76.8689
-73.0664
-69.3319
-65.6785
-62.117
-58.6565
-55.3044
-52.0666
-48.9476
-45.9505
-43.0776
-40.3299
-37.7077
-35.2104
-32.8367
-30.585
-28.4527
-26.4372
-24.5354
-22.7437
-21.0586
-19.4761
-17.9924
-16.6032
-15.3045
-14.0921
-12.9619
-11.9096
-10.9313
-10.0229
-9.18049
-8.40032
-7.67868
-7.01198
-6.39681
-5.82984
-5.30794
-4.82808
-4.38738
-3.98312
-3.6127
-3.27369
-2.96376
-2.68075
-2.42261
-2.18743
-1.9734
-1.77886
-1.60223
-1.44207
-1.29702
-1.16583
-1.04734
-0.940487
-0.844276
-0.757805
-0.680244
-0.610834
-0.548883
-0.493762
-0.444904
-0.401797
-0.363983
-0.331054
-0.302651
-0.278461
-0.258214
-0.241682
-0.228678
-0.219054
-0.212699
-0.209539
-59.4883
-73.7912
-86.1501
-96.7081
-105.602
-112.967
-118.928
-123.606
-127.118
-129.575
-131.079
-131.727
-131.612
-130.819
-129.43
-127.521
-125.161
-122.414
-119.34
-115.993
-112.422
-108.674
-104.791
-100.808
-96.7605
-92.6784
-88.5886
-84.5149
-80.4784
-76.4974
-72.5876
-68.7626
-65.0338
-61.4108
-57.9013
-54.5115
-51.246
-48.1082
-45.1004
-42.2237
-39.4783
-36.8637
-34.3787
-32.0212
-29.7888
-27.6787
-25.6875
-23.8117
-22.0474
-20.3907
-18.8372
-17.3828
-16.0232
-14.7538
-13.5705
-12.4688
-11.4446
-10.4935
-9.61158
-8.79478
-8.03925
-7.34125
-6.69718
-6.1036
-5.55719
-5.05479
-4.5934
-4.17015
-3.78235
-3.42741
-3.10293
-2.80663
-2.53637
-2.29014
-2.06607
-1.86239
-1.67747
-1.50979
-1.35793
-1.22058
-1.09652
-0.984651
-0.883922
-0.793391
-0.712188
-0.639518
-0.574658
-0.516949
-0.465797
-0.420665
-0.381075
-0.3466
-0.316863
-0.291538
-0.27034
-0.253032
-0.239417
-0.229341
-0.222687
-0.219379
-62.1417
-77.0827
-89.9928
-101.022
-110.313
-118.006
-124.233
-129.119
-132.788
-135.355
-136.926
-137.603
-137.482
-136.654
-135.204
-133.209
-130.744
-127.875
-124.663
-121.167
-117.437
-113.522
-109.465
-105.304
-101.076
-96.8122
-92.54
-88.2847
-84.0681
-79.9095
-75.8253
-71.8297
-67.9346
-64.15
-60.484
-56.9429
-53.5318
-50.2541
-47.1121
-44.107
-41.2392
-38.508
-35.9121
-33.4494
-31.1175
-28.9133
-26.8333
-24.8738
-23.0308
-21.3002
-19.6775
-18.1582
-16.7379
-15.4119
-14.1758
-13.025
-11.9551
-10.9616
-10.0403
-9.18707
-8.39784
-7.6687
-6.99591
-6.37585
-5.80507
-5.28026
-4.79829
-4.35617
-3.95106
-3.58029
-3.24134
-2.93183
-2.64951
-2.3923
-2.15823
-1.94546
-1.75229
-1.57713
-1.4185
-1.27502
-1.14544
-1.02857
-0.92335
-0.828781
-0.743956
-0.668045
-0.600291
-0.540008
-0.486574
-0.43943
-0.398074
-0.362061
-0.330998
-0.304542
-0.282399
-0.264319
-0.250097
-0.239571
-0.232621
-0.229165
-64.7799
-80.3551
-93.8133
-105.31
-114.996
-123.015
-129.507
-134.601
-138.425
-141.101
-142.739
-143.445
-143.319
-142.455
-140.943
-138.865
-136.294
-133.303
-129.955
-126.31
-122.422
-118.341
-114.112
-109.775
-105.367
-100.922
-96.4686
-92.0326
-87.6371
-83.3019
-79.0443
-74.8791
-70.8187
-66.8734
-63.0517
-59.3604
-55.8044
-52.3875
-49.1121
-45.9795
-42.99
-40.1428
-37.4367
-34.8695
-32.4385
-30.1407
-27.9724
-25.9298
-24.0086
-22.2044
-20.5128
-18.9291
-17.4485
-16.0662
-14.7776
-13.578
-12.4626
-11.4269
-10.4666
-9.57709
-8.75436
-7.99427
-7.29291
-6.64653
-6.05151
-5.50443
-5.00199
-4.5411
-4.1188
-3.73229
-3.37895
-3.05629
-2.76199
-2.49386
-2.24985
-2.02805
-1.82668
-1.64409
-1.47872
-1.32915
-1.19407
-1.07224
-0.962551
-0.863967
-0.77554
-0.696407
-0.625777
-0.562934
-0.507232
-0.458086
-0.414974
-0.377432
-0.345051
-0.317472
-0.294389
-0.275541
-0.260715
-0.249743
-0.242497
-0.238895
-67.402
-83.6076
-97.6106
-109.573
-119.65
-127.995
-134.749
-140.049
-144.028
-146.812
-148.516
-149.251
-149.12
-148.222
-146.649
-144.485
-141.811
-138.699
-135.216
-131.423
-127.378
-123.131
-118.731
-114.218
-109.632
-105.007
-100.373
-95.7579
-91.1844
-86.6737
-82.2438
-77.91
-73.6852
-69.5803
-65.6039
-61.7631
-58.0632
-54.508
-51.1
-47.8406
-44.7301
-41.7677
-38.952
-36.2809
-33.7516
-31.3607
-29.1047
-26.9793
-24.9804
-23.1032
-21.3431
-19.6953
-18.1547
-16.7165
-15.3758
-14.1276
-12.967
-11.8895
-10.8902
-9.96475
-9.10871
-8.31786
-7.58812
-6.91557
-6.29647
-5.72724
-5.20447
-4.72492
-4.28552
-3.88337
-3.51572
-3.18001
-2.87379
-2.59481
-2.34092
-2.11015
-1.90063
-1.71064
-1.53857
-1.38295
-1.2424
-1.11564
-1.00151
-0.898939
-0.806934
-0.724597
-0.651108
-0.585722
-0.527764
-0.476629
-0.431772
-0.392711
-0.359018
-0.330323
-0.306305
-0.286695
-0.271269
-0.259852
-0.252313
-0.248565
-70.0075
-86.8396
-101.384
-113.809
-124.276
-132.943
-139.958
-145.463
-149.596
-152.487
-154.257
-155.02
-154.884
-153.951
-152.317
-150.071
-147.293
-144.061
-140.443
-136.503
-132.302
-127.891
-123.32
-118.634
-113.87
-109.066
-104.253
-99.4595
-94.7092
-90.0242
-85.423
-80.9217
-76.5336
-72.2699
-68.1399
-64.1506
-60.3077
-56.6151
-53.0754
-49.69
-46.4592
-43.3823
-40.4578
-37.6834
-35.0563
-32.573
-30.2298
-28.0223
-25.946
-23.9963
-22.1682
-20.4566
-18.8565
-17.3627
-15.9702
-14.6737
-13.4683
-12.3491
-11.3112
-10.35
-9.46082
-8.6394
-7.88145
-7.1829
-6.53987
-5.94863
-5.40565
-4.90757
-4.45118
-4.03348
-3.65163
-3.30294
-2.98488
-2.69511
-2.43141
-2.19172
-1.9741
-1.77677
-1.59805
-1.43642
-1.29043
-1.15877
-1.04023
-0.93369
-0.838128
-0.752608
-0.676278
-0.608364
-0.548167
-0.495055
-0.448464
-0.407892
-0.372897
-0.343093
-0.318147
-0.297778
-0.281756
-0.269898
-0.262068
-0.258175
-72.5957
-90.0501
-105.132
-118.016
-128.87
-137.858
-145.133
-150.841
-155.127
-158.125
-159.96
-160.751
-160.61
-159.643
-157.949
-155.619
-152.739
-149.387
-145.635
-141.55
-137.193
-132.619
-127.88
-123.02
-118.08
-113.099
-108.108
-103.137
-98.2107
-93.3524
-88.5812
-83.9134
-79.3631
-74.9418
-70.6591
-66.5223
-62.5373
-58.7082
-55.0376
-51.527
-48.1768
-44.9861
-41.9535
-39.0766
-36.3523
-33.7773
-31.3474
-29.0583
-26.9053
-24.8835
-22.9878
-21.2129
-19.5537
-18.0047
-16.5606
-15.2162
-13.9662
-12.8056
-11.7294
-10.7326
-9.8106
-8.95881
-8.17283
-7.44846
-6.78165
-6.16856
-5.60551
-5.089
-4.61575
-4.18261
-3.78664
-3.42505
-3.09524
-2.79476
-2.52131
-2.27275
-2.04708
-1.84246
-1.65713
-1.48952
-1.33814
-1.20161
-1.07869
-0.968211
-0.869115
-0.780434
-0.701282
-0.630857
-0.568434
-0.513358
-0.465045
-0.422973
-0.386685
-0.355778
-0.32991
-0.308788
-0.292174
-0.279877
-0.271757
-0.26772
-75.166
-93.2384
-108.854
-122.195
-133.433
-142.739
-150.271
-156.181
-160.619
-163.724
-165.624
-166.443
-166.297
-165.295
-163.541
-161.129
-158.147
-154.676
-150.791
-146.562
-142.05
-137.315
-132.407
-127.375
-122.261
-117.103
-111.935
-106.788
-101.688
-96.6576
-91.7174
-86.8844
-82.173
-77.5952
-73.1608
-68.8776
-64.7515
-60.7868
-56.9862
-53.3514
-49.8825
-46.5789
-43.4389
-40.4601
-37.6394
-34.9732
-32.4573
-30.0871
-27.8579
-25.7645
-23.8017
-21.964
-20.246
-18.6421
-17.1469
-15.7549
-14.4607
-13.259
-12.1447
-11.1126
-10.158
-9.276
-8.4622
-7.71218
-7.02177
-6.38697
-5.80398
-5.26919
-4.77917
-4.3307
-3.92071
-3.54632
-3.20483
-2.89371
-2.61058
-2.35322
-2.11957
-1.90769
-1.71581
-1.54226
-1.38552
-1.24416
-1.11688
-1.00249
-0.899888
-0.808067
-0.726113
-0.653194
-0.588561
-0.531535
-0.481511
-0.43795
-0.400376
-0.368376
-0.341591
-0.319722
-0.302519
-0.289787
-0.28138
-0.2772
-77.7178
-96.4037
-112.55
-126.343
-137.963
-147.584
-155.373
-161.483
-166.072
-169.282
-171.247
-172.093
-171.942
-170.907
-169.093
-166.599
-163.515
-159.927
-155.91
-151.537
-146.873
-141.976
-136.902
-131.699
-126.412
-121.078
-115.735
-110.413
-105.14
-99.939
-94.8311
-89.834
-84.9626
-80.2294
-75.6445
-71.2159
-66.9497
-62.8504
-58.9208
-55.1626
-51.576
-48.1602
-44.9136
-41.8337
-38.9172
-36.1605
-33.5591
-31.1085
-28.8036
-26.6392
-24.6097
-22.7096
-20.9333
-19.275
-17.729
-16.2898
-14.9516
-13.7092
-12.557
-11.4899
-10.5028
-9.59091
-8.74948
-7.974
-7.26015
-6.6038
-6.00102
-5.44807
-4.94142
-4.47772
-4.05381
-3.66671
-3.31363
-2.99195
-2.69921
-2.43311
-2.19152
-1.97246
-1.77406
-1.59462
-1.43255
-1.2864
-1.1548
-1.03653
-0.93044
-0.835501
-0.750764
-0.675371
-0.608543
-0.549581
-0.497859
-0.452819
-0.41397
-0.380883
-0.353189
-0.330577
-0.31279
-0.299626
-0.290933
-0.286611
-80.2504
-99.5452
-116.217
-130.46
-142.459
-152.394
-160.436
-166.746
-171.484
-174.798
-176.827
-177.701
-177.546
-176.476
-174.603
-172.028
-168.844
-165.138
-160.991
-156.476
-151.659
-146.603
-141.364
-135.991
-130.531
-125.024
-119.507
-114.011
-108.566
-103.196
-97.9214
-92.7614
-87.7313
-82.8438
-78.1095
-73.5366
-69.1314
-64.8985
-60.8409
-56.9602
-53.2567
-49.7296
-46.3772
-43.1969
-40.1854
-37.3388
-34.6527
-32.1222
-29.7422
-27.5073
-25.4117
-23.4497
-21.6155
-19.9031
-18.3068
-16.8206
-15.4389
-14.1559
-12.9662
-11.8643
-10.8451
-9.90345
-9.0346
-8.23385
-7.49674
-6.819
-6.19657
-5.62561
-5.10245
-4.62364
-4.18592
-3.7862
-3.42162
-3.08945
-2.78717
-2.5124
-2.26294
-2.03673
-1.83187
-1.64659
-1.47924
-1.32832
-1.19243
-1.07031
-0.960761
-0.862728
-0.775231
-0.69738
-0.628375
-0.567491
-0.514084
-0.467576
-0.427461
-0.393295
-0.364699
-0.34135
-0.322984
-0.309391
-0.300415
-0.295952
-82.7632
-102.662
-119.856
-134.545
-146.919
-157.165
-165.459
-171.967
-176.853
-180.271
-182.364
-183.266
-183.105
-182.002
-180.07
-177.414
-174.131
-170.309
-166.032
-161.375
-156.408
-151.193
-145.79
-140.249
-134.618
-128.939
-123.249
-117.581
-111.966
-106.427
-100.987
-95.6659
-90.4783
-85.4378
-80.5552
-75.8391
-71.296
-66.9306
-62.7459
-58.7437
-54.9242
-51.2867
-47.8293
-44.5495
-41.4437
-38.508
-35.7378
-33.1281
-30.6735
-28.3686
-26.2073
-24.1839
-22.2923
-20.5263
-18.88
-17.3473
-15.9223
-14.5991
-13.3722
-12.2358
-11.1846
-10.2136
-9.3175
-8.49167
-7.73148
-7.03252
-6.3906
-5.80176
-5.26222
-4.76842
-4.31699
-3.90476
-3.52876
-3.18619
-2.87444
-2.59107
-2.3338
-2.10051
-1.88923
-1.69815
-1.52556
-1.36991
-1.22977
-1.10382
-0.990846
-0.889743
-0.799506
-0.719218
-0.648051
-0.585262
-0.530182
-0.482217
-0.440846
-0.405611
-0.376119
-0.35204
-0.333098
-0.319079
-0.309822
-0.30522
-85.2556
-105.754
-123.466
-138.597
-151.344
-161.898
-170.442
-177.146
-182.179
-185.7
-187.856
-188.785
-188.619
-187.483
-185.493
-182.757
-179.375
-175.438
-171.032
-166.235
-161.118
-155.747
-150.18
-144.473
-138.672
-132.822
-126.96
-121.122
-115.337
-109.632
-104.029
-98.5469
-93.203
-88.0107
-82.9811
-78.123
-73.443
-68.9461
-64.6355
-60.5127
-56.5782
-52.8312
-49.2697
-45.8911
-42.6917
-39.6676
-36.814
-34.1257
-31.5972
-29.2229
-26.9966
-24.9122
-22.9636
-21.1445
-19.4486
-17.8697
-16.4018
-15.0388
-13.7749
-12.6043
-11.5215
-10.5211
-9.59809
-8.7474
-7.96431
-7.2443
-6.58306
-5.97648
-5.42069
-4.91202
-4.44699
-4.02235
-3.63503