/*--------------------------------*- C++ -*----------------------------------*\
| =========                 |                                                 |
| \\      /  F ield         | OpenFOAM: The Open Source CFD Toolbox           |
|  \\    /   O peration     | Version:  2406                                  |
|   \\  /    A nd           | Website:  www.openfoam.com                      |
|    \\/     M anipulation  |                                                 |
\*---------------------------------------------------------------------------*/
FoamFile
{
    version     2.0;
    format      ascii;
    arch        "LSB;label=32;scalar=64";
    class       volScalarField;
    location    "115";
    object      T;
}
// * * * * * * * * * * * * * * * * * * * * * * * * * * * * * * * * * * * * * //

dimensions      [0 0 0 1 0 0 0];

internalField   nonuniform List<scalar> 
20000
(
300.328
300.343
300.357
300.368
300.378
300.386
300.393
300.398
300.401
300.404
300.405
300.405
300.404
300.402
300.399
300.395
300.391
300.386
300.38
300.374
300.368
300.361
300.353
300.346
300.338
300.33
300.322
300.313
300.305
300.296
300.288
300.279
300.27
300.262
300.253
300.245
300.237
300.228
300.22
300.212
300.204
300.196
300.189
300.181
300.174
300.167
300.16
300.153
300.147
300.141
300.134
300.128
300.123
300.117
300.112
300.106
300.101
300.097
300.092
300.087
300.083
300.079
300.075
300.071
300.067
300.064
300.06
300.057
300.054
300.051
300.048
300.045
300.043
300.04
300.038
300.036
300.033
300.031
300.029
300.027
300.026
300.024
300.022
300.02
300.019
300.017
300.016
300.015
300.013
300.012
300.011
300.009
300.008
300.007
300.006
300.005
300.004
300.003
300.002
300.001
300.983
301.03
301.07
301.105
301.135
301.159
301.178
301.193
301.204
301.21
301.214
301.214
301.21
301.205
301.196
301.185
301.172
301.157
301.141
301.122
301.103
301.082
301.06
301.037
301.014
300.99
300.965
300.94
300.914
300.889
300.863
300.837
300.811
300.786
300.76
300.735
300.71
300.685
300.66
300.636
300.612
300.589
300.566
300.544
300.522
300.501
300.48
300.46
300.441
300.422
300.403
300.385
300.368
300.351
300.335
300.319
300.304
300.29
300.276
300.262
300.249
300.237
300.225
300.213
300.202
300.191
300.181
300.171
300.162
300.153
300.144
300.136
300.128
300.121
300.114
300.107
300.1
300.094
300.088
300.082
300.077
300.071
300.066
300.061
300.057
300.052
300.048
300.044
300.04
300.036
300.032
300.028
300.025
300.021
300.018
300.015
300.011
300.008
300.005
300.002
301.638
301.716
301.784
301.842
301.891
301.931
301.963
301.988
302.006
302.017
302.023
302.022
302.017
302.007
301.993
301.975
301.953
301.928
301.901
301.87
301.838
301.803
301.767
301.729
301.69
301.649
301.608
301.566
301.524
301.481
301.438
301.395
301.352
301.309
301.266
301.224
301.182
301.141
301.1
301.06
301.021
300.982
300.944
300.907
300.871
300.835
300.801
300.767
300.734
300.703
300.672
300.642
300.613
300.585
300.558
300.532
300.507
300.483
300.459
300.437
300.415
300.394
300.374
300.355
300.336
300.319
300.302
300.285
300.27
300.255
300.241
300.227
300.214
300.201
300.189
300.178
300.167
300.156
300.146
300.137
300.127
300.119
300.11
300.102
300.094
300.087
300.08
300.073
300.066
300.06
300.053
300.047
300.041
300.036
300.03
300.024
300.019
300.013
300.008
300.003
302.292
302.402
302.497
302.578
302.646
302.703
302.748
302.782
302.807
302.823
302.831
302.831
302.823
302.809
302.789
302.764
302.734
302.699
302.66
302.618
302.572
302.524
302.473
302.42
302.365
302.308
302.251
302.192
302.133
302.073
302.013
301.953
301.892
301.832
301.773
301.713
301.655
301.597
301.54
301.484
301.428
301.374
301.321
301.269
301.218
301.169
301.121
301.074
301.028
300.984
300.941
300.899
300.858
300.819
300.781
300.745
300.71
300.676
300.643
300.611
300.581
300.552
300.524
300.497
300.471
300.446
300.422
300.399
300.378
300.357
300.337
300.317
300.299
300.282
300.265
300.249
300.233
300.219
300.205
300.191
300.178
300.166
300.154
300.143
300.132
300.122
300.112
300.102
300.093
300.083
300.075
300.066
300.058
300.05
300.042
300.034
300.026
300.019
300.011
300.004
302.946
303.087
303.209
303.313
303.401
303.474
303.532
303.576
303.608
303.629
303.638
303.638
303.629
303.611
303.585
303.553
303.514
303.469
303.419
303.365
303.306
303.244
303.178
303.11
303.039
302.967
302.893
302.818
302.741
302.665
302.587
302.51
302.432
302.355
302.278
302.202
302.127
302.053
301.979
301.907
301.836
301.766
301.698
301.631
301.566
301.502
301.44
301.38
301.321
301.264
301.209
301.155
301.103
301.053
301.004
300.957
300.912
300.868
300.826
300.786
300.747
300.709
300.673
300.638
300.605
300.573
300.543
300.513
300.485
300.458
300.433
300.408
300.384
300.362
300.34
300.32
300.3
300.281
300.263
300.246
300.229
300.214
300.198
300.184
300.17
300.156
300.143
300.131
300.119
300.107
300.096
300.085
300.074
300.064
300.054
300.044
300.034
300.024
300.014
300.005
303.6
303.771
303.92
304.048
304.155
304.244
304.315
304.369
304.408
304.433
304.445
304.445
304.433
304.411
304.38
304.34
304.293
304.238
304.177
304.111
304.039
303.963
303.883
303.8
303.713
303.625
303.534
303.442
303.349
303.255
303.161
303.066
302.972
302.877
302.784
302.691
302.599
302.508
302.418
302.33
302.243
302.158
302.075
301.993
301.913
301.836
301.76
301.686
301.614
301.544
301.477
301.411
301.348
301.286
301.227
301.17
301.114
301.061
301.009
300.96
300.912
300.866
300.822
300.78
300.739
300.7
300.663
300.627
300.593
300.56
300.529
300.499
300.47
300.442
300.416
300.391
300.367
300.344
300.322
300.3
300.28
300.261
300.242
300.225
300.207
300.191
300.175
300.16
300.145
300.131
300.117
300.104
300.091
300.078
300.066
300.053
300.041
300.029
300.018
300.006
304.252
304.455
304.631
304.781
304.908
305.013
305.097
305.161
305.207
305.237
305.251
305.25
305.237
305.211
305.174
305.127
305.071
305.006
304.934
304.855
304.771
304.681
304.587
304.488
304.386
304.282
304.175
304.066
303.956
303.845
303.734
303.622
303.51
303.399
303.288
303.178
303.069
302.962
302.856
302.752
302.649
302.549
302.451
302.354
302.26
302.168
302.079
301.991
301.907
301.824
301.745
301.667
301.592
301.519
301.449
301.382
301.316
301.253
301.192
301.134
301.077
301.023
300.971
300.921
300.873
300.827
300.783
300.741
300.7
300.662
300.624
300.589
300.555
300.522
300.491
300.461
300.433
300.406
300.38
300.355
300.331
300.308
300.286
300.265
300.245
300.226
300.207
300.189
300.172
300.155
300.139
300.123
300.107
300.092
300.078
300.063
300.049
300.035
300.021
300.007
304.903
305.137
305.34
305.514
305.66
305.781
305.877
305.952
306.005
306.039
306.055
306.055
306.039
306.009
305.967
305.912
305.848
305.773
305.69
305.599
305.502
305.398
305.289
305.176
305.058
304.938
304.815
304.689
304.562
304.434
304.306
304.177
304.048
303.919
303.792
303.665
303.54
303.416
303.294
303.173
303.055
302.939
302.826
302.715
302.606
302.5
302.397
302.297
302.199
302.104
302.012
301.922
301.836
301.752
301.671
301.593
301.518
301.445
301.375
301.307
301.242
301.18
301.12
301.062
301.007
300.954
300.903
300.854
300.808
300.763
300.72
300.679
300.64
300.602
300.566
300.532
300.499
300.468
300.438
300.409
300.382
300.355
300.33
300.306
300.283
300.26
300.239
300.218
300.198
300.179
300.16
300.141
300.124
300.106
300.089
300.073
300.056
300.04
300.024
300.008
305.553
305.818
306.048
306.245
306.411
306.547
306.657
306.741
306.801
306.84
306.858
306.857
306.84
306.806
306.758
306.696
306.623
306.539
306.444
306.342
306.231
306.114
305.99
305.862
305.729
305.592
305.453
305.311
305.167
305.022
304.876
304.73
304.584
304.439
304.294
304.151
304.009
303.869
303.73
303.594
303.46
303.329
303.201
303.075
302.952
302.832
302.715
302.601
302.49
302.383
302.278
302.177
302.079
301.985
301.893
301.804
301.719
301.637
301.557
301.481
301.407
301.336
301.269
301.203
301.141
301.08
301.023
300.968
300.915
300.864
300.816
300.769
300.725
300.682
300.642
300.603
300.566
300.53
300.496
300.463
300.432
300.402
300.374
300.346
300.32
300.295
300.27
300.247
300.224
300.202
300.181
300.16
300.14
300.12
300.101
300.082
300.064
300.045
300.027
300.009
306.202
306.498
306.755
306.974
307.159
307.312
307.434
307.528
307.596
307.639
307.659
307.659
307.639
307.601
307.547
307.479
307.397
307.302
307.197
307.082
306.959
306.828
306.69
306.547
306.398
306.246
306.09
305.931
305.771
305.609
305.446
305.283
305.12
304.958
304.796
304.636
304.477
304.321
304.166
304.014
303.865
303.718
303.574
303.434
303.297
303.163
303.032
302.905
302.781
302.661
302.545
302.432
302.322
302.216
302.114
302.015
301.92
301.828
301.739
301.654
301.572
301.493
301.417
301.344
301.274
301.207
301.142
301.081
301.022
300.965
300.911
300.859
300.809
300.762
300.717
300.673
300.632
300.592
300.554
300.518
300.483
300.449
300.418
300.387
300.357
300.329
300.302
300.276
300.25
300.226
300.202
300.179
300.156
300.135
300.113
300.092
300.071
300.051
300.03
300.01
306.849
307.176
307.46
307.702
307.907
308.075
308.21
308.314
308.388
308.436
308.458
308.458
308.436
308.394
308.335
308.259
308.168
308.064
307.948
307.822
307.685
307.54
307.388
307.23
307.066
306.897
306.725
306.55
306.373
306.194
306.014
305.834
305.654
305.475
305.297
305.12
304.944
304.771
304.601
304.433
304.268
304.106
303.947
303.792
303.641
303.493
303.348
303.208
303.071
302.939
302.81
302.685
302.565
302.448
302.335
302.225
302.12
302.019
301.921
301.826
301.736
301.648
301.565
301.484
301.407
301.333
301.262
301.193
301.128
301.066
301.006
300.949
300.894
300.841
300.791
300.743
300.698
300.654
300.612
300.572
300.533
300.496
300.461
300.427
300.395
300.363
300.333
300.304
300.276
300.249
300.223
300.198
300.173
300.149
300.125
300.102
300.079
300.056
300.034
300.011
307.495
307.852
308.163
308.428
308.652
308.836
308.984
309.097
309.179
309.231
309.256
309.255
309.231
309.185
309.12
309.037
308.938
308.824
308.697
308.559
308.409
308.251
308.085
307.911
307.732
307.548
307.359
307.168
306.974
306.778
306.581
306.384
306.187
305.991
305.796
305.602
305.41
305.221
305.035
304.851
304.67
304.493
304.319
304.15
303.984
303.822
303.664
303.51
303.361
303.216
303.075
302.938
302.806
302.678
302.555
302.435
302.32
302.209
302.102
301.998
301.899
301.804
301.712
301.624
301.539
301.458
301.38
301.306
301.234
301.166
301.101
301.038
300.978
300.921
300.866
300.813
300.763
300.715
300.669
300.626
300.583
300.543
300.505
300.468
300.432
300.398
300.365
300.333
300.302
300.273
300.244
300.216
300.189
300.163
300.137
300.111
300.086
300.061
300.037
300.012
308.139
308.527
308.864
309.152
309.395
309.595
309.755
309.879
309.967
310.024
310.05
310.05
310.024
309.974
309.904
309.814
309.706
309.582
309.444
309.294
309.132
308.96
308.779
308.591
308.396
308.196
307.991
307.783
307.573
307.36
307.147
306.932
306.719
306.505
306.293
306.083
305.875
305.67
305.467
305.267
305.071
304.879
304.69
304.506
304.326
304.15
303.979
303.812
303.65
303.492
303.339
303.191
303.047
302.908
302.774
302.644
302.519
302.398
302.282
302.17
302.062
301.959
301.859
301.763
301.672
301.583
301.499
301.418
301.34
301.266
301.195
301.127
301.062
301
300.94
300.883
300.829
300.777
300.727
300.679
300.634
300.59
300.548
300.508
300.469
300.432
300.396
300.362
300.328
300.296
300.265
300.235
300.205
300.177
300.148
300.121
300.093
300.067
300.04
300.013
308.78
309.199
309.562
309.873
310.135
310.351
310.524
310.657
310.753
310.814
310.843
310.842
310.814
310.761
310.684
310.587
310.471
310.338
310.189
310.026
309.852
309.666
309.471
309.268
309.058
308.842
308.621
308.397
308.17
307.94
307.71
307.479
307.248
307.018
306.79
306.563
306.338
306.117
305.898
305.683
305.471
305.264
305.06
304.861
304.667
304.477
304.292
304.112
303.937
303.767
303.602
303.442
303.288
303.138
302.993
302.853
302.718
302.588
302.462
302.341
302.225
302.113
302.006
301.902
301.803
301.708
301.617
301.53
301.446
301.366
301.289
301.216
301.146
301.079
301.014
300.953
300.894
300.838
300.784
300.733
300.684
300.636
300.591
300.548
300.506
300.466
300.427
300.39
300.354
300.32
300.286
300.253
300.222
300.19
300.16
300.13
300.101
300.072
300.043
300.014
309.42
309.869
310.259
310.593
310.874
311.105
311.291
311.434
311.536
311.602
311.633
311.632
311.601
311.544
311.463
311.358
311.234
311.091
310.931
310.757
310.569
310.37
310.161
309.943
309.718
309.486
309.249
309.008
308.765
308.519
308.272
308.024
307.776
307.529
307.284
307.041
306.8
306.562
306.327
306.097
305.87
305.647
305.429
305.215
305.007
304.803
304.605
304.412
304.224
304.042
303.865
303.693
303.527
303.366
303.211
303.061
302.916
302.776
302.641
302.512
302.387
302.267
302.152
302.041
301.935
301.833
301.735
301.641
301.552
301.466
301.383
301.305
301.229
301.157
301.088
301.022
300.959
300.899
300.841
300.786
300.733
300.683
300.634
300.588
300.543
300.5
300.459
300.419
300.38
300.343
300.307
300.272
300.238
300.204
300.172
300.14
300.108
300.077
300.046
300.015
310.057
310.537
310.953
311.309
311.609
311.857
312.055
312.207
312.317
312.386
312.419
312.418
312.386
312.325
312.238
312.127
311.994
311.841
311.671
311.484
311.284
311.072
310.848
310.615
310.375
310.128
309.875
309.618
309.358
309.095
308.831
308.566
308.302
308.039
307.777
307.517
307.26
307.006
306.755
306.509
306.267
306.029
305.796
305.568
305.345
305.128
304.916
304.71
304.51
304.315
304.126
303.943
303.766
303.594
303.428
303.268
303.113
302.964
302.82
302.682
302.548
302.42
302.297
302.179
302.066
301.957
301.852
301.752
301.656
301.565
301.477
301.393
301.312
301.235
301.162
301.092
301.024
300.96
300.898
300.839
300.783
300.729
300.677
300.627
300.58
300.534
300.49
300.447
300.406
300.366
300.328
300.29
300.254
300.218
300.183
300.149
300.115
300.082
300.049
300.016
310.692
311.202
311.644
312.023
312.342
312.605
312.816
312.977
313.094
313.168
313.203
313.202
313.168
313.103
313.01
312.892
312.751
312.588
312.407
312.209
311.996
311.77
311.533
311.285
311.03
310.767
310.498
310.225
309.948
309.669
309.388
309.107
308.826
308.546
308.268
307.992
307.718
307.448
307.182
306.92
306.662
306.409
306.162
305.92
305.683
305.452
305.227
305.008
304.794
304.587
304.387
304.192
304.003
303.821
303.644
303.474
303.309
303.151
302.998
302.851
302.709
302.573
302.442
302.316
302.196
302.08
301.969
301.863
301.761
301.663
301.57
301.481
301.395
301.313
301.235
301.16
301.089
301.02
300.955
300.892
300.832
300.775
300.72
300.667
300.616
300.567
300.52
300.475
300.432
300.389
300.348
300.309
300.27
300.232
300.195
300.159
300.123
300.087
300.052
300.017
311.324
311.864
312.332
312.734
313.071
313.35
313.573
313.745
313.868
313.947
313.984
313.983
313.946
313.878
313.779
313.654
313.504
313.332
313.141
312.931
312.705
312.466
312.215
311.953
311.682
311.403
311.119
310.829
310.536
310.241
309.943
309.646
309.348
309.051
308.756
308.464
308.174
307.888
307.606
307.329
307.056
306.788
306.526
306.269
306.019
305.774
305.536
305.304
305.078
304.859
304.646
304.44
304.24
304.047
303.86
303.679
303.505
303.337
303.175
303.019
302.869
302.725
302.587
302.453
302.326
302.203
302.086
301.973
301.865
301.762
301.663
301.568
301.478
301.391
301.308
301.229
301.153
301.081
301.011
300.945
300.882
300.821
300.762
300.706
300.653
300.601
300.551
300.503
300.457
300.412
300.369
300.327
300.286
300.246
300.206
300.168
300.13
300.093
300.055
300.018
311.953
312.523
313.018
313.441
313.798
314.092
314.327
314.508
314.639
314.722
314.761
314.76
314.721
314.649
314.545
314.413
314.255
314.073
313.871
313.65
313.412
313.159
312.893
312.617
312.331
312.037
311.737
311.431
311.122
310.81
310.496
310.182
309.867
309.554
309.243
308.934
308.629
308.327
308.029
307.736
307.448
307.166
306.889
306.618
306.353
306.095
305.843
305.598
305.36
305.129
304.904
304.686
304.475
304.271
304.074
303.884
303.7
303.523
303.352
303.187
303.029
302.877
302.73
302.59
302.455
302.326
302.202
302.083
301.969
301.86
301.755
301.655
301.56
301.468
301.381
301.297
301.217
301.141
301.068
300.998
300.931
300.866
300.805
300.746
300.689
300.634
300.582
300.531
300.482
300.435
300.389
300.345
300.302
300.259
300.218
300.177
300.137
300.098
300.058
300.019
312.579
313.179
313.7
314.145
314.521
314.83
315.078
315.269
315.406
315.493
315.534
315.533
315.493
315.416
315.307
315.168
315.002
314.811
314.598
314.365
314.114
313.848
313.569
313.278
312.977
312.668
312.351
312.03
311.704
311.376
311.046
310.715
310.384
310.055
309.727
309.402
309.081
308.763
308.45
308.141
307.838
307.541
307.25
306.965
306.686
306.414
306.15
305.892
305.641
305.397
305.161
304.932
304.71
304.495
304.288
304.087
303.894
303.707
303.527
303.354
303.188
303.027
302.873
302.725
302.584
302.447
302.317
302.192
302.072
301.957
301.847
301.742
301.642
301.545
301.453
301.365
301.281
301.201
301.124
301.05
300.979
300.912
300.847
300.785
300.725
300.668
300.612
300.559
300.508
300.458
300.41
300.363
300.317
300.273
300.229
300.187
300.144
300.103
300.062
300.02
313.203
313.832
314.379
314.846
315.24
315.565
315.825
316.025
316.169
316.26
316.304
316.303
316.26
316.18
316.066
315.92
315.745
315.545
315.321
315.076
314.814
314.534
314.241
313.936
313.62
313.295
312.963
312.626
312.284
311.94
311.593
311.246
310.899
310.553
310.209
309.868
309.531
309.197
308.868
308.545
308.227
307.915
307.609
307.31
307.017
306.732
306.454
306.184
305.92
305.665
305.417
305.176
304.943
304.718
304.5
304.29
304.087
303.891
303.702
303.52
303.345
303.177
303.016
302.861
302.712
302.569
302.432
302.3
302.175
302.054
301.939
301.828
301.723
301.622
301.525
301.433
301.345
301.26
301.179
301.102
301.028
300.957
300.889
300.824
300.761
300.701
300.643
300.587
300.533
300.481
300.43
300.381
300.333
300.286
300.241
300.196
300.152
300.108
300.065
300.022
313.822
314.482
315.054
315.543
315.956
316.296
316.568
316.778
316.928
317.024
317.069
317.068
317.024
316.94
316.82
316.667
316.484
316.274
316.04
315.784
315.509
315.217
314.91
314.59
314.259
313.919
313.572
313.219
312.861
312.5
312.138
311.774
311.411
311.049
310.689
310.332
309.978
309.629
309.285
308.946
308.613
308.286
307.966
307.653
307.347
307.048
306.757
306.474
306.198
305.931
305.671
305.419
305.175
304.94
304.711
304.491
304.279
304.073
303.876
303.686
303.503
303.326
303.157
302.995
302.839
302.689
302.546
302.408
302.277
302.151
302.03
301.914
301.804
301.698
301.597
301.5
301.408
301.319
301.235
301.154
301.076
301.002
300.931
300.862
300.797
300.734
300.673
300.614
300.558
300.503
300.45
300.399
300.349
300.3
300.252
300.205
300.159
300.113
300.068
300.023
314.439
315.128
315.725
316.237
316.667
317.023
317.307
317.526
317.683
317.783
317.831
317.829
317.783
317.696
317.57
317.411
317.22
317
316.756
316.488
316.201
315.896
315.575
315.241
314.895
314.54
314.178
313.809
313.435
313.058
312.679
312.299
311.92
311.541
311.165
310.792
310.423
310.059
309.699
309.345
308.997
308.656
308.321
307.994
307.675
307.363
307.059
306.763
306.475
306.195
305.924
305.661
305.406
305.16
304.922
304.691
304.469
304.255
304.049
303.85
303.659
303.475
303.298
303.128
302.966
302.809
302.659
302.516
302.378
302.246
302.12
302
301.884
301.774
301.668
301.567
301.471
301.378
301.29
301.205
301.124
301.046
300.972
300.901
300.832
300.766
300.703
300.642
300.583
300.526
300.47
300.417
300.364
300.313
300.263
300.214
300.166
300.118
300.071
300.024
315.052
315.77
316.393
316.926
317.375
317.745
318.042
318.27
318.434
318.538
318.588
318.586
318.538
318.447
318.316
318.15
317.951
317.722
317.467
317.188
316.889
316.571
316.236
315.888
315.528
315.158
314.779
314.395
314.005
313.612
313.217
312.821
312.426
312.031
311.639
311.251
310.866
310.486
310.111
309.742
309.379
309.023
308.675
308.334
308
307.675
307.358
307.05
306.75
306.458
306.176
305.901
305.636
305.379
305.131
304.891
304.659
304.436
304.221
304.013
303.814
303.622
303.438
303.261
303.091
302.928
302.772
302.623
302.479
302.342
302.21
302.085
301.964
301.849
301.739
301.634
301.533
301.437
301.344
301.256
301.172
301.091
301.013
300.939
300.867
300.799
300.733
300.669
300.607
300.548
300.49
300.434
300.38
300.327
300.274
300.223
300.173
300.123
300.074
300.025
315.661
316.408
317.056
317.611
318.078
318.464
318.772
319.009
319.18
319.289
319.34
319.339
319.288
319.194
319.058
318.884
318.677
318.439
318.174
317.884
317.572
317.241
316.893
316.531
316.156
315.771
315.378
314.977
314.572
314.163
313.752
313.34
312.929
312.518
312.111
311.706
311.306
310.91
310.52
310.136
309.759
309.389
309.026
308.671
308.324
307.986
307.656
307.335
307.023
306.72
306.425
306.14
305.864
305.597
305.338
305.089
304.848
304.615
304.391
304.176
303.968
303.769
303.577
303.393
303.217
303.047
302.884
302.729
302.58
302.437
302.3
302.169
302.044
301.924
301.809
301.7
301.595
301.495
301.399
301.307
301.219
301.135
301.054
300.977
300.903
300.831
300.762
300.696
300.632
300.57
300.51
300.452
300.395
300.34
300.286
300.232
300.18
300.128
300.077
300.026
316.267
317.043
317.716
318.292
318.777
319.177
319.498
319.744
319.921
320.034
320.088
320.086
320.034
319.935
319.794
319.614
319.399
319.152
318.877
318.575
318.252
317.908
317.546
317.17
316.781
316.381
315.972
315.556
315.135
314.711
314.284
313.856
313.428
313.002
312.579
312.159
311.743
311.332
310.927
310.528
310.136
309.752
309.375
309.006
308.646
308.295
307.952
307.619
307.294
306.979
306.674
306.378
306.091
305.813
305.545
305.285
305.035
304.794
304.561
304.337
304.122
303.915
303.716
303.524
303.341
303.165
302.996
302.834
302.679
302.531
302.389
302.253
302.123
301.998
301.879
301.766
301.657
301.553
301.453
301.358
301.266
301.179
301.095
301.015
300.937
300.863
300.792
300.723
300.657
300.592
300.53
300.469
300.41
300.353
300.297
300.241
300.187
300.133
300.08
300.026
316.868
317.673
318.371
318.968
319.471
319.886
320.219
320.474
320.658
320.775
320.83
320.829
320.775
320.673
320.526
320.34
320.116
319.86
319.575
319.262
318.926
318.57
318.195
317.805
317.401
316.986
316.563
316.131
315.695
315.255
314.812
314.368
313.925
313.483
313.044
312.608
312.177
311.751
311.331
310.917
310.511
310.112
309.721
309.339
308.966
308.601
308.246
307.9
307.564
307.238
306.921
306.613
306.316
306.028
305.75
305.481
305.221
304.971
304.73
304.498
304.274
304.059
303.853
303.655
303.464
303.282
303.107
302.939
302.778
302.624
302.477
302.336
302.201
302.072
301.949
301.831
301.718
301.61
301.507
301.408
301.313
301.222
301.136
301.052
300.972
300.895
300.821
300.75
300.681
300.614
300.549
300.487
300.426
300.366
300.308
300.25
300.194
300.138
300.083
300.027
317.465
318.298
319.021
319.64
320.161
320.59
320.935
321.199
321.389
321.511
321.568
321.566
321.51
321.404
321.253
321.06
320.829
320.563
320.268
319.944
319.596
319.227
318.839
318.435
318.017
317.588
317.149
316.703
316.251
315.795
315.336
314.877
314.418
313.96
313.506
313.054
312.608
312.167
311.732
311.304
310.883
310.47
310.066
309.67
309.283
308.906
308.538
308.18
307.832
307.494
307.166
306.848
306.539
306.241
305.953
305.675
305.406
305.147
304.897
304.657
304.426
304.203
303.989
303.784
303.587
303.398
303.217
303.043
302.877
302.717
302.565
302.419
302.279
302.146
302.018
301.896
301.779
301.667
301.56
301.458
301.36
301.266
301.176
301.089
301.007
300.927
300.85
300.776
300.705
300.636
300.569
300.504
300.441
300.379
300.318
300.259
300.201
300.143
300.085
300.028
318.058
318.92
319.667
320.306
320.845
321.29
321.645
321.919
322.115
322.241
322.3
322.298
322.241
322.131
321.974
321.775
321.536
321.262
320.956
320.621
320.262
319.88
319.479
319.061
318.629
318.185
317.731
317.27
316.802
316.331
315.857
315.382
314.907
314.434
313.964
313.498
313.036
312.58
312.13
311.687
311.252
310.826
310.407
309.998
309.598
309.208
308.828
308.458
308.098
307.748
307.409
307.08
306.761
306.453
306.155
305.867
305.59
305.322
305.064
304.815
304.576
304.346
304.125
303.913
303.709
303.513
303.326
303.146
302.974
302.81
302.652
302.501
302.357
302.218
302.086
301.96
301.839
301.724
301.613
301.507
301.406
301.309
301.216
301.126
301.041
300.958
300.879
300.803
300.729
300.657
300.588
300.521
300.456
300.392
300.329
300.268
300.207
300.148
300.088
300.029
318.647
319.536
320.308
320.968
321.525
321.983
322.351
322.633
322.836
322.966
323.027
323.025
322.965
322.852
322.69
322.484
322.238
321.954
321.638
321.293
320.922
320.528
320.114
319.682
319.236
318.778
318.309
317.832
317.35
316.863
316.374
315.883
315.393
314.905
314.419
313.937
313.461
312.99
312.525
312.068
311.619
311.178
310.746
310.324
309.911
309.508
309.116
308.733
308.362
308.001
307.65
307.311
306.982
306.663
306.356
306.059
305.772
305.495
305.229
304.972
304.725
304.487
304.259
304.04
303.83
303.628
303.434
303.249
303.071
302.901
302.738
302.582
302.433
302.291
302.154
302.024
301.899
301.78
301.665
301.556
301.452
301.351
301.255
301.163
301.075
300.99
300.908
300.829
300.753
300.679
300.607
300.538
300.47
300.405
300.34
300.277
300.214
300.152
300.091
300.03
319.231
320.148
320.943
321.625
322.198
322.672
323.051
323.342
323.551
323.685
323.748
323.746
323.684
323.568
323.401
323.188
322.934
322.642
322.316
321.96
321.577
321.171
320.743
320.298
319.838
319.365
318.882
318.391
317.893
317.391
316.886
316.381
315.875
315.371
314.871
314.374
313.882
313.397
312.918
312.446
311.983
311.528
311.083
310.647
310.221
309.806
309.401
309.007
308.624
308.251
307.89
307.54
307.2
306.872
306.555
306.248
305.952
305.667
305.392
305.128
304.873
304.628
304.393
304.167
303.95
303.741
303.542
303.351
303.167
302.992
302.824
302.663
302.51
302.362
302.222
302.087
301.959
301.835
301.718
301.605
301.497
301.394
301.295
301.2
301.108
301.021
300.936
300.855
300.776
300.7
300.626
300.555
300.485
300.417
300.351
300.285
300.221
300.157
300.094
300.031
319.81
320.755
321.574
322.276
322.867
323.354
323.745
324.045
324.26
324.398
324.463
324.461
324.398
324.278
324.106
323.887
323.624
323.324
322.988
322.621
322.227
321.808
321.368
320.91
320.436
319.949
319.451
318.945
318.432
317.915
317.395
316.874
316.353
315.834
315.318
314.807
314.3
313.8
313.307
312.821
312.344
311.875
311.417
310.968
310.529
310.101
309.684
309.278
308.883
308.5
308.127
307.767
307.417
307.079
306.752
306.436
306.132
305.838
305.555
305.282
305.02
304.767
304.525
304.292
304.069
303.854
303.649
303.452
303.263
303.082
302.909
302.743
302.585
302.434
302.289
302.15
302.017
301.891
301.769
301.653
301.542
301.436
301.334
301.236
301.142
301.051
300.964
300.88
300.8
300.721
300.645
300.572
300.5
300.43
300.361
300.294
300.227
300.162
300.097
300.032
320.384
321.356
322.2
322.922
323.53
324.031
324.433
324.742
324.964
325.105
325.172
325.17
325.105
324.981
324.804
324.579
324.309
324
323.654
323.277
322.871
322.44
321.988
321.516
321.028
320.527
320.015
319.494
318.966
318.434
317.899
317.363
316.827
316.293
315.762
315.236
314.715
314.2
313.692
313.193
312.702
312.22
311.748
311.286
310.834
310.394
309.965
309.547
309.141
308.746
308.363
307.992
307.632
307.284
306.948
306.623
306.309
306.007
305.716
305.435
305.165
304.906
304.656
304.416
304.186
303.966
303.754
303.552
303.357
303.171
302.993
302.823
302.66
302.504
302.355
302.212
302.076
301.945
301.821
301.701
301.587
301.477
301.372
301.271
301.175
301.082
300.992
300.906
300.823
300.742
300.664
300.588
300.514
300.442
300.372
300.302
300.234
300.167
300.1
300.033
320.953
321.953
322.819
323.562
324.187
324.702
325.115
325.433
325.661
325.806
325.875
325.873
325.806
325.679
325.497
325.265
324.988
324.67
324.315
323.927
323.51
323.067
322.602
322.117
321.615
321.1
320.574
320.038
319.496
318.949
318.399
317.848
317.297
316.748
316.203
315.661
315.126
314.596
314.075
313.561
313.056
312.561
312.076
311.601
311.137
310.684
310.243
309.814
309.396
308.99
308.597
308.215
307.845
307.488
307.142
306.808
306.486
306.175
305.875
305.587
305.309
305.043
304.786
304.54
304.303
304.077
303.859
303.651
303.451
303.26
303.077
302.902
302.734
302.574
302.421
302.274
302.134
302
301.872
301.749
301.631
301.519
301.411
301.307
301.208
301.112
301.02
300.931
300.846
300.763
300.683
300.605
300.529
300.455
300.382
300.311
300.241
300.171
300.103
300.034
321.517
322.543
323.434
324.196
324.838
325.367
325.791
326.117
326.352
326.501
326.572
326.57
326.501
326.37
326.183
325.945
325.661
325.334
324.969
324.571
324.143
323.688
323.21
322.712
322.197
321.668
321.127
320.578
320.021
319.459
318.894
318.328
317.763
317.199
316.639
316.083
315.533
314.989
314.454
313.926
313.408
312.899
312.401
311.913
311.437
310.972
310.519
310.078
309.649
309.232
308.828
308.436
308.057
307.689
307.334
306.991
306.66
306.341
306.033
305.737
305.452
305.178
304.915
304.662
304.419
304.186
303.963
303.749
303.544
303.348
303.16
302.98
302.808
302.643
302.486
302.335
302.191
302.054
301.922
301.796
301.675
301.559
301.449
301.342
301.24
301.142
301.047
300.956
300.868
300.783
300.701
300.621
300.543
300.467
300.392
300.319
300.247
300.176
300.105
300.035
322.076
323.129
324.042
324.824
325.483
326.026
326.461
326.795
327.036
327.189
327.262
327.259
327.189
327.055
326.863
326.619
326.327
325.992
325.618
325.209
324.77
324.303
323.813
323.302
322.774
322.231
321.676
321.112
320.541
319.964
319.385
318.804
318.224
317.646
317.071
316.501
315.936
315.379
314.829
314.288
313.756
313.234
312.723
312.223
311.734
311.257
310.792
310.339
309.899
309.472
309.057
308.655
308.266
307.889
307.525
307.173
306.833
306.506
306.19
305.886
305.594
305.313
305.043
304.783
304.534
304.295
304.066
303.846
303.636
303.435
303.242
303.057
302.881
302.712
302.55
302.396
302.248
302.107
301.972
301.842
301.719
301.6
301.486
301.377
301.272
301.172
301.075
300.981
300.891
300.804
300.719
300.637
300.557
300.479
300.402
300.327
300.253
300.18
300.108
300.036
322.629
323.709
324.645
325.446
326.122
326.678
327.124
327.467
327.713
327.87
327.945
327.943
327.87
327.733
327.537
327.286
326.987
326.643
326.26
325.841
325.39
324.912
324.409
323.886
323.344
322.788
322.219
321.641
321.055
320.465
319.871
319.275
318.681
318.088
317.499
316.914
316.336
315.764
315.2
314.646
314.101
313.566
313.042
312.529
312.028
311.539
311.062
310.599
310.148
309.709
309.284
308.872
308.473
308.087
307.713
307.353
307.004
306.669
306.345
306.034
305.734
305.446
305.169
304.903
304.648
304.403
304.168
303.943
303.727
303.521
303.323
303.134
302.953
302.78
302.614
302.456
302.305
302.16
302.021
301.889
301.762
301.64
301.523
301.412
301.304
301.201
301.102
301.006
300.913