/*--------------------------------*- C++ -*----------------------------------*\
| =========                 |                                                 |
| \\      /  F ield         | OpenFOAM: The Open Source CFD Toolbox           |
|  \\    /   O peration     | Version:  2406                                  |
|   \\  /    A nd           | Website:  www.openfoam.com                      |
|    \\/     M anipulation  |                                                 |
\*---------------------------------------------------------------------------*/
FoamFile
{
    version     2.0;
    format      ascii;
    arch        "LSB;label=32;scalar=64";
    class       volVectorField;
    location    "50";
    object      flux;
}
// * * * * * * * * * * * * * * * * * * * * * * * * * * * * * * * * * * * * * //

dimensions      [0 1 -1 1 0 0 0];

internalField   nonuniform List<vector> 
20000
(
(-0.00259849 0.113945 0)
(-0.00251228 0.108835 0)
(-0.002427 0.103896 0)
(-0.00234275 0.0991275 0)
(-0.00225973 0.0945259 0)
(-0.00217817 0.090089 0)
(-0.00209808 0.0858138 0)
(-0.0020192 0.0816975 0)
(-0.00194195 0.0777375 0)
(-0.00186662 0.0739299 0)
(-0.0017929 0.0702714 0)
(-0.00172077 0.0667589 0)
(-0.00165043 0.0633888 0)
(-0.001582 0.0601575 0)
(-0.00151546 0.0570611 0)
(-0.00145076 0.054096 0)
(-0.00138789 0.0512585 0)
(-0.00132688 0.0485448 0)
(-0.00126775 0.0459513 0)
(-0.0012105 0.0434741 0)
(-0.00115514 0.0411096 0)
(-0.00110164 0.0388538 0)
(-0.00104998 0.0367033 0)
(-0.00100014 0.0346542 0)
(-0.000952088 0.032703 0)
(-0.000905799 0.0308461 0)
(-0.000861247 0.02908 0)
(-0.0008184 0.0274013 0)
(-0.000777228 0.0258066 0)
(-0.000737695 0.0242926 0)
(-0.000699766 0.022856 0)
(-0.000663404 0.0214937 0)
(-0.00062857 0.0202025 0)
(-0.000595225 0.0189795 0)
(-0.000563328 0.0178218 0)
(-0.000532838 0.0167264 0)
(-0.000503713 0.0156906 0)
(-0.000475914 0.0147116 0)
(-0.000449396 0.013787 0)
(-0.00042412 0.0129142 0)
(-0.000400043 0.0120906 0)
(-0.000377125 0.0113141 0)
(-0.000355323 0.0105822 0)
(-0.000334598 0.00989289 0)
(-0.000314909 0.00924393 0)
(-0.000296218 0.00863333 0)
(-0.000278484 0.00805913 0)
(-0.000261671 0.00751946 0)
(-0.00024574 0.00701251 0)
(-0.000230655 0.00653656 0)
(-0.00021638 0.00608995 0)
(-0.00020288 0.0056711 0)
(-0.000190122 0.00527848 0)
(-0.000178072 0.00491066 0)
(-0.000166698 0.00456624 0)
(-0.000155969 0.0042439 0)
(-0.000145855 0.0039424 0)
(-0.000136326 0.00366052 0)
(-0.000127355 0.00339713 0)
(-0.000118914 0.00315113 0)
(-0.000110976 0.0029215 0)
(-0.000103517 0.00270725 0)
(-9.65114e-05 0.00250746 0)
(-8.99367e-05 0.00232123 0)
(-8.37702e-05 0.00214774 0)
(-7.79903e-05 0.00198617 0)
(-7.25764e-05 0.00183579 0)
(-6.75088e-05 0.00169588 0)
(-6.27686e-05 0.00156577 0)
(-5.83378e-05 0.00144483 0)
(-5.41993e-05 0.00133244 0)
(-5.03367e-05 0.00122804 0)
(-4.67345e-05 0.0011311 0)
(-4.33779e-05 0.00104112 0)
(-4.0253e-05 0.000957603 0)
(-3.73465e-05 0.000880114 0)
(-3.46458e-05 0.000808226 0)
(-3.21391e-05 0.000741539 0)
(-2.98152e-05 0.000679678 0)
(-2.76635e-05 0.000622286 0)
(-2.56742e-05 0.00056903 0)
(-2.3838e-05 0.000519596 0)
(-2.21461e-05 0.000473684 0)
(-2.05905e-05 0.000431017 0)
(-1.91636e-05 0.000391327 0)
(-1.78583e-05 0.000354367 0)
(-1.66682e-05 0.000319899 0)
(-1.55872e-05 0.000287698 0)
(-1.46099e-05 0.000257553 0)
(-1.37312e-05 0.000229262 0)
(-1.29465e-05 0.000202632 0)
(-1.22518e-05 0.000177479 0)
(-1.16433e-05 0.000153628 0)
(-1.11179e-05 0.000130909 0)
(-1.06727e-05 0.000109159 0)
(-1.03053e-05 8.82211e-05 0)
(-1.00138e-05 6.79408e-05 0)
(-9.79648e-06 4.81686e-05 0)
(-9.65228e-06 2.87573e-05 0)
(-9.58036e-06 9.56182e-06 0)
(-0.00779484 0.113917 0)
(-0.00753622 0.108808 0)
(-0.00728035 0.103871 0)
(-0.0070277 0.0991031 0)
(-0.00677884 0.0945025 0)
(-0.00653391 0.0900666 0)
(-0.00629342 0.0857927 0)
(-0.00605714 0.0816775 0)
(-0.0058256 0.0777182 0)
(-0.00559941 0.0739115 0)
(-0.00537814 0.0702541 0)
(-0.00516184 0.0667425 0)
(-0.00495093 0.0633732 0)
(-0.00474568 0.0601427 0)
(-0.00454603 0.057047 0)
(-0.00435191 0.0540826 0)
(-0.00416332 0.0512458 0)
(-0.0039803 0.0485328 0)
(-0.00380293 0.04594 0)
(-0.00363122 0.0434634 0)
(-0.00346514 0.0410994 0)
(-0.00330466 0.0388443 0)
(-0.00314969 0.0366942 0)
(-0.00300017 0.0346456 0)
(-0.00285603 0.0326949 0)
(-0.00271717 0.0308384 0)
(-0.00258353 0.0290728 0)
(-0.002455 0.0273945 0)
(-0.00233149 0.0258002 0)
(-0.0022129 0.0242866 0)
(-0.00209913 0.0228503 0)
(-0.00199005 0.0214884 0)
(-0.00188556 0.0201975 0)
(-0.00178553 0.0189749 0)
(-0.00168984 0.0178174 0)
(-0.00159838 0.0167222 0)
(-0.00151102 0.0156867 0)
(-0.00142762 0.014708 0)
(-0.00134808 0.0137836 0)
(-0.00127226 0.012911 0)
(-0.00120003 0.0120877 0)
(-0.00113128 0.0113113 0)
(-0.00106588 0.0105796 0)
(-0.00100371 0.00989045 0)
(-0.00094465 0.00924165 0)
(-0.00088858 0.0086312 0)
(-0.000835384 0.00805714 0)
(-0.000784947 0.00751761 0)
(-0.000737158 0.00701078 0)
(-0.000691907 0.00653495 0)
(-0.000649086 0.00608845 0)
(-0.000608591 0.0056697 0)
(-0.000570319 0.00527718 0)
(-0.000534172 0.00490944 0)
(-0.000500054 0.00456511 0)
(-0.000467869 0.00424286 0)
(-0.000437529 0.00394143 0)
(-0.000408946 0.00365962 0)
(-0.000382034 0.00339629 0)
(-0.000356712 0.00315035 0)
(-0.000332901 0.00292078 0)
(-0.000310524 0.00270659 0)
(-0.00028951 0.00250684 0)
(-0.000269788 0.00232066 0)
(-0.00025129 0.00214721 0)
(-0.000233952 0.00198568 0)
(-0.000217711 0.00183534 0)
(-0.00020251 0.00169547 0)
(-0.00018829 0.00156539 0)
(-0.000174999 0.00144447 0)
(-0.000162584 0.00133211 0)
(-0.000150998 0.00122774 0)
(-0.000140192 0.00113082 0)
(-0.000130123 0.00104086 0)
(-0.000120749 0.000957366 0)
(-0.00011203 0.000879897 0)
(-0.000103929 0.000808027 0)
(-9.64093e-05 0.000741356 0)
(-8.94381e-05 0.00067951 0)
(-8.29837e-05 0.000622132 0)
(-7.70163e-05 0.00056889 0)
(-7.1508e-05 0.000519467 0)
(-6.64329e-05 0.000473567 0)
(-6.17665e-05 0.00043091 0)
(-5.7486e-05 0.000391231 0)
(-5.35705e-05 0.000354279 0)
(-5.00005e-05 0.00031982 0)
(-4.67578e-05 0.000287627 0)
(-4.3826e-05 0.00025749 0)
(-4.11901e-05 0.000229206 0)
(-3.88363e-05 0.000202582 0)
(-3.67523e-05 0.000177436 0)
(-3.4927e-05 0.00015359 0)
(-3.33509e-05 0.000130877 0)
(-3.20154e-05 0.000109133 0)
(-3.09133e-05 8.81994e-05 0)
(-3.00388e-05 6.79241e-05 0)
(-2.9387e-05 4.81567e-05 0)
(-2.89545e-05 2.87502e-05 0)
(-2.87388e-05 9.55948e-06 0)
(-0.0129891 0.11386 0)
(-0.0125581 0.108754 0)
(-0.012132 0.10382 0)
(-0.011711 0.0990542 0)
(-0.0112963 0.094456 0)
(-0.0108881 0.0900222 0)
(-0.0104871 0.0857503 0)
(-0.0100936 0.0816372 0)
(-0.00970792 0.0776798 0)
(-0.00933079 0.073875 0)
(-0.00896195 0.0702194 0)
(-0.00860159 0.0667096 0)
(-0.00825025 0.063342 0)
(-0.00790823 0.060113 0)
(-0.0075755 0.0570188 0)
(-0.00725198 0.0540559 0)
(-0.00693769 0.0512205 0)
(-0.00663272 0.0485089 0)
(-0.00633716 0.0459173 0)
(-0.00605104 0.043442 0)
(-0.0057743 0.0410792 0)
(-0.00550687 0.0388251 0)
(-0.00524863 0.0366761 0)
(-0.00499947 0.0346285 0)
(-0.00475926 0.0326787 0)
(-0.00452788 0.0308232 0)
(-0.00430517 0.0290584 0)
(-0.00409099 0.027381 0)
(-0.00388518 0.0257875 0)
(-0.00368756 0.0242746 0)
(-0.00349797 0.0228391 0)
(-0.0033162 0.0214778 0)
(-0.00314208 0.0201876 0)
(-0.00297539 0.0189655 0)
(-0.00281594 0.0178086 0)
(-0.00266353 0.016714 0)
(-0.00251795 0.0156789 0)
(-0.00237898 0.0147008 0)
(-0.00224643 0.0137768 0)
(-0.00212008 0.0129046 0)
(-0.00199972 0.0120817 0)
(-0.00188516 0.0113057 0)
(-0.00177618 0.0105744 0)
(-0.00167258 0.00988557 0)
(-0.00157416 0.00923709 0)
(-0.00148072 0.00862694 0)
(-0.00139208 0.00805317 0)
(-0.00130803 0.0075139 0)
(-0.00122839 0.00700732 0)
(-0.00115299 0.00653173 0)
(-0.00108163 0.00608545 0)
(-0.00101415 0.0056669 0)
(-0.000950376 0.00527458 0)
(-0.000890141 0.00490702 0)
(-0.000833286 0.00456286 0)
(-0.000779654 0.00424076 0)
(-0.000729096 0.00393948 0)
(-0.000681464 0.00365781 0)
(-0.000636618 0.00339461 0)
(-0.000594422 0.0031488 0)
(-0.000554743 0.00291934 0)
(-0.000517456 0.00270525 0)
(-0.000482438 0.0025056 0)
(-0.000449573 0.00231952 0)
(-0.000418748 0.00214615 0)
(-0.000389855 0.0019847 0)
(-0.000362793 0.00183443 0)
(-0.000337461 0.00169463 0)
(-0.000313765 0.00156462 0)
(-0.000291617 0.00144376 0)
(-0.000270929 0.00133145 0)
(-0.000251621 0.00122713 0)
(-0.000233615 0.00113027 0)
(-0.000216836 0.00104035 0)
(-0.000201215 0.000956894 0)
(-0.000186686 0.000879463 0)
(-0.000173186 0.000807628 0)
(-0.000160656 0.000740991 0)
(-0.000149039 0.000679175 0)
(-0.000138283 0.000621826 0)
(-0.000128339 0.000568609 0)
(-0.00011916 0.000519211 0)
(-0.000110703 0.000473334 0)
(-0.000102927 0.000430698 0)
(-9.57943e-05 0.000391038 0)
(-8.92695e-05 0.000354105 0)
(-8.33204e-05 0.000319662 0)
(-7.79169e-05 0.000287485 0)
(-7.30314e-05 0.000257363 0)
(-6.86389e-05 0.000229093 0)
(-6.47165e-05 0.000202482 0)
(-6.12437e-05 0.000177348 0)
(-5.82021e-05 0.000153515 0)
(-5.55756e-05 0.000130812 0)
(-5.33502e-05 0.000109079 0)
(-5.15138e-05 8.81559e-05 0)
(-5.00564e-05 6.78906e-05 0)
(-4.89703e-05 4.8133e-05 0)
(-4.82495e-05 2.87361e-05 0)
(-4.78901e-05 9.55477e-06 0)
(-0.0181803 0.113776 0)
(-0.0175769 0.108674 0)
(-0.0169805 0.103743 0)
(-0.0163914 0.0989808 0)
(-0.0158109 0.094386 0)
(-0.0152396 0.0899556 0)
(-0.0146784 0.0856868 0)
(-0.0141276 0.0815767 0)
(-0.0135878 0.0776223 0)
(-0.0130598 0.0738203 0)
(-0.0125436 0.0701675 0)
(-0.0120392 0.0666602 0)
(-0.0115476 0.0632951 0)
(-0.0110688 0.0600684 0)
(-0.0106031 0.0569766 0)
(-0.0101502 0.0540159 0)
(-0.00971033 0.0511826 0)
(-0.0092835 0.048473 0)
(-0.00886984 0.0458833 0)
(-0.00846937 0.0434098 0)
(-0.00808204 0.0410487 0)
(-0.00770772 0.0387963 0)
(-0.00734628 0.0366489 0)
(-0.00699754 0.0346029 0)
(-0.00666133 0.0326545 0)
(-0.00633746 0.0308004 0)
(-0.00602575 0.0290369 0)
(-0.00572597 0.0273607 0)
(-0.00543791 0.0257684 0)
(-0.00516131 0.0242566 0)
(-0.00489595 0.0228222 0)
(-0.00464154 0.0214619 0)
(-0.00439782 0.0201726 0)
(-0.00416452 0.0189515 0)
(-0.00394135 0.0177954 0)
(-0.00372802 0.0167016 0)
(-0.00352425 0.0156673 0)
(-0.00332975 0.0146899 0)
(-0.00314422 0.0137666 0)
(-0.00296738 0.0128951 0)
(-0.00279892 0.0120727 0)
(-0.00263857 0.0112973 0)
(-0.00248603 0.0105666 0)
(-0.00234103 0.00987825 0)
(-0.00220328 0.00923025 0)
(-0.0020725 0.00862055 0)
(-0.00194843 0.0080472 0)
(-0.00183079 0.00750833 0)
(-0.00171933 0.00700214 0)
(-0.00161379 0.00652689 0)
(-0.00151391 0.00608094 0)
(-0.00141946 0.0056627 0)
(-0.0013302 0.00527067 0)
(-0.00124589 0.00490339 0)
(-0.00116631 0.00455948 0)
(-0.00109125 0.00423762 0)
(-0.00102048 0.00393656 0)
(-0.000953814 0.0036551 0)
(-0.000891046 0.0033921 0)
(-0.000831985 0.00314647 0)
(-0.000776449 0.00291718 0)
(-0.000724259 0.00270325 0)
(-0.000675246 0.00250375 0)
(-0.000629246 0.0023178 0)
(-0.000586102 0.00214456 0)
(-0.000545663 0.00198323 0)
(-0.000507784 0.00183308 0)
(-0.000472328 0.00169338 0)
(-0.000439163 0.00156346 0)
(-0.000408163 0.00144269 0)
(-0.000379208 0.00133047 0)
(-0.000352183 0.00122623 0)
(-0.00032698 0.00112943 0)
(-0.000303496 0.00103958 0)
(-0.000281632 0.000956186 0)
(-0.000261296 0.000878812 0)
(-0.000242401 0.00080703 0)
(-0.000224863 0.000740442 0)
(-0.000208603 0.000678672 0)
(-0.000193549 0.000621365 0)
(-0.000179631 0.000568188 0)
(-0.000166784 0.000518827 0)
(-0.000154946 0.000472983 0)
(-0.000144062 0.000430379 0)
(-0.000134079 0.000390748 0)
(-0.000124947 0.000353843 0)
(-0.00011662 0.000319425 0)
(-0.000109057 0.000287273 0)
(-0.000102219 0.000257172 0)
(-9.60708e-05 0.000228923 0)
(-9.05808e-05 0.000202332 0)
(-8.572e-05 0.000177217 0)
(-8.14629e-05 0.000153401 0)
(-7.77867e-05 0.000130716 0)
(-7.46718e-05 0.000108998 0)
(-7.21015e-05 8.80907e-05 0)
(-7.00617e-05 6.78404e-05 0)
(-6.85416e-05 4.80974e-05 0)
(-6.75327e-05 2.87148e-05 0)
(-6.70296e-05 9.5477e-06 0)
(-0.0233672 0.113664 0)
(-0.0225915 0.108566 0)
(-0.0218247 0.10364 0)
(-0.0210677 0.0988831 0)
(-0.0203216 0.0942928 0)
(-0.0195873 0.0898667 0)
(-0.018866 0.0856021 0)
(-0.0181581 0.0814961 0)
(-0.0174643 0.0775456 0)
(-0.0167856 0.0737474 0)
(-0.0161221 0.0700982 0)
(-0.015474 0.0665944 0)
(-0.014842 0.0632325 0)
(-0.0142267 0.0600091 0)
(-0.0136281 0.0569203 0)
(-0.013046 0.0539625 0)
(-0.0124806 0.051132 0)
(-0.011932 0.0484251 0)
(-0.0114003 0.045838 0)
(-0.0108856 0.043367 0)
(-0.0103878 0.0410082 0)
(-0.00990668 0.038758 0)
(-0.00944211 0.0366127 0)
(-0.00899387 0.0345687 0)
(-0.00856174 0.0326223 0)
(-0.00814548 0.03077 0)
(-0.00774484 0.0290082 0)
(-0.00735954 0.0273337 0)
(-0.00698929 0.0257429 0)
(-0.00663379 0.0242326 0)
(-0.00629272 0.0227996 0)
(-0.00596573 0.0214407 0)
(-0.00565248 0.0201527 0)
(-0.00535262 0.0189327 0)
(-0.00506578 0.0177778 0)
(-0.00479159 0.0166851 0)
(-0.00452969 0.0156519 0)
(-0.0042797 0.0146754 0)
(-0.00404124 0.013753 0)
(-0.00381394 0.0128823 0)
(-0.00359743 0.0120608 0)
(-0.00339133 0.0112862 0)
(-0.00319528 0.0105561 0)
(-0.0030089 0.00986849 0)
(-0.00283185 0.00922113 0)
(-0.00266377 0.00861204 0)
(-0.0025043 0.00803925 0)
(-0.0023531 0.00750091 0)
(-0.00220984 0.00699522 0)
(-0.00207418 0.00652044 0)
(-0.00194582 0.00607493 0)
(-0.00182442 0.00565711 0)
(-0.00170969 0.00526546 0)
(-0.00160133 0.00489854 0)
(-0.00149905 0.00455498 0)
(-0.00140257 0.00423344 0)
(-0.00131162 0.00393268 0)
(-0.00122593 0.00365149 0)
(-0.00114525 0.00338875 0)
(-0.00106934 0.00314336 0)
(-0.000997963 0.0029143 0)
(-0.000930884 0.00270058 0)
(-0.000867888 0.00250128 0)
(-0.000808765 0.00231551 0)
(-0.000753312 0.00214244 0)
(-0.000701336 0.00198127 0)
(-0.000652651 0.00183127 0)
(-0.00060708 0.0016917 0)
(-0.000564453 0.00156191 0)
(-0.000524608 0.00144126 0)
(-0.000487392 0.00132915 0)
(-0.000452657 0.00122501 0)
(-0.000420264 0.00112831 0)
(-0.00039008 0.00103855 0)
(-0.000361979 0.000955241 0)
(-0.000335842 0.000877944 0)
(-0.000311556 0.000806233 0)
(-0.000289014 0.000739711 0)
(-0.000268116 0.000678002 0)
(-0.000248767 0.000620752 0)
(-0.000230878 0.000567627 0)
(-0.000214365 0.000518314 0)
(-0.000199151 0.000472516 0)
(-0.000185162 0.000429954 0)
(-0.00017233 0.000390363 0)
(-0.000160593 0.000353493 0)
(-0.00014989 0.00031911 0)
(-0.00014017 0.000286989 0)
(-0.000131381 0.000256919 0)
(-0.000123479 0.000228697 0)
(-0.000116423 0.000202133 0)
(-0.000110175 0.000177042 0)
(-0.000104704 0.00015325 0)
(-9.99786e-05 0.000130587 0)
(-9.59751e-05 0.00010889 0)
(-9.26714e-05 8.80037e-05 0)
(-9.00497e-05 6.77734e-05 0)
(-8.80959e-05 4.80499e-05 0)
(-8.67992e-05 2.86865e-05 0)
(-8.61526e-05 9.53828e-06 0)
(-0.0285483 0.113524 0)
(-0.0276006 0.108432 0)
(-0.0266637 0.103512 0)
(-0.0257388 0.0987609 0)
(-0.0248273 0.0941763 0)
(-0.0239302 0.0897556 0)
(-0.023049 0.0854964 0)
(-0.0221841 0.0813954 0)
(-0.0213365 0.0774498 0)
(-0.0205073 0.0736563 0)
(-0.0196966 0.0700116 0)
(-0.0189049 0.0665121 0)
(-0.0181329 0.0631544 0)
(-0.0173811 0.0599349 0)
(-0.0166497 0.05685 0)
(-0.0159385 0.0538958 0)
(-0.0152477 0.0510689 0)
(-0.0145775 0.0483653 0)
(-0.013928 0.0457814 0)
(-0.0132992 0.0433134 0)
(-0.012691 0.0409575 0)
(-0.0121032 0.0387101 0)
(-0.0115356 0.0365675 0)
(-0.010988 0.034526 0)
(-0.01046 0.032582 0)
(-0.00995149 0.0307319 0)
(-0.00946202 0.0289724 0)
(-0.00899129 0.0272999 0)
(-0.00853895 0.0257111 0)
(-0.00810463 0.0242027 0)
(-0.00768793 0.0227714 0)
(-0.00728845 0.0214142 0)
(-0.00690575 0.0201278 0)
(-0.0065394 0.0189093 0)
(-0.00618896 0.0177559 0)
(-0.00585398 0.0166645 0)
(-0.00553401 0.0156325 0)
(-0.00522859 0.0146572 0)
(-0.00493726 0.013736 0)
(-0.00465957 0.0128664 0)
(-0.00439505 0.0120459 0)
(-0.00414325 0.0112722 0)
(-0.00390373 0.0105431 0)
(-0.00367604 0.0098563 0)
(-0.00345973 0.00920974 0)
(-0.00325438 0.0086014 0)
(-0.00305955 0.00802932 0)
(-0.00287483 0.00749165 0)
(-0.0026998 0.00698658 0)
(-0.00253407 0.00651239 0)
(-0.00237724 0.00606743 0)
(-0.00222893 0.00565012 0)
(-0.00208876 0.00525896 0)
(-0.00195638 0.00489249 0)
(-0.00183142 0.00454935 0)
(-0.00171355 0.00422821 0)
(-0.00160243 0.00392782 0)
(-0.00149774 0.00364698 0)
(-0.00139918 0.00338456 0)
(-0.00130644 0.00313948 0)
(-0.00121923 0.0029107 0)
(-0.00113728 0.00269724 0)
(-0.00106032 0.00249819 0)
(-0.000988084 0.00231265 0)
(-0.000920336 0.00213979 0)
(-0.000856836 0.00197883 0)
(-0.000797356 0.001829 0)
(-0.000741681 0.00168961 0)
(-0.000689603 0.00155998 0)
(-0.000640924 0.00143948 0)
(-0.000595457 0.00132751 0)
(-0.00055302 0.0012235 0)
(-0.000513445 0.00112692 0)
(-0.000476569 0.00103727 0)
(-0.000442237 0.000954061 0)
(-0.000410305 0.000876859 0)
(-0.000380634 0.000805237 0)
(-0.000353094 0.000738797 0)
(-0.000327562 0.000677164 0)
(-0.000303923 0.000619985 0)
(-0.000282068 0.000566926 0)
(-0.000261894 0.000517674 0)
(-0.000243307 0.000471933 0)
(-0.000226216 0.000429423 0)
(-0.00021054 0.00038988 0)
(-0.000196199 0.000353057 0)
(-0.000183124 0.000318716 0)
(-0.000171248 0.000286635 0)
(-0.000160511 0.000256601 0)
(-0.000150857 0.000228415 0)
(-0.000142236 0.000201883 0)
(-0.000134603 0.000176823 0)
(-0.000127918 0.00015306 0)
(-0.000122146 0.000130425 0)
(-0.000117255 0.000108756 0)
(-0.000113218 8.78951e-05 0)
(-0.000110016 6.76897e-05 0)
(-0.000107629 4.79906e-05 0)
(-0.000106044 2.8651e-05 0)
(-0.000105254 9.5265e-06 0)
(-0.0337223 0.113355 0)
(-0.0326029 0.108271 0)
(-0.0314961 0.103359 0)
(-0.0304035 0.0986144 0)
(-0.0293268 0.0940365 0)
(-0.0282672 0.0896225 0)
(-0.0272262 0.0853695 0)
(-0.0262046 0.0812747 0)
(-0.0252034 0.0773349 0)
(-0.0242239 0.0735471 0)
(-0.0232663 0.0699077 0)
(-0.0223311 0.0664134 0)
(-0.0214192 0.0630607 0)
(-0.0205312 0.059846 0)
(-0.0196671 0.0567656 0)
(-0.0188271 0.0538159 0)
(-0.0180111 0.0509931 0)
(-0.0172195 0.0482936 0)
(-0.0164522 0.0457135 0)
(-0.0157095 0.0432491 0)
(-0.014991 0.0408968 0)
(-0.0142967 0.0386527 0)
(-0.0136263 0.0365132 0)
(-0.0129794 0.0344747 0)
(-0.0123558 0.0325336 0)
(-0.011755 0.0306863 0)
(-0.0111769 0.0289294 0)
(-0.0106208 0.0272594 0)
(-0.0100865 0.025673 0)
(-0.00957347 0.0241668 0)
(-0.00908125 0.0227376 0)
(-0.00860937 0.0213824 0)
(-0.00815731 0.0200979 0)
(-0.00772457 0.0188813 0)
(-0.00731062 0.0177295 0)
(-0.00691493 0.0166398 0)
(-0.00653697 0.0156093 0)
(-0.00617619 0.0146355 0)
(-0.00583207 0.0137156 0)
(-0.00550404 0.0128473 0)
(-0.00519158 0.012028 0)
(-0.00489416 0.0112555 0)
(-0.00461122 0.0105275 0)
(-0.00434226 0.00984167 0)
(-0.00408675 0.00919607 0)
(-0.00384418 0.00858863 0)
(-0.00361404 0.00801741 0)
(-0.00339585 0.00748053 0)
(-0.0031891 0.00697621 0)
(-0.00299333 0.00650272 0)
(-0.00280808 0.00605842 0)
(-0.00263289 0.00564174 0)
(-0.00246732 0.00525116 0)
(-0.00231094 0.00488523 0)
(-0.00216334 0.0045426 0)
(-0.0020241 0.00422193 0)
(-0.00189284 0.00392199 0)
(-0.00176918 0.00364157 0)
(-0.00165276 0.00337954 0)
(-0.00154321 0.00313482 0)
(-0.0014402 0.00290638 0)
(-0.00134339 0.00269324 0)
(-0.00125248 0.00249448 0)
(-0.00116716 0.00230922 0)
(-0.00108713 0.00213662 0)
(-0.00101212 0.00197589 0)
(-0.000941865 0.00182629 0)
(-0.000876099 0.00168711 0)
(-0.000814583 0.00155767 0)
(-0.000757082 0.00143735 0)
(-0.000703374 0.00132554 0)
(-0.000653247 0.00122169 0)
(-0.000606499 0.00112525 0)
(-0.000562939 0.00103573 0)
(-0.000522386 0.000952646 0)
(-0.000484666 0.000875558 0)
(-0.000449618 0.000804043 0)
(-0.000417087 0.000737701 0)
(-0.000386928 0.00067616 0)
(-0.000359005 0.000619065 0)
(-0.000333189 0.000566085 0)
(-0.000309359 0.000516906 0)
(-0.000287403 0.000471233 0)
(-0.000267215 0.000428786 0)
(-0.000248697 0.000389302 0)
(-0.000231757 0.000352533 0)
(-0.000216312 0.000318243 0)
(-0.000202284 0.000286209 0)
(-0.000189601 0.000256221 0)
(-0.000178197 0.000228076 0)
(-0.000168014 0.000201584 0)
(-0.000158998 0.000176561 0)
(-0.000151102 0.000152833 0)
(-0.000144283 0.000130232 0)
(-0.000138505 0.000108595 0)
(-0.000133738 8.77647e-05 0)
(-0.000129954 6.75894e-05 0)
(-0.000127135 4.79194e-05 0)
(-0.000125263 2.86086e-05 0)
(-0.00012433 9.51237e-06 0)
(-0.038888 0.113159 0)
(-0.0375971 0.108084 0)
(-0.0363207 0.103179 0)
(-0.0350608 0.0984435 0)
(-0.0338191 0.0938736 0)
(-0.0325972 0.0894672 0)
(-0.0313968 0.0852216 0)
(-0.0302187 0.0811339 0)
(-0.0290641 0.0772009 0)
(-0.0279346 0.0734196 0)
(-0.0268303 0.0697865 0)
(-0.0257518 0.0662983 0)
(-0.0247003 0.0629514 0)
(-0.0236762 0.0597423 0)
(-0.0226798 0.0566673 0)
(-0.021711 0.0537226 0)
(-0.0207701 0.0509048 0)
(-0.0198571 0.0482099 0)
(-0.0189724 0.0456343 0)
(-0.0181159 0.0431742 0)
(-0.0172874 0.0408259 0)
(-0.0164867 0.0385857 0)
(-0.0157136 0.03645 0)
(-0.0149676 0.034415 0)
(-0.0142484 0.0324772 0)
(-0.0135557 0.0306332 0)
(-0.0128889 0.0288793 0)
(-0.0122477 0.0272122 0)
(-0.0116316 0.0256285 0)
(-0.0110399 0.0241249 0)
(-0.0104723 0.0226982 0)
(-0.00992816 0.0213453 0)
(-0.00940686 0.0200631 0)
(-0.00890783 0.0188486 0)
(-0.00843047 0.0176988 0)
(-0.00797417 0.0166109 0)
(-0.00753831 0.0155823 0)
(-0.00712227 0.0146101 0)
(-0.00672543 0.0136919 0)
(-0.00634716 0.012825 0)
(-0.00598684 0.0120072 0)
(-0.00564385 0.011236 0)
(-0.00531758 0.0105092 0)
(-0.00500742 0.00982462 0)
(-0.00471277 0.00918014 0)
(-0.00443304 0.00857375 0)
(-0.00416765 0.00800352 0)
(-0.00391603 0.00746757 0)
(-0.00367761 0.00696412 0)
(-0.00345186 0.00649146 0)
(-0.00323823 0.00604793 0)
(-0.0030362 0.00563196 0)
(-0.00284527 0.00524206 0)
(-0.00266493 0.00487677 0)
(-0.00249472 0.00453473 0)
(-0.00233416 0.00421462 0)
(-0.00218279 0.00391519 0)
(-0.00204019 0.00363526 0)
(-0.00190593 0.00337368 0)
(-0.0017796 0.00312939 0)
(-0.00166081 0.00290134 0)
(-0.00154918 0.00268857 0)
(-0.00144434 0.00249016 0)
(-0.00134595 0.00230522 0)
(-0.00125366 0.00213292 0)
(-0.00116716 0.00197247 0)
(-0.00108614 0.00182313 0)
(-0.0010103 0.00168418 0)
(-0.000939362 0.00155497 0)
(-0.000873053 0.00143486 0)
(-0.000811118 0.00132324 0)
(-0.000753312 0.00121957 0)
(-0.000699404 0.0011233 0)
(-0.000649171 0.00103393 0)
(-0.000602406 0.000950996 0)
(-0.000558908 0.000874042 0)
(-0.000518491 0.00080265 0)
(-0.000480977 0.000736423 0)
(-0.000446198 0.000674988 0)
(-0.000413998 0.000617993 0)
(-0.000384227 0.000565105 0)
(-0.000356747 0.000516011 0)
(-0.000331427 0.000470416 0)
(-0.000308147 0.000428043 0)
(-0.000286792 0.000388628 0)
(-0.000267258 0.000351922 0)
(-0.000249448 0.000317692 0)
(-0.00023327 0.000285714 0)
(-0.000218644 0.000255777 0)
(-0.000205494 0.000227681 0)
(-0.000193751 0.000201235 0)
(-0.000183354 0.000176255 0)
(-0.000174248 0.000152569 0)
(-0.000166384 0.000130006 0)
(-0.000159722 0.000108407 0)
(-0.000154224 8.76127e-05 0)
(-0.000149861 6.74723e-05 0)
(-0.000146609 4.78364e-05 0)
(-0.000144451 2.8559e-05 0)
(-0.000143375 9.4959e-06 0)
(-0.044044 0.112934 0)
(-0.042582 0.107869 0)
(-0.0411364 0.102975 0)
(-0.0397094 0.0982483 0)
(-0.0383031 0.0936875 0)
(-0.0369192 0.0892898 0)
(-0.0355596 0.0850527 0)
(-0.0342253 0.080973 0)
(-0.0329176 0.0770479 0)
(-0.0316383 0.0732741 0)
(-0.0303876 0.0696482 0)
(-0.0291662 0.0661669 0)
(-0.0279752 0.0628266 0)
(-0.0268154 0.0596239 0)
(-0.0256868 0.0565549 0)
(-0.0245896 0.0536162 0)
(-0.0235239 0.0508039 0)
(-0.0224899 0.0481143 0)
(-0.0214879 0.0455438 0)
(-0.0205178 0.0430886 0)
(-0.0195795 0.040745 0)
(-0.0186727 0.0385092 0)
(-0.017797 0.0363777 0)
(-0.0169521 0.0343468 0)
(-0.0161376 0.0324129 0)
(-0.015353 0.0305724 0)
(-0.0145979 0.028822 0)
(-0.0138716 0.0271582 0)
(-0.0131738 0.0255777 0)
(-0.0125037 0.0240771 0)
(-0.0118608 0.0226532 0)
(-0.0112445 0.021303 0)
(-0.0106541 0.0200233 0)
(-0.0100889 0.0188112 0)
(-0.00954824 0.0176637 0)
(-0.00903144 0.016578 0)
(-0.00853779 0.0155514 0)
(-0.00806659 0.0145812 0)
(-0.00761714 0.0136647 0)
(-0.00718871 0.0127996 0)
(-0.00678062 0.0119834 0)
(-0.00639215 0.0112137 0)
(-0.00602262 0.0104884 0)
(-0.00567134 0.00980514 0)
(-0.00533762 0.00916194 0)
(-0.0050208 0.00855675 0)
(-0.00472022 0.00798765 0)
(-0.00443524 0.00745277 0)
(-0.00416521 0.00695032 0)
(-0.00390953 0.00647859 0)
(-0.00366757 0.00603594 0)
(-0.00343876 0.0056208 0)
(-0.00322251 0.00523166 0)
(-0.00301827 0.0048671 0)
(-0.00282549 0.00452574 0)
(-0.00264363 0.00420626 0)
(-0.0024722 0.00390743 0)
(-0.00231069 0.00362805 0)
(-0.00215863 0.003367 0)
(-0.00201555 0.00312318 0)
(-0.00188101 0.00289559 0)
(-0.00175458 0.00268324 0)
(-0.00163584 0.00248522 0)
(-0.0015244 0.00230065 0)
(-0.00141988 0.00212869 0)
(-0.00132191 0.00196856 0)
(-0.00123015 0.00181951 0)
(-0.00114425 0.00168084 0)
(-0.00106391 0.00155189 0)
(-0.000988809 0.00143201 0)
(-0.000918662 0.00132062 0)
(-0.000853192 0.00121715 0)
(-0.000792136 0.00112107 0)
(-0.000735243 0.00103188 0)
(-0.000682277 0.000949111 0)
(-0.000633012 0.000872309 0)
(-0.000587236 0.000801059 0)
(-0.000544748 0.000734963 0)
(-0.000505358 0.00067365 0)
(-0.000468888 0.000616768 0)
(-0.00043517 0.000563985 0)
(-0.000404047 0.000514988 0)
(-0.00037537 0.000469484 0)
(-0.000349003 0.000427195 0)
(-0.000324817 0.000387858 0)
(-0.000302693 0.000351225 0)
(-0.000282521 0.000317062 0)
(-0.000264199 0.000285147 0)
(-0.000247633 0.00025527 0)
(-0.000232739 0.00022723 0)
(-0.00021944 0.000200836 0)
(-0.000207664 0.000175906 0)
(-0.000197351 0.000152266 0)
(-0.000188445 0.000129749 0)
(-0.000180899 0.000108192 0)
(-0.000174672 8.74391e-05 0)
(-0.000169731 6.73386e-05 0)
(-0.000166048 4.77416e-05 0)
(-0.000163604 2.85024e-05 0)
(-0.000162385 9.47709e-06 0)
(-0.0491892 0.112682 0)
(-0.0475564 0.107629 0)
(-0.0459419 0.102745 0)
(-0.0443482 0.0980289 0)
(-0.0427776 0.0934783 0)
(-0.0412321 0.0890904 0)
(-0.0397136 0.0848627 0)
(-0.0382234 0.0807922 0)
(-0.036763 0.0768758 0)
(-0.0353343 0.0731104 0)
(-0.0339375 0.0694926 0)
(-0.0325734 0.0660191 0)
(-0.0312433 0.0626863 0)
(-0.0299479 0.0594907 0)
(-0.0286875 0.0564286 0)
(-0.0274621 0.0534964 0)
(-0.0262719 0.0506904 0)
(-0.0251172 0.0480069 0)
(-0.0239981 0.0454421 0)
(-0.0229147 0.0429924 0)
(-0.0218668 0.040654 0)
(-0.020854 0.0384232 0)
(-0.019876 0.0362965 0)
(-0.0189325 0.0342701 0)
(-0.0180228 0.0323405 0)
(-0.0171465 0.0305042 0)
(-0.0163032 0.0287577 0)
(-0.0154921 0.0270976 0)
(-0.0147127 0.0255205 0)
(-0.0139644 0.0240233 0)
(-0.0132464 0.0226027 0)
(-0.0125581 0.0212554 0)
(-0.0118987 0.0199786 0)
(-0.0112675 0.0187692 0)
(-0.0106637 0.0176243 0)
(-0.0100865 0.016541 0)
(-0.00953517 0.0155167 0)
(-0.00900893 0.0145486 0)
(-0.00850696 0.0136342 0)
(-0.00802849 0.012771 0)
(-0.00757272 0.0119566 0)
(-0.00713888 0.0111887 0)
(-0.00672618 0.010465 0)
(-0.00633386 0.00978324 0)
(-0.00596116 0.00914148 0)
(-0.00560733 0.00853765 0)
(-0.00527164 0.00796981 0)
(-0.00495336 0.00743612 0)
(-0.00465179 0.0069348 0)
(-0.00436623 0.00646412 0)
(-0.00409602 0.00602246 0)
(-0.00384047 0.00560825 0)
(-0.00359896 0.00521998 0)
(-0.00337086 0.00485623 0)
(-0.00315556 0.00451563 0)
(-0.00295246 0.00419687 0)
(-0.002761 0.00389871 0)
(-0.00258063 0.00361995 0)
(-0.0024108 0.00335948 0)
(-0.00225101 0.00311621 0)
(-0.00210075 0.00288912 0)
(-0.00195955 0.00267725 0)
(-0.00182694 0.00247967 0)
(-0.00170248 0.00229551 0)
(-0.00158575 0.00212393 0)
(-0.00147634 0.00196416 0)
(-0.00137385 0.00181545 0)
(-0.00127793 0.00167709 0)
(-0.00118819 0.00154842 0)
(-0.00110432 0.00142881 0)
(-0.00102598 0.00131767 0)
(-0.000952861 0.00121443 0)
(-0.000884672 0.00111857 0)
(-0.000821133 0.00102958 0)
(-0.00076198 0.000946991 0)
(-0.00070696 0.000870361 0)
(-0.000655837 0.00079927 0)
(-0.000608385 0.000733323 0)
(-0.000564394 0.000672146 0)
(-0.000523664 0.000615391 0)
(-0.000486007 0.000562725 0)
(-0.000451247 0.000513838 0)
(-0.000419221 0.000468436 0)
(-0.000389774 0.000426241 0)
(-0.000362762 0.000386992 0)
(-0.000338054 0.000350441 0)
(-0.000315525 0.000316354 0)
(-0.000295062 0.000284511 0)
(-0.000276562 0.0002547 0)
(-0.000259928 0.000226722 0)
(-0.000245074 0.000200387 0)
(-0.000231923 0.000175513 0)
(-0.000220405 0.000151926 0)
(-0.000210459 0.000129459 0)
(-0.000202031 0.00010795 0)
(-0.000195077 8.72439e-05 0)
(-0.000189558 6.71883e-05 0)
(-0.000185445 4.76351e-05 0)
(-0.000182716 2.84388e-05 0)
(-0.000181355 9.45593e-06 0)
(-0.0543222 0.112402 0)
(-0.052519 0.107361 0)
(-0.050736 0.10249 0)
(-0.0489761 0.0977853 0)
(-0.0472416 0.093246 0)
(-0.0455348 0.0888691 0)
(-0.0438578 0.0846518 0)
(-0.0422122 0.0805914 0)
(-0.0405994 0.0766848 0)
(-0.0390215 0.0729287 0)
(-0.0374789 0.0693199 0)
(-0.0359725 0.065855 0)
(-0.0345036 0.0625306 0)
(-0.033073 0.0593429 0)
(-0.0316811 0.0562884 0)
(-0.0303278 0.0533635 0)
(-0.0290134 0.0505645 0)
(-0.0277382 0.0478876 0)
(-0.0265024 0.0453292 0)
(-0.025306 0.0428856 0)
(-0.0241487 0.040553 0)
(-0.0230302 0.0383278 0)
(-0.0219502 0.0362063 0)
(-0.0209081 0.0341849 0)
(-0.0199035 0.0322601 0)
(-0.0189358 0.0304283 0)
(-0.0180044 0.0286862 0)
(-0.0171087 0.0270302 0)
(-0.016248 0.0254571 0)
(-0.0154216 0.0239636 0)
(-0.0146287 0.0225465 0)
(-0.0138685 0.0212026 0)
(-0.0131403 0.019929 0)
(-0.0124433 0.0187225 0)
(-0.0117764 0.0175805 0)
(-0.011139 0.0164999 0)
(-0.0105302 0.0154781 0)
(-0.00994903 0.0145124 0)
(-0.00939469 0.0136003 0)
(-0.00886629 0.0127393 0)
(-0.00836296 0.0119269 0)
(-0.00788384 0.0111609 0)
(-0.00742807 0.0104389 0)
(-0.00699481 0.00975893 0)
(-0.00658322 0.00911876 0)
(-0.00619247 0.00851643 0)
(-0.00582175 0.00795001 0)
(-0.00547026 0.00741765 0)
(-0.00513722 0.00691756 0)
(-0.00482186 0.00644806 0)
(-0.00452345 0.00600749 0)
(-0.00424124 0.00559431 0)
(-0.00397453 0.00520701 0)
(-0.00372262 0.00484417 0)
(-0.00348485 0.00450441 0)
(-0.00326056 0.00418644 0)
(-0.00304912 0.00388902 0)
(-0.00284992 0.00361096 0)
(-0.00266237 0.00335113 0)
(-0.00248591 0.00310847 0)
(-0.00231997 0.00288195 0)
(-0.00216403 0.0026706 0)
(-0.00201758 0.00247351 0)
(-0.00188014 0.0022898 0)
(-0.00175123 0.00211866 0)
(-0.0016304 0.00195928 0)
(-0.00151722 0.00181094 0)
(-0.00141128 0.00167292 0)
(-0.00131219 0.00154458 0)
(-0.00121956 0.00142526 0)
(-0.00113304 0.0013144 0)
(-0.00105229 0.00121142 0)
(-0.00097699 0.00111579 0)
(-0.000906821 0.00102702 0)
(-0.000841495 0.000944639 0)
(-0.000780733 0.000868199 0)
(-0.000724275 0.000797284 0)
(-0.000671872 0.000731501 0)
(-0.00062329 0.000670476 0)
(-0.000578309 0.000613862 0)
(-0.000536723 0.000561327 0)
(-0.000498336 0.000512562 0)
(-0.000462968 0.000467272 0)
(-0.000430448 0.000425182 0)
(-0.000400618 0.00038603 0)
(-0.000373331 0.00034957 0)
(-0.000348451 0.000315568 0)