/*--------------------------------*- C++ -*----------------------------------*\
| =========                 |                                                 |
| \\      /  F ield         | OpenFOAM: The Open Source CFD Toolbox           |
|  \\    /   O peration     | Version:  2406                                  |
|   \\  /    A nd           | Website:  www.openfoam.com                      |
|    \\/     M anipulation  |                                                 |
\*---------------------------------------------------------------------------*/
FoamFile
{
    version     2.0;
    format      ascii;
    arch        "LSB;label=32;scalar=64";
    class       volScalarField;
    location    "95";
    object      T;
}
// * * * * * * * * * * * * * * * * * * * * * * * * * * * * * * * * * * * * * //

dimensions      [0 0 0 1 0 0 0];

internalField   nonuniform List<scalar> 
20000
(
300.779
300.772
300.764
300.755
300.745
300.734
300.723
300.711
300.699
300.686
300.672
300.659
300.645
300.631
300.616
300.602
300.587
300.572
300.557
300.543
300.528
300.513
300.499
300.484
300.47
300.455
300.441
300.427
300.414
300.4
300.387
300.374
300.361
300.349
300.336
300.324
300.313
300.301
300.29
300.279
300.268
300.258
300.248
300.238
300.229
300.219
300.21
300.202
300.193
300.185
300.177
300.17
300.162
300.155
300.148
300.142
300.135
300.129
300.123
300.117
300.112
300.106
300.101
300.096
300.092
300.087
300.083
300.079
300.075
300.071
300.067
300.063
300.06
300.057
300.053
300.05
300.047
300.045
300.042
300.039
300.037
300.034
300.032
300.03
300.028
300.025
300.023
300.021
300.02
300.018
300.016
300.014
300.012
300.011
300.009
300.007
300.006
300.004
300.002
300.001
302.338
302.316
302.292
302.264
302.235
302.203
302.169
302.133
302.096
302.057
302.017
301.976
301.934
301.892
301.848
301.805
301.761
301.717
301.672
301.628
301.584
301.539
301.496
301.452
301.409
301.366
301.324
301.282
301.241
301.201
301.161
301.122
301.083
301.046
301.009
300.973
300.937
300.903
300.869
300.837
300.805
300.774
300.743
300.714
300.686
300.658
300.631
300.605
300.58
300.555
300.532
300.509
300.487
300.465
300.445
300.425
300.405
300.387
300.369
300.352
300.335
300.319
300.304
300.289
300.275
300.261
300.248
300.236
300.223
300.212
300.201
300.19
300.18
300.17
300.16
300.151
300.142
300.134
300.126
300.118
300.11
300.103
300.096
300.089
300.083
300.076
300.07
300.064
300.058
300.053
300.047
300.042
300.037
300.032
300.027
300.022
300.017
300.012
300.007
300.002
303.896
303.86
303.819
303.774
303.724
303.671
303.614
303.555
303.492
303.428
303.361
303.293
303.223
303.152
303.08
303.008
302.934
302.861
302.787
302.713
302.639
302.565
302.492
302.42
302.348
302.276
302.206
302.137
302.068
302.001
301.934
301.869
301.805
301.742
301.681
301.621
301.562
301.505
301.449
301.394
301.341
301.289
301.239
301.19
301.142
301.096
301.051
301.008
300.966
300.925
300.886
300.848
300.811
300.775
300.741
300.708
300.676
300.645
300.615
300.586
300.559
300.532
300.507
300.482
300.458
300.436
300.414
300.393
300.372
300.353
300.334
300.316
300.299
300.283
300.267
300.252
300.237
300.223
300.209
300.196
300.184
300.172
300.16
300.149
300.138
300.127
300.117
300.107
300.097
300.088
300.079
300.07
300.061
300.053
300.045
300.036
300.028
300.02
300.012
300.004
305.453
305.403
305.345
305.282
305.212
305.138
305.058
304.975
304.888
304.798
304.705
304.609
304.511
304.412
304.311
304.21
304.107
304.004
303.9
303.797
303.694
303.591
303.488
303.387
303.286
303.186
303.088
302.99
302.894
302.8
302.707
302.616
302.526
302.439
302.353
302.269
302.186
302.106
302.028
301.951
301.877
301.805
301.734
301.666
301.599
301.534
301.472
301.411
301.352
301.295
301.24
301.187
301.135
301.085
301.037
300.99
300.946
300.902
300.861
300.821
300.782
300.745
300.709
300.675
300.641
300.61
300.579
300.55
300.521
300.494
300.468
300.443
300.419
300.396
300.373
300.352
300.332
300.312
300.293
300.275
300.257
300.24
300.224
300.208
300.193
300.178
300.164
300.15
300.136
300.123
300.111
300.098
300.086
300.074
300.062
300.051
300.039
300.028
300.017
300.006
307.009
306.944
306.87
306.788
306.699
306.603
306.502
306.394
306.283
306.167
306.047
305.924
305.799
305.671
305.541
305.41
305.279
305.146
305.013
304.88
304.747
304.615
304.484
304.353
304.223
304.095
303.969
303.844
303.72
303.599
303.48
303.362
303.247
303.134
303.024
302.916
302.81
302.707
302.606
302.508
302.413
302.319
302.229
302.141
302.055
301.972
301.892
301.813
301.738
301.665
301.594
301.525
301.459
301.395
301.333
301.273
301.215
301.16
301.106
301.055
301.005
300.957
300.911
300.867
300.824
300.783
300.744
300.706
300.67
300.635
300.602
300.569
300.538
300.509
300.48
300.453
300.426
300.401
300.376
300.353
300.33
300.309
300.288
300.267
300.248
300.229
300.21
300.193
300.175
300.159
300.142
300.126
300.111
300.095
300.08
300.065
300.051
300.036
300.022
300.007
308.563
308.484
308.394
308.294
308.185
308.067
307.943
307.812
307.676
307.534
307.388
307.237
307.084
306.928
306.77
306.61
306.449
306.287
306.125
305.962
305.8
305.638
305.478
305.318
305.16
305.003
304.848
304.696
304.545
304.397
304.251
304.108
303.967
303.829
303.694
303.562
303.433
303.307
303.184
303.064
302.947
302.834
302.723
302.615
302.511
302.409
302.311
302.216
302.123
302.034
301.947
301.863
301.782
301.704
301.628
301.555
301.485
301.417
301.352
301.289
301.228
301.17
301.113
301.059
301.007
300.957
300.909
300.863
300.819
300.776
300.735
300.695
300.658
300.621
300.586
300.553
300.521
300.49
300.46
300.431
300.404
300.377
300.351
300.327
300.303
300.279
300.257
300.235
300.214
300.194
300.174
300.154
300.135
300.116
300.098
300.08
300.062
300.044
300.026
300.009
310.115
310.021
309.915
309.797
309.668
309.53
309.383
309.228
309.067
308.899
308.726
308.549
308.368
308.184
307.997
307.808
307.618
307.426
307.235
307.043
306.851
306.66
306.47
306.282
306.095
305.91
305.727
305.547
305.369
305.194
305.021
304.852
304.686
304.523
304.364
304.208
304.056
303.907
303.761
303.62
303.482
303.347
303.216
303.089
302.966
302.846
302.73
302.617
302.508
302.402
302.3
302.201
302.105
302.013
301.923
301.837
301.754
301.674
301.597
301.522
301.451
301.382
301.315
301.251
301.19
301.131
301.074
301.019
300.967
300.916
300.868
300.822
300.777
300.734
300.693
300.653
300.615
300.578
300.543
300.509
300.477
300.445
300.415
300.386
300.357
300.33
300.304
300.278
300.253
300.229
300.205
300.182
300.16
300.137
300.116
300.094
300.073
300.052
300.031
300.01
311.664
311.556
311.433
311.297
311.149
310.989
310.82
310.642
310.455
310.262
310.063
309.859
309.65
309.437
309.222
309.004
308.785
308.564
308.343
308.121
307.901
307.68
307.461
307.244
307.029
306.815
306.604
306.396
306.191
305.989
305.791
305.596
305.404
305.216
305.032
304.853
304.677
304.505
304.337
304.174
304.015
303.86
303.709
303.563
303.42
303.282
303.148
303.018
302.892
302.77
302.652
302.538
302.428
302.321
302.218
302.119
302.023
301.93
301.841
301.755
301.673
301.593
301.517
301.443
301.372
301.304
301.238
301.175
301.115
301.057
301.001
300.947
300.896
300.846
300.799
300.753
300.709
300.667
300.626
300.587
300.55
300.514
300.479
300.445
300.412
300.381
300.35
300.321
300.292
300.264
300.237
300.21
300.184
300.158
300.133
300.109
300.084
300.06
300.036
300.012
313.211
313.088
312.949
312.795
312.627
312.446
312.255
312.053
311.842
311.623
311.397
311.166
310.929
310.689
310.445
310.198
309.949
309.7
309.449
309.198
308.948
308.699
308.451
308.205
307.96
307.719
307.48
307.244
307.012
306.783
306.558
306.337
306.121
305.908
305.7
305.496
305.297
305.102
304.913
304.728
304.547
304.372
304.201
304.035
303.874
303.717
303.565
303.418
303.276
303.137
303.004
302.874
302.749
302.629
302.512
302.4
302.291
302.186
302.085
301.988
301.895
301.804
301.718
301.634
301.554
301.477
301.403
301.331
301.263
301.197
301.134
301.073
301.015
300.959
300.905
300.853
300.803
300.755
300.71
300.665
300.623
300.582
300.542
300.504
300.467
300.431
300.397
300.363
300.331
300.299
300.268
300.238
300.208
300.179
300.151
300.123
300.095
300.068
300.041
300.014
314.754
314.617
314.462
314.29
314.102
313.9
313.686
313.461
313.225
312.981
312.729
312.47
312.206
311.937
311.665
311.389
311.112
310.833
310.553
310.273
309.993
309.715
309.438
309.163
308.89
308.621
308.354
308.091
307.831
307.576
307.325
307.078
306.836
306.598
306.366
306.138
305.916
305.698
305.486
305.28
305.078
304.882
304.692
304.506
304.326
304.151
303.982
303.817
303.658
303.504
303.355
303.21
303.071
302.936
302.806
302.68
302.559
302.442
302.329
302.22
302.116
302.015
301.918
301.825
301.735
301.649
301.566
301.487
301.41
301.337
301.266
301.198
301.133
301.071
301.01
300.953
300.897
300.844
300.792
300.743
300.695
300.65
300.605
300.563
300.521
300.482
300.443
300.406
300.369
300.334
300.299
300.266
300.233
300.2
300.169
300.137
300.106
300.076
300.045
300.015
316.294
316.143
315.971
315.781
315.574
315.351
315.114
314.865
314.605
314.335
314.057
313.772
313.48
313.183
312.882
312.578
312.271
311.963
311.654
311.345
311.036
310.729
310.423
310.119
309.818
309.52
309.226
308.935
308.649
308.366
308.089
307.816
307.549
307.287
307.03
306.779
306.533
306.293
306.059
305.831
305.608
305.392
305.181
304.977
304.778
304.585
304.397
304.216
304.04
303.87
303.705
303.545
303.391
303.242
303.098
302.96
302.826
302.696
302.572
302.452
302.337
302.225
302.118
302.016
301.917
301.821
301.73
301.642
301.557
301.476
301.398
301.323
301.251
301.182
301.116
301.052
300.991
300.932
300.875
300.82
300.768
300.717
300.668
300.621
300.576
300.532
300.489
300.448
300.408
300.369
300.331
300.293
300.257
300.221
300.186
300.152
300.118
300.084
300.05
300.017
317.829
317.664
317.477
317.268
317.041
316.798
316.539
316.266
315.982
315.686
315.382
315.069
314.75
314.425
314.096
313.763
313.428
313.09
312.752
312.414
312.076
311.74
311.405
311.073
310.743
310.417
310.095
309.777
309.464
309.155
308.851
308.553
308.26
307.973
307.692
307.417
307.149
306.886
306.63
306.38
306.137
305.9
305.67
305.446
305.228
305.017
304.812
304.613
304.421
304.234
304.054
303.879
303.711
303.548
303.39
303.238
303.092
302.951
302.814
302.683
302.557
302.435
302.318
302.205
302.097
301.993
301.893
301.797
301.704
301.615
301.53
301.448
301.369
301.294
301.221
301.151
301.084
301.02
300.958
300.898
300.84
300.785
300.731
300.68
300.63
300.582
300.535
300.49
300.446
300.403
300.362
300.321
300.281
300.242
300.204
300.166
300.129
300.092
300.055
300.018
319.36
319.181
318.977
318.751
318.505
318.24
317.959
317.663
317.354
317.034
316.703
316.364
316.017
315.664
315.307
314.945
314.581
314.215
313.848
313.48
313.113
312.748
312.385
312.024
311.666
311.312
310.962
310.617
310.276
309.941
309.611
309.288
308.97
308.658
308.353
308.054
307.763
307.478
307.199
306.928
306.664
306.407
306.157
305.913
305.677
305.448
305.225
305.009
304.8
304.598
304.402
304.213
304.029
303.852
303.682
303.517
303.357
303.204
303.056
302.914
302.776
302.644
302.517
302.395
302.277
302.164
302.055
301.951
301.851
301.754
301.662
301.572
301.487
301.405
301.326
301.25
301.177
301.107
301.04
300.975
300.912
300.852
300.794
300.738
300.684
300.632
300.581
300.532
300.484
300.438
300.393
300.349
300.305
300.263
300.221
300.18
300.14
300.099
300.06
300.02
320.887
320.693
320.474
320.23
319.964
319.678
319.375
319.056
318.722
318.377
318.02
317.654
317.28
316.899
316.513
316.124
315.73
315.335
314.939
314.543
314.147
313.753
313.361
312.972
312.586
312.204
311.827
311.454
311.087
310.725
310.369
310.02
309.677
309.341
309.012
308.689
308.375
308.067
307.767
307.474
307.189
306.912
306.642
306.38
306.125
305.877
305.637
305.404
305.179
304.96
304.749
304.545
304.347
304.156
303.972
303.794
303.622
303.457
303.297
303.143
302.995
302.853
302.716
302.584
302.457
302.335
302.218
302.105
301.997
301.892
301.793
301.696
301.604
301.516
301.431
301.349
301.27
301.194
301.122
301.052
300.984
300.92
300.857
300.797
300.738
300.682
300.627
300.574
300.523
300.473
300.424
300.376
300.329
300.284
300.239
300.194
300.151
300.107
300.064
300.021
322.408
322.201
321.965
321.703
321.418
321.112
320.786
320.444
320.086
319.715
319.332
318.94
318.538
318.13
317.716
317.298
316.876
316.452
316.027
315.602
315.178
314.755
314.334
313.917
313.503
313.093
312.688
312.288
311.894
311.506
311.124
310.75
310.382
310.021
309.668
309.322
308.985
308.655
308.333
308.019
307.713
307.415
307.126
306.844
306.571
306.305
306.048
305.798
305.556
305.322
305.095
304.876
304.664
304.459
304.261
304.07
303.886
303.708
303.537
303.372
303.214
303.061
302.913
302.772
302.636
302.505
302.379
302.258
302.142
302.03
301.923
301.82
301.721
301.626
301.535
301.447
301.363
301.281
301.203
301.128
301.056
300.986
300.919
300.855
300.792
300.731
300.673
300.616
300.561
300.507
300.455
300.403
300.353
300.304
300.256
300.209
300.162
300.115
300.069
300.023
323.924
323.702
323.451
323.171
322.867
322.54
322.192
321.827
321.445
321.049
320.64
320.221
319.792
319.357
318.915
318.468
318.018
317.565
317.112
316.658
316.204
315.753
315.304
314.858
314.416
313.979
313.546
313.119
312.699
312.284
311.877
311.477
311.084
310.699
310.322
309.953
309.592
309.24
308.896
308.561
308.235
307.917
307.608
307.307
307.015
306.732
306.457
306.19
305.932
305.682
305.44
305.205
304.979
304.76
304.549
304.345
304.149
303.959
303.777
303.6
303.431
303.268
303.111
302.959
302.814
302.674
302.54
302.411
302.287
302.168
302.053
301.943
301.838
301.736
301.639
301.545
301.455
301.368
301.285
301.205
301.128
301.053
300.982
300.912
300.846
300.781
300.718
300.658
300.599
300.541
300.485
300.431
300.377
300.325
300.273
300.223
300.173
300.123
300.074
300.025
325.434
325.198
324.931
324.634
324.31
323.962
323.593
323.204
322.798
322.377
321.943
321.497
321.042
320.578
320.108
319.633
319.155
318.674
318.191
317.709
317.227
316.747
316.27
315.796
315.326
314.861
314.401
313.947
313.5
313.06
312.626
312.201
311.783
311.374
310.973
310.581
310.198
309.823
309.458
309.102
308.754
308.417
308.088
307.768
307.458
307.157
306.864
306.581
306.306
306.04
305.783
305.534
305.293
305.061
304.836
304.62
304.411
304.209
304.015
303.828
303.647
303.474
303.307
303.146
302.992
302.843
302.7
302.563
302.431
302.304
302.183
302.066
301.953
301.846
301.742
301.642
301.547
301.455
301.366
301.281
301.199
301.12
301.043
300.97
300.899
300.83
300.764
300.699
300.636
300.575
300.516
300.458
300.401
300.345
300.291
300.237
300.183
300.131
300.078
300.026
326.937
326.688
326.404
326.09
325.747
325.379
324.988
324.576
324.146
323.7
323.24
322.768
322.285
321.795
321.297
320.794
320.287
319.778
319.267
318.756
318.246
317.737
317.231
316.729
316.232
315.739
315.252
314.772
314.298
313.832
313.373
312.922
312.48
312.047
311.622
311.207
310.801
310.404
310.017
309.64
309.272
308.914
308.566
308.228
307.899
307.58
307.27
306.97
306.679
306.397
306.125
305.861
305.606
305.36
305.122
304.893
304.671
304.458
304.252
304.054
303.863
303.679
303.502
303.332
303.169
303.011
302.86
302.715
302.575
302.441
302.312
302.188
302.069
301.955
301.845
301.739
301.638
301.54
301.447
301.356
301.27
301.186
301.105
301.027
300.952
300.879
300.809
300.74
300.674
300.609
300.546
300.485
300.425
300.366
300.308
300.251
300.194
300.138
300.083
300.028
328.434
328.171
327.872
327.54
327.178
326.789
326.376
325.941
325.488
325.017
324.531
324.033
323.524
323.006
322.481
321.95
321.415
320.877
320.338
319.798
319.259
318.723
318.189
317.659
317.134
316.614
316.1
315.593
315.093
314.6
314.116
313.64
313.174
312.716
312.268
311.829
311.401
310.982
310.574
310.175
309.787
309.409
309.042
308.685
308.338
308.001
307.674
307.357
307.05
306.753
306.465
306.187
305.918
305.658
305.407
305.165
304.931
304.706
304.488
304.279
304.078
303.884
303.697
303.517
303.345
303.178
303.019
302.865
302.718
302.576
302.44
302.309
302.184
302.063
301.947
301.836
301.729
301.626
301.527
301.432
301.34
301.252
301.167
301.084
301.005
300.928
300.854
300.782
300.711
300.643
300.577
300.512
300.448
300.386
300.325
300.265
300.205
300.146
300.088
300.029
329.924
329.647
329.332
328.983
328.602
328.193
327.758
327.301
326.823
326.328
325.817
325.292
324.756
324.211
323.658
323.1
322.537
321.971
321.403
320.835
320.269
319.704
319.142
318.584
318.032
317.484
316.944
316.41
315.883
315.365
314.856
314.355
313.864
313.382
312.911
312.449
311.998
311.558
311.128
310.709
310.3
309.903
309.516
309.14
308.775
308.42
308.076
307.743
307.419
307.107
306.804
306.511
306.228
305.954
305.69
305.435
305.189
304.952
304.724
304.503
304.291
304.087
303.891
303.702
303.52
303.345
303.177
303.016
302.86
302.711
302.568
302.431
302.298
302.171
302.049
301.932
301.82
301.711
301.607
301.507
301.41
301.317
301.228
301.141
301.058
300.977
300.898
300.822
300.749
300.677
300.607
300.539
300.472
300.406
300.342
300.279
300.216
300.154
300.092
300.031
331.407
331.116
330.785
330.419
330.019
329.59
329.133
328.653
328.152
327.632
327.096
326.545
325.983
325.411
324.831
324.244
323.653
323.059
322.464
321.868
321.273
320.68
320.09
319.505
318.925
318.351
317.783
317.223
316.67
316.127
315.592
315.066
314.551
314.045
313.55
313.066
312.593
312.13
311.679
311.239
310.81
310.393
309.987
309.593
309.209
308.837
308.476
308.126
307.787
307.459
307.141
306.834
306.536
306.249
305.972
305.705
305.447
305.198
304.958
304.727
304.504
304.29
304.083
303.885
303.694
303.511
303.334
303.165
303.002
302.846
302.695
302.551
302.412
302.279
302.151
302.028
301.91
301.796
301.687
301.582
301.48
301.383
301.289
301.198
301.11
301.025
300.943
300.863
300.786
300.711
300.637
300.565
300.495
300.427
300.359
300.292
300.227
300.161
300.097
300.032
332.881
332.577
332.231
331.847
331.429
330.979
330.501
329.999
329.474
328.929
328.368
327.792
327.203
326.604
325.997
325.383
324.764
324.142
323.518
322.894
322.272
321.651
321.034
320.421
319.814
319.212
318.618
318.031
317.453
316.884
316.324
315.774
315.234
314.705
314.187
313.68
313.184
312.7
312.227
311.767
311.318
310.881
310.456
310.043
309.642
309.252
308.874
308.508
308.153
307.809
307.476
307.154
306.843
306.543
306.253
305.972
305.702
305.442
305.191
304.949
304.715
304.491
304.275
304.067
303.868
303.676
303.491
303.314
303.143
302.979
302.822
302.671
302.525
302.386
302.252
302.123
301.999
301.88
301.766
301.656
301.55
301.448
301.349
301.254
301.162
301.073
300.987
300.904
300.823
300.744
300.667
300.592
300.519
300.447
300.376
300.306
300.237
300.169
300.101
300.034
334.348
334.03
333.669
333.267
332.83
332.361
331.862
331.337
330.789
330.22
329.633
329.031
328.416
327.791
327.156
326.515
325.868
325.219
324.567
323.916
323.265
322.617
321.972
321.332
320.697
320.069
319.448
318.836
318.232
317.637
317.052
316.477
315.913
315.361
314.819
314.29
313.772
313.266
312.773
312.292
311.823
311.367
310.923
310.491
310.072
309.665
309.27
308.887
308.516
308.157
307.81
307.474
307.149
306.835
306.532
306.239
305.957
305.684
305.422
305.169
304.926
304.691
304.466
304.249
304.04
303.84
303.647
303.461
303.283
303.112
302.948
302.79
302.638
302.492
302.352
302.218
302.089
301.964
301.845
301.73
301.619
301.512
301.409
301.31
301.214
301.121
301.031
300.944
300.859
300.777
300.697
300.618
300.542
300.467
300.393
300.32
300.248
300.176
300.106
300.035
335.806
335.475
335.098
334.68
334.224
333.735
333.215
332.667
332.096
331.503
330.891
330.264
329.623
328.97
328.309
327.64
326.967
326.289
325.61
324.931
324.253
323.577
322.905
322.238
321.576
320.921
320.274
319.635
319.006
318.386
317.776
317.177
316.589
316.013
315.448
314.896
314.357
313.829
313.315
312.813
312.325
311.849
311.386
310.936
310.499
310.075
309.664
309.265
308.878
308.504
308.141
307.791
307.452
307.125
306.809
306.504
306.209
305.926
305.652
305.389
305.135
304.891
304.655
304.429
304.212
304.003
303.802
303.608
303.423
303.244
303.073
302.908
302.75
302.598
302.452
302.312
302.177
302.048
301.923
301.803
301.688
301.576
301.469
301.365
301.265
301.169
301.075
300.984
300.896
300.81
300.726
300.645
300.565
300.486
300.409
300.333
300.258
300.184
300.11
300.037
337.256
336.911
336.519
336.084
335.609
335.1
334.559
333.99
333.395
332.778
332.142
331.489
330.822
330.143
329.455
328.759
328.058
327.354
326.647
325.94
325.234
324.531
323.832
323.138
322.449
321.768
321.095
320.43
319.775
319.13
318.495
317.872
317.261
316.661
316.074
315.499
314.938
314.389
313.854
313.332
312.824
312.329
311.847
311.379
310.924
310.483
310.055
309.64
309.237
308.848
308.471
308.106
307.754
307.413
307.084
306.767
306.461
306.166
305.881
305.607
305.343
305.089
304.844
304.609
304.382
304.165
303.955
303.754
303.561
303.376
303.197
303.026
302.861
302.703
302.552
302.406
302.265
302.131
302.001
301.876
301.756
301.64
301.529
301.421
301.317
301.216
301.119
301.024
300.932
300.843
300.756
300.671
300.588
300.506
300.426
300.347
300.269
300.191
300.115
300.038
338.696
338.338
337.93
337.478
336.986
336.457
335.895
335.303
334.686
334.045
333.384
332.706
332.013
331.308
330.593
329.871
329.143
328.411
327.677
326.943
326.21
325.48
324.753
324.032
323.317
322.61
321.91
321.22
320.539
319.869
319.21
318.563
317.928
317.305
316.695
316.098
315.515
314.945
314.39
313.847
313.319
312.805
312.305
311.819
311.347
310.888
310.443
310.012
309.594
309.19
308.798
308.42
308.053
307.7
307.358
307.029
306.711
306.404
306.108
305.824
305.549
305.285
305.031
304.787
304.552
304.326
304.108
303.899
303.699
303.506
303.321
303.143
302.972
302.808
302.65
302.499
302.353
302.213
302.078
301.949
301.824
301.704
301.588
301.476
301.368
301.263
301.162
301.064
300.968
300.875
300.785
300.697
300.61
300.526
300.442
300.36
300.279
300.199
300.119
300.04
340.126
339.755
339.333
338.864
338.353
337.805
337.222
336.609
335.968
335.304
334.618
333.915
333.197
332.466
331.725
330.975
330.22
329.461
328.7
327.939
327.179
326.422
325.668
324.921
324.179
323.446
322.72
322.004
321.299
320.604
319.921
319.249
318.591
317.945
317.312
316.694
316.089
315.498
314.922
314.359
313.812
313.279
312.76
312.256
311.766
311.291
310.829
310.382
309.949
309.53
309.124
308.731
308.351
307.984
307.63
307.288
306.959
306.641
306.334
306.039
305.754
305.481
305.217
304.964
304.72
304.485
304.26
304.044
303.836
303.636
303.444
303.259
303.082
302.912
302.748
302.591
302.44
302.295
302.155
302.021
301.891
301.767
301.646
301.53
301.418
301.31
301.205
301.103
301.004
300.908
300.814
300.722
300.633
300.545
300.459
300.374
300.289
300.206
300.123
300.041
341.547
341.162
340.725
340.24
339.711
339.143
338.54
337.905
337.242
336.554
335.844
335.116
334.372
333.615
332.848
332.072
331.29
330.504
329.716
328.928
328.141
327.357
326.577
325.803
325.035
324.276
323.525
322.783
322.053
321.333
320.626
319.931
319.249
318.58
317.925
317.285
316.658
316.047
315.45
314.868
314.301
313.749
313.212
312.69
312.183
311.69
311.213
310.75
310.301
309.867
309.447
309.04
308.647
308.267
307.9
307.547
307.205
306.876
306.558
306.253
305.958
305.675
305.402
305.139
304.887
304.644
304.411
304.187
303.971
303.764
303.566
303.375
303.191
303.015
302.845
302.683
302.526
302.376
302.231
302.092
301.958
301.829
301.705
301.584
301.468
301.356
301.247
301.142
301.04
300.94
300.843
300.748
300.655
300.564
300.475
300.387
300.3
300.213
300.128
300.043
342.958
342.56
342.108
341.606
341.059
340.472
339.848
339.192
338.506
337.795
337.061
336.308
335.539
334.756
333.963
333.161
332.353
331.54
330.725
329.91
329.097
328.286
327.479
326.679
325.885
325.1
324.323
323.557
322.801
322.058
321.326
320.607
319.902
319.211
318.534
317.871
317.224
316.591
315.974
315.373
314.786
314.216
313.66
313.121
312.596
312.087
311.594
311.115
310.651
310.202
309.767
309.347
308.94
308.548
308.169
307.803
307.45
307.109
306.781
306.465
306.16
305.867
305.585
305.314
305.053
304.802
304.561
304.329
304.106
303.892
303.687
303.489
303.299
303.117
302.942
302.774
302.612
302.457
302.307
302.163
302.025
301.891
301.762
301.638
301.518
301.402
301.29
301.181
301.075
300.972
300.871
300.773
300.678
300.583
300.491
300.4
300.31
300.221
300.132
300.044
344.358
343.947
343.48
342.962
342.397
341.791
341.147
340.469
339.761
339.026
338.269
337.491
336.697
335.889
335.07
334.241
333.407
332.568
331.727
330.885
330.045
329.208
328.375
327.548
326.729
325.918
325.116
324.325
323.544
322.776
322.021
321.279
320.551
319.837
319.138
318.454
317.785
317.132
316.495
315.874
315.268
314.679
314.105
313.548
313.007
312.481
311.971
311.477
310.998
310.534
310.086
309.651
309.232
308.826
308.435
308.057
307.692
307.341
307.002
306.676
306.361
306.059
305.767
305.487
305.218
304.958
304.709
304.47
304.24
304.019
303.807
303.603
303.407
303.219
303.038
302.864
302.697
302.537
302.382
302.234
302.091
301.953
301.82
301.692
301.568
301.448
301.332
301.219
301.11
301.004
300.9
300.799
300.7
300.602
300.507
300.413
300.32
300.228
300.137
300.045
345.746
345.323
344.841
344.307
343.725
343.1
342.435
341.736
341.006
340.248
339.467
338.665
337.846
337.013
336.168
335.314
334.453
333.588
332.72
331.852
330.985
330.122
329.263
328.411
327.566
326.729
325.902
325.086
324.282
323.49
322.711
321.945
321.194
320.458
319.737
319.032
318.342
317.669
317.011
316.371
315.746
315.138
314.547
313.972
313.414
312.872
312.346
311.836
311.342
310.864
310.401
309.954
309.521
309.103
308.699
308.309
307.933
307.571
307.221
306.885
306.56
306.248
305.948
305.659
305.381
305.114
304.857
304.61
304.373
304.145
303.926
303.716
303.514
303.32
303.133
302.954
302.782
302.616
302.457
302.304
302.156
302.014
301.877
301.745
301.617
301.493
301.373
301.257
301.145
301.035
300.928
300.824
300.722
300.621
300.523
300.426
300.33
300.235
300.141
300.047
347.124
346.688
346.192
345.641
345.042
344.398
343.713
342.993
342.241
341.46
340.655
339.83
338.986
338.127
337.257
336.377
335.49
334.599
333.705
332.811
331.919
331.029
330.145
329.266
328.396
327.534
326.682
325.842
325.013
324.197
323.394
322.606
321.833
321.074
320.331
319.605
318.894
318.201
317.524
316.864
316.22
315.594
314.985
314.393
313.818
313.26
312.718
312.193
311.684
311.191
310.715
310.253
309.808
309.377
308.961
308.559
308.172
307.799
307.439
307.092
306.758
306.436
306.127
305.829
305.543
305.268
305.003
304.749
304.504
304.27
304.044
303.828
303.619
303.42
303.227
303.043
302.865
302.695
302.531
302.373
302.221
302.075
301.933
301.797
301.665
301.538
301.415
301.295
301.179
301.066
300.956
300.848
300.743
300.64
300.539
300.439
300.34
300.242
300.145
300.048
348.49
348.041
347.531
346.964
346.347
345.685
344.98
344.239
343.465
342.662
341.834
340.984
340.116
339.233
338.337
337.432
336.519
335.602
334.682
333.762
332.844
331.929
331.018
330.115
329.219
328.332
327.456
326.591
325.738
324.898
324.073
323.261
322.465
321.685
320.921
320.173
319.442
318.728
318.032
317.352
316.691
316.046
315.42
314.81
314.219
313.644
313.087
312.546
312.023
311.516
311.025
310.551
310.092
309.649
309.221
308.808
308.409
308.025
307.654
307.298
306.954
306.623
306.305
305.998
305.704
305.42
305.148
304.886
304.635
304.393
304.161
303.938
303.724
303.519
303.321
303.131
302.949
302.773
302.604
302.442
302.285
302.135
301.989
301.849
301.714
301.583
301.456
301.333
301.213
301.097
300.984
300.873
300.765
300.659
300.554
300.451
300.35
300.249
300.149
300.05
349.844
349.383
348.858
348.276
347.642
346.96
346.236
345.474
344.679
343.853
343.002
342.129
341.236
340.328
339.407
338.477
337.539
336.596
335.651
334.705
333.761
332.82
331.885
330.956
330.035
329.123
328.223
327.333
326.457
325.594
324.745
323.911
323.093
322.291
321.505
320.736
319.985
319.251
318.535
317.837
317.157
316.494
315.85
315.224
314.616
314.025
313.452
312.897
312.358
311.837
311.333
310.845
310.374
309.918
309.478
309.054
308.644
308.249
307.868
307.501
307.148
306.808
306.481
306.166
305.863
305.572
305.292
305.023
304.764
304.516
304.278
304.048
303.828
303.617
303.414
303.219
303.031
302.85
302.677
302.51
302.349
302.194
302.045
301.901
301.762
301.627
301.496
301.37
301.247
301.128
301.011
300.897
300.786
300.677
300.57
300.464
300.36
300.256
300.153
300.051
351.186
350.712
350.173
349.575
348.924
348.224
347.481
346.698
345.881
345.034
344.16
343.263
342.346
341.414
340.468
339.513
338.549
337.581
336.61
335.639
334.67
333.704
332.743
331.789
330.843
329.907
328.982
328.069
327.169
326.283
325.411
324.555
323.714
322.891
322.084
321.295
320.523
319.769
319.034
318.317
317.619
316.938
316.277
315.634
315.009
314.403
313.814
313.244
312.691
312.156
311.638
311.137
310.653
310.185
309.733
309.297
308.877
308.471
308.08
307.703
307.34
306.991
306.655
306.332
306.021
305.722
305.434
305.158
304.893
304.638
304.393
304.157
303.931
303.714
303.506
303.305
303.112
302.927
302.749
302.578
302.412
302.253
302.1
301.952
301.809
301.671
301.537
301.407
301.281
301.158
301.038
300.922
300.807
300.695
300.585
300.476
300.369
300.263
300.158
300.052
352.515
352.029
351.476
350.863
350.194
349.477
348.714
347.911
347.073
346.203
345.306
344.386
343.446
342.489
341.519
340.539
339.55
338.557
337.561
336.565
335.57
334.579
333.593
332.614
331.644
330.684
329.735
328.798
327.874
326.965
326.071
325.192
324.33
323.485
322.657
321.848
321.056
320.283
319.528
318.793
318.076
317.378
316.7
316.04
315.399
314.777
314.173
313.588
313.021
312.472
311.94
311.426
310.93
310.45
309.986
309.539
309.107
308.691
308.29
307.903
307.531
307.173
306.828
306.496
306.177
305.87
305.575
305.292
305.02
304.758
304.507
304.265
304.033
303.811
303.597
303.391
303.193
303.003
302.82
302.644
302.475
302.312
302.155
302.003
301.856
301.714
301.577
301.443
301.314
301.188
301.065
300.946
300.828
300.713
300.6
300.489
300.379
300.27
300.162
300.054
353.831
353.333
352.766
352.137
351.452
350.717
349.935
349.112
348.253
347.361
346.442
345.499
344.535
343.554
342.56
341.555
340.542
339.523
338.503
337.481
336.461
335.446
334.435
333.432
332.437
331.453
330.48
329.52
328.573
327.641
326.724
325.824
324.94
324.074
323.225
322.395
321.584
320.791
320.018
319.264
318.529
317.814
317.118
316.442
315.785
315.147
314.528
313.928
313.347
312.784
312.24
311.713
311.203
310.711
310.236
309.778
309.335
308.909
308.497
308.101
307.72
307.353
306.999
306.659
306.332
306.017
305.715
305.425
305.146
304.877
304.62
304.372
304.135
303.906
303.687
303.476
303.273
303.078
302.891
302.711
302.537
302.37
302.209
302.053
301.902
301.757