/*--------------------------------*- C++ -*----------------------------------*\
| =========                 |                                                 |
| \\      /  F ield         | OpenFOAM: The Open Source CFD Toolbox           |
|  \\    /   O peration     | Version:  2406                                  |
|   \\  /    A nd           | Website:  www.openfoam.com                      |
|    \\/     M anipulation  |                                                 |
\*---------------------------------------------------------------------------*/
FoamFile
{
    version     2.0;
    format      ascii;
    arch        "LSB;label=32;scalar=64";
    class       volScalarField;
    location    "140";
    object      T;
}
// * * * * * * * * * * * * * * * * * * * * * * * * * * * * * * * * * * * * * //

dimensions      [0 0 0 1 0 0 0];

internalField   nonuniform List<scalar> 
20000
(
299.878
299.913
299.945
299.975
300.002
300.027
300.049
300.07
300.088
300.105
300.12
300.133
300.144
300.154
300.162
300.17
300.176
300.18
300.184
300.187
300.189
300.19
300.19
300.19
300.188
300.187
300.185
300.182
300.179
300.176
300.172
300.168
300.164
300.16
300.155
300.151
300.146
300.141
300.137
300.132
300.127
300.122
300.117
300.113
300.108
300.103
300.099
300.095
300.09
300.086
300.082
300.078
300.074
300.071
300.067
300.064
300.06
300.057
300.054
300.051
300.048
300.045
300.043
300.04
300.038
300.036
300.034
300.031
300.03
300.028
300.026
300.024
300.023
300.021
300.02
300.018
300.017
300.016
300.015
300.014
300.013
300.012
300.011
300.01
300.009
300.008
300.008
300.007
300.006
300.006
300.005
300.004
300.004
300.003
300.003
300.002
300.002
300.001
300.001
300
299.635
299.739
299.835
299.924
300.005
300.08
300.148
300.209
300.264
300.314
300.358
300.398
300.432
300.462
300.487
300.509
300.527
300.541
300.552
300.56
300.566
300.569
300.57
300.569
300.565
300.56
300.554
300.546
300.537
300.527
300.516
300.505
300.492
300.479
300.466
300.452
300.438
300.424
300.41
300.395
300.381
300.366
300.352
300.338
300.324
300.31
300.297
300.284
300.271
300.258
300.246
300.234
300.223
300.212
300.201
300.191
300.181
300.171
300.162
300.153
300.144
300.136
300.128
300.121
300.114
300.107
300.101
300.094
300.089
300.083
300.078
300.073
300.068
300.063
300.059
300.055
300.051
300.048
300.044
300.041
300.038
300.035
300.032
300.03
300.027
300.025
300.023
300.021
300.019
300.017
300.015
300.013
300.011
300.01
300.008
300.007
300.005
300.004
300.002
300.001
299.392
299.565
299.725
299.873
300.009
300.133
300.246
300.348
300.441
300.524
300.597
300.663
300.72
300.769
300.812
300.848
300.878
300.902
300.92
300.934
300.943
300.948
300.95
300.947
300.942
300.934
300.923
300.91
300.895
300.879
300.861
300.841
300.82
300.799
300.777
300.754
300.73
300.706
300.683
300.659
300.634
300.611
300.587
300.563
300.54
300.517
300.495
300.473
300.452
300.431
300.41
300.391
300.371
300.353
300.335
300.318
300.301
300.285
300.27
300.255
300.241
300.227
300.214
300.202
300.19
300.178
300.168
300.157
300.148
300.138
300.13
300.121
300.113
300.106
300.099
300.092
300.086
300.08
300.074
300.068
300.063
300.059
300.054
300.05
300.046
300.042
300.038
300.034
300.031
300.028
300.025
300.022
300.019
300.016
300.014
300.011
300.009
300.006
300.004
300.001
299.149
299.391
299.616
299.822
300.012
300.186
300.344
300.488
300.617
300.733
300.836
300.927
301.007
301.077
301.136
301.187
301.228
301.262
301.288
301.307
301.32
301.327
301.329
301.326
301.319
301.307
301.292
301.274
301.253
301.23
301.205
301.177
301.148
301.118
301.087
301.055
301.022
300.989
300.955
300.922
300.888
300.855
300.821
300.788
300.756
300.724
300.693
300.662
300.632
300.603
300.574
300.547
300.52
300.494
300.469
300.445
300.421
300.399
300.377
300.357
300.337
300.318
300.299
300.282
300.265
300.25
300.235
300.22
300.207
300.194
300.181
300.17
300.159
300.148
300.138
300.129
300.12
300.111
300.103
300.096
300.089
300.082
300.076
300.069
300.064
300.058
300.053
300.048
300.043
300.039
300.035
300.031
300.027
300.023
300.019
300.016
300.012
300.009
300.005
300.002
298.906
299.217
299.506
299.772
300.016
300.239
300.442
300.627
300.793
300.942
301.075
301.192
301.295
301.384
301.461
301.525
301.579
301.622
301.655
301.68
301.697
301.706
301.708
301.704
301.695
301.68
301.661
301.638
301.611
301.581
301.548
301.513
301.476
301.437
301.397
301.356
301.314
301.271
301.228
301.185
301.141
301.098
301.056
301.013
300.972
300.931
300.89
300.851
300.812
300.775
300.738
300.703
300.668
300.635
300.603
300.571
300.541
300.513
300.485
300.458
300.433
300.408
300.385
300.363
300.341
300.321
300.302
300.283
300.266
300.249
300.233
300.218
300.204
300.19
300.177
300.165
300.154
300.143
300.133
300.123
300.114
300.105
300.097
300.089
300.082
300.075
300.068
300.062
300.056
300.05
300.045
300.039
300.034
300.029
300.025
300.02
300.015
300.011
300.007
300.002
298.663
299.044
299.396
299.721
300.019
300.292
300.54
300.766
300.969
301.151
301.313
301.456
301.582
301.691
301.785
301.863
301.929
301.981
302.022
302.053
302.073
302.084
302.087
302.082
302.07
302.053
302.029
302.001
301.968
301.931
301.891
301.849
301.803
301.756
301.707
301.656
301.605
301.553
301.5
301.447
301.395
301.342
301.29
301.238
301.187
301.137
301.088
301.04
300.992
300.947
300.902
300.858
300.816
300.776
300.736
300.698
300.662
300.626
300.592
300.56
300.529
300.499
300.47
300.443
300.417
300.392
300.368
300.346
300.324
300.304
300.285
300.266
300.249
300.232
300.217
300.202
300.188
300.175
300.162
300.15
300.139
300.129
300.119
300.109
300.1
300.092
300.083
300.076
300.068
300.061
300.055
300.048
300.042
300.036
300.03
300.024
300.019
300.013
300.008
300.003
298.421
298.871
299.287
299.67
300.023
300.345
300.638
300.904
301.144
301.359
301.551
301.72
301.869
301.998
302.108
302.201
302.278
302.341
302.389
302.425
302.449
302.462
302.465
302.459
302.446
302.425
302.397
302.363
302.325
302.281
302.234
302.184
302.13
302.074
302.016
301.956
301.896
301.834
301.772
301.71
301.647
301.585
301.523
301.462
301.402
301.343
301.285
301.228
301.172
301.118
301.065
301.014
300.964
300.916
300.87
300.825
300.781
300.74
300.7
300.661
300.624
300.589
300.555
300.523
300.492
300.463
300.435
300.408
300.383
300.359
300.336
300.315
300.294
300.275
300.256
300.239
300.222
300.206
300.192
300.178
300.164
300.152
300.14
300.129
300.118
300.108
300.098
300.089
300.081
300.072
300.064
300.057
300.049
300.042
300.035
300.029
300.022
300.016
300.009
300.003
298.179
298.698
299.178
299.62
300.026
300.398
300.736
301.043
301.319
301.567
301.788
301.984
302.155
302.304
302.431
302.538
302.627
302.699
302.755
302.796
302.824
302.839
302.843
302.836
302.82
302.796
302.764
302.725
302.681
302.631
302.576
302.518
302.456
302.392
302.325
302.256
302.186
302.115
302.043
301.972
301.9
301.828
301.757
301.686
301.617
301.549
301.482
301.416
301.352
301.289
301.228
301.169
301.112
301.056
301.003
300.951
300.901
300.853
300.807
300.763
300.72
300.679
300.641
300.603
300.568
300.534
300.502
300.471
300.442
300.414
300.388
300.363
300.339
300.317
300.295
300.275
300.256
300.238
300.221
300.205
300.19
300.175
300.162
300.149
300.136
300.125
300.114
300.103
300.093
300.083
300.074
300.065
300.057
300.049
300.041
300.033
300.026
300.018
300.011
300.004
297.938
298.525
299.069
299.569
300.03
300.45
300.834
301.181
301.494
301.775
302.026
302.247
302.441
302.609
302.753
302.875
302.976
303.057
303.12
303.167
303.198
303.215
303.22
303.212
303.194
303.167
303.131
303.087
303.036
302.98
302.918
302.852
302.782
302.709
302.633
302.555
302.476
302.396
302.314
302.233
302.151
302.07
301.99
301.91
301.831
301.754
301.678
301.604
301.531
301.46
301.391
301.324
301.259
301.197
301.136
301.077
301.021
300.966
300.914
300.864
300.816
300.77
300.725
300.683
300.643
300.605
300.568
300.534
300.5
300.469
300.439
300.411
300.384
300.359
300.335
300.312
300.29
300.27
300.25
300.232
300.215
300.198
300.183
300.168
300.154
300.141
300.129
300.117
300.105
300.095
300.084
300.074
300.065
300.055
300.046
300.038
300.029
300.021
300.012
300.004
297.697
298.353
298.96
299.519
300.033
300.503
300.931
301.319
301.669
301.983
302.262
302.509
302.726
302.914
303.075
303.211
303.323
303.414
303.485
303.537
303.572
303.591
303.596
303.588
303.567
303.537
303.496
303.447
303.391
303.328
303.259
303.185
303.107
303.025
302.941
302.854
302.765
302.675
302.585
302.494
302.403
302.312
302.222
302.133
302.045
301.959
301.874
301.791
301.71
301.631
301.554
301.479
301.407
301.336
301.268
301.203
301.14
301.079
301.021
300.965
300.911
300.859
300.81
300.763
300.718
300.675
300.635
300.596
300.559
300.524
300.491
300.459
300.429
300.401
300.374
300.348
300.324
300.301
300.28
300.259
300.24
300.222
300.204
300.188
300.172
300.158
300.144
300.13
300.118
300.106
300.094
300.083
300.072
300.062
300.052
300.042
300.032
300.023
300.014
300.005
297.456
298.181
298.851
299.469
300.036
300.555
301.028
301.457
301.843
302.19
302.498
302.771
303.01
303.218
303.396
303.546
303.67
303.77
303.848
303.906
303.944
303.966
303.971
303.962
303.94
303.906
303.861
303.807
303.745
303.675
303.599
303.517
303.431
303.341
303.248
303.152
303.054
302.955
302.854
302.754
302.654
302.553
302.454
302.356
302.259
302.163
302.07
301.978
301.888
301.801
301.716
301.633
301.553
301.476
301.401
301.329
301.259
301.192
301.127
301.065
301.006
300.949
300.895
300.843
300.793
300.746
300.701
300.658
300.617
300.578
300.542
300.507
300.474
300.442
300.413
300.384
300.358
300.333
300.309
300.286
300.265
300.245
300.226
300.208
300.19
300.174
300.159
300.144
300.13
300.117
300.104
300.091
300.08
300.068
300.057
300.046
300.036
300.025
300.015
300.005
297.216
298.009
298.743
299.419
300.04
300.608
301.125
301.594
302.017
302.396
302.734
303.032
303.294
303.521
303.716
303.88
304.016
304.126
304.211
304.274
304.316
304.339
304.345
304.335
304.311
304.274
304.225
304.166
304.098
304.021
303.938
303.849
303.754
303.656
303.554
303.449
303.342
303.233
303.123
303.014
302.904
302.794
302.685
302.578
302.472
302.367
302.265
302.164
302.066
301.971
301.878
301.787
301.7
301.615
301.533
301.454
301.377
301.304
301.233
301.166
301.101
301.039
300.979
300.922
300.868
300.816
300.767
300.72
300.675
300.633
300.593
300.555
300.518
300.484
300.451
300.421
300.392
300.364
300.338
300.313
300.29
300.268
300.247
300.227
300.208
300.191
300.174
300.158
300.142
300.128
300.114
300.1
300.087
300.075
300.063
300.051
300.039
300.028
300.017
300.006
296.977
297.838
298.635
299.369
300.043
300.66
301.222
301.731
302.19
302.602
302.968
303.293
303.577
303.823
304.035
304.213
304.361
304.48
304.573
304.641
304.687
304.712
304.718
304.708
304.681
304.641
304.588
304.524
304.45
304.367
304.276
304.179
304.077
303.97
303.859
303.745
303.629
303.511
303.392
303.272
303.153
303.034
302.916
302.799
302.684
302.571
302.459
302.35
302.244
302.14
302.039
301.941
301.846
301.754
301.665
301.579
301.496
301.416
301.339
301.266
301.195
301.128
301.063
301.001
300.943
300.886
300.833
300.782
300.733
300.687
300.644
300.602
300.563
300.526
300.49
300.457
300.425
300.395
300.367
300.34
300.315
300.291
300.268
300.247
300.226
300.207
300.189
300.171
300.154
300.139
300.123
300.109
300.095
300.081
300.068
300.055
300.043
300.03
300.018
300.006
296.739
297.668
298.527
299.319
300.047
300.712
301.318
301.867
302.363
302.807
303.202
303.552
303.859
304.125
304.353
304.545
304.705
304.833
304.933
305.007
305.056
305.084
305.09
305.079
305.05
305.007
304.95
304.88
304.8
304.711
304.614
304.509
304.398
304.283
304.163
304.04
303.915
303.787
303.659
303.53
303.402
303.273
303.146
303.02
302.896
302.773
302.653
302.536
302.421
302.309
302.2
302.094
301.991
301.892
301.796
301.703
301.614
301.528
301.445
301.366
301.29
301.217
301.147
301.08
301.017
300.956
300.898
300.844
300.791
300.742
300.694
300.65
300.607
300.567
300.529
300.493
300.459
300.426
300.396
300.367
300.34
300.314
300.289
300.266
300.244
300.223
300.203
300.185
300.167
300.149
300.133
300.117
300.102
300.087
300.073
300.059
300.046
300.033
300.02
300.006
296.502
297.498
298.42
299.27
300.05
300.764
301.414
302.003
302.535
303.011
303.436
303.811
304.14
304.425
304.67
304.876
305.047
305.185
305.293
305.372
305.425
305.454
305.461
305.449
305.418
305.371
305.31
305.236
305.15
305.054
304.95
304.837
304.719
304.595
304.466
304.334
304.2
304.063
303.926
303.787
303.649
303.512
303.375
303.24
303.106
302.975
302.846
302.72
302.597
302.477
302.36
302.246
302.136
302.03
301.927
301.827
301.731
301.639
301.55
301.465
301.383
301.305
301.231
301.159
301.091
301.026
300.964
300.905
300.849
300.796
300.745
300.697
300.651
300.608
300.567
300.529
300.492
300.457
300.425
300.394
300.364
300.337
300.31
300.285
300.262
300.239
300.218
300.198
300.179
300.16
300.143
300.126
300.11
300.094
300.079
300.064
300.049
300.035
300.021
300.007
296.265
297.329
298.313
299.22
300.054
300.816
301.51
302.139
302.706
303.215
303.668
304.069
304.42
304.725
304.986
305.206
305.389
305.536
305.651
305.735
305.792
305.823
305.831
305.817
305.785
305.735
305.669
305.59
305.498
305.396
305.284
305.165
305.038
304.905
304.768
304.628
304.484
304.338
304.191
304.044
303.896
303.749
303.603
303.459
303.317
303.177
303.039
302.904
302.773
302.644
302.52
302.398
302.281
302.167
302.057
301.951
301.848
301.75
301.655
301.564
301.477
301.394
301.314
301.238
301.165
301.095
301.029
300.966
300.906
300.849
300.795
300.744
300.696
300.649
300.606
300.564
300.525
300.488
300.453
300.42
300.389
300.359
300.331
300.305
300.28
300.256
300.233
300.211
300.191
300.171
300.152
300.134
300.117
300.1
300.084
300.068
300.053
300.037
300.022
300.007
296.029
297.16
298.207
299.171
300.057
300.867
301.605
302.274
302.877
303.418
303.9
304.326
304.699
305.023
305.3
305.535
305.729
305.885
306.007
306.097
306.157
306.19
306.199
306.184
306.15
306.097
306.027
305.943
305.845
305.737
305.618
305.49
305.356
305.215
305.069
304.92
304.767
304.612
304.456
304.299
304.142
303.986
303.831
303.677
303.526
303.377
303.231
303.088
302.948
302.811
302.679
302.55
302.425
302.304
302.187
302.074
301.965
301.86
301.76
301.663
301.57
301.482
301.397
301.316
301.238
301.164
301.094
301.027
300.963
300.903
300.846
300.791
300.739
300.69
300.644
300.6
300.559
300.519
300.482
300.447
300.414
300.382
300.352
300.324
300.297
300.272
300.248
300.225
300.203
300.182
300.162
300.143
300.124
300.107
300.089
300.072
300.056
300.04
300.024
300.008
295.795
296.993
298.101
299.122
300.06
300.918
301.7
302.408
303.047
303.62
304.13
304.581
304.977
305.32
305.614
305.862
306.068
306.233
306.362
306.457
306.521
306.556
306.565
306.55
306.513
306.457
306.383
306.294
306.191
306.076
305.95
305.815
305.672
305.523
305.369
305.21
305.049
304.885
304.719
304.553
304.387
304.221
304.057
303.895
303.734
303.577
303.422
303.27
303.122
302.978
302.837
302.7
302.568
302.44
302.316
302.196
302.081
301.97
301.864
301.761
301.663
301.569
301.479
301.393
301.311
301.233
301.159
301.088
301.02
300.956
300.896
300.838
300.783
300.731
300.682
300.636
300.592
300.55
300.51
300.473
300.438
300.405
300.373
300.343
300.315
300.288
300.262
300.238
300.215
300.193
300.172
300.151
300.132
300.113
300.094
300.077
300.059
300.042
300.025
300.008
295.561
296.825
297.995
299.073
300.064
300.969
301.794
302.542
303.216
303.821
304.36
304.836
305.253
305.615
305.926
306.188
306.405
306.58
306.716
306.816
306.884
306.921
306.93
306.914
306.875
306.816
306.738
306.644
306.535
306.413
306.281
306.138
305.988
305.83
305.667
305.5
305.329
305.156
304.981
304.806
304.631
304.456
304.283
304.111
303.942
303.775
303.612
303.452
303.296
303.143
302.995
302.851
302.711
302.575
302.445
302.318
302.197
302.08
301.967
301.859
301.756
301.656
301.561
301.471
301.384
301.302
301.223
301.148
301.077
301.01
300.945
300.884
300.827
300.772
300.72
300.671
300.624
300.58
300.539
300.5
300.462
300.427
300.394
300.362
300.332
300.304
300.277
300.251
300.227
300.203
300.181
300.16
300.139
300.119
300.1
300.081
300.062
300.044
300.027
300.009
295.328
296.659
297.89
299.025
300.067
301.02
301.888
302.675
303.385
304.021
304.588
305.089
305.528
305.91
306.236
306.512
306.74
306.925
307.068
307.173
307.244
307.283
307.293
307.276
307.236
307.173
307.091
306.992
306.878
306.749
306.61
306.46
306.301
306.136
305.964
305.788
305.608
305.426
305.242
305.058
304.873
304.69
304.507
304.327
304.148
303.973
303.801
303.633
303.468
303.308
303.152
303
302.853
302.71
302.573
302.44
302.312
302.189
302.07
301.957
301.848
301.743
301.643
301.548
301.457
301.37
301.287
301.208
301.134
301.062
300.995
300.931
300.87
300.812
300.758
300.706
300.657
300.611
300.567
300.526
300.487
300.449
300.414
300.381
300.35
300.32
300.291
300.264
300.239
300.214
300.191
300.168
300.146
300.125
300.105
300.085
300.066
300.047
300.028
300.009
295.097
296.494
297.786
298.977
300.07
301.071
301.982
302.808
303.553
304.22
304.815
305.341
305.802
306.202
306.545
306.835
307.074
307.268
307.418
307.529
307.603
307.644
307.654
307.637
307.594
307.528
307.443
307.338
307.218
307.084
306.937
306.78
306.614
306.44
306.26
306.075
305.886
305.695
305.502
305.308
305.115
304.922
304.73
304.541
304.354
304.17
303.99
303.813
303.64
303.472
303.308
303.148
302.994
302.845
302.7
302.561
302.426
302.297
302.173
302.053
301.939
301.829
301.725
301.625
301.529
301.438
301.351
301.268
301.19
301.115
301.044
300.977
300.913
300.853
300.795
300.741
300.69
300.641
300.595
300.552
300.511
300.472
300.435
300.4
300.367
300.336
300.306
300.277
300.25
300.225
300.2
300.176
300.154
300.132
300.11
300.089
300.069
300.049
300.029
300.01
294.867
296.329
297.682
298.928
300.074
301.121
302.075
302.94
303.719
304.419
305.041
305.592
306.075
306.494
306.853
307.156
307.406
307.609
307.766
307.882
307.96
308.003
308.014
307.995
307.951
307.882
307.792
307.683
307.557
307.417
307.263
307.098
306.924
306.742
306.554
306.36
306.163
305.962
305.76
305.558
305.355
305.153
304.952
304.754
304.558
304.366
304.177
303.992
303.811
303.635
303.463
303.296
303.135
302.978
302.827
302.681
302.54
302.405
302.275
302.15
302.03
301.915
301.806
301.701
301.601
301.505
301.414
301.328
301.246
301.167
301.093
301.023
300.956
300.893
300.833
300.776
300.722
300.671
300.623
300.578
300.535
300.494
300.455
300.419
300.384
300.351
300.32
300.291
300.262
300.235
300.209
300.185
300.161
300.138
300.115
300.094
300.072
300.051
300.031
300.01
294.638
296.165
297.578
298.881
300.077
301.171
302.167
303.071
303.885
304.616
305.266
305.842
306.346
306.783
307.158
307.475
307.737
307.948
308.113
308.234
308.315
308.36
308.371
308.352
308.305
308.234
308.14
308.026
307.894
307.747
307.587
307.415
307.233
307.043
306.846
306.644
306.438
306.228
306.017
305.806
305.594
305.383
305.173
304.966
304.762
304.561
304.363
304.17
303.981
303.797
303.617
303.443
303.275
303.111
302.953
302.801
302.654
302.512
302.376
302.246
302.121
302.001
301.886
301.777
301.672
301.573
301.478
301.387
301.301
301.22
301.142
301.068
300.999
300.932
300.87
300.81
300.754
300.701
300.651
300.603
300.558
300.516
300.476
300.437
300.401
300.367
300.334
300.303
300.274
300.246
300.219
300.193
300.168
300.144
300.12
300.098
300.075
300.054
300.032
300.011
294.41
296.002
297.475
298.833
300.08
301.221
302.26
303.201
304.05
304.812
305.49
306.09
306.615
307.071
307.462
307.792
308.065
308.286
308.457
308.583
308.668
308.715
308.727
308.707
308.658
308.583
308.485
308.366
308.229
308.076
307.909
307.73
307.54
307.342
307.137
306.926
306.711
306.493
306.273
306.052
305.831
305.611
305.393
305.177
304.964
304.754
304.548
304.347
304.15
303.958
303.771
303.59
303.414
303.243
303.078
302.919
302.766
302.619
302.477
302.341
302.211
302.086
301.966
301.852
301.743
301.639
301.54
301.446
301.356
301.271
301.19
301.114
301.041
300.972
300.907
300.845
300.786
300.731
300.679
300.629
300.582
300.538
300.496
300.456
300.418
300.383
300.349
300.316
300.286
300.256
300.228
300.201
300.175
300.15
300.126
300.102
300.079
300.056
300.033
300.011
294.184
295.84
297.373
298.786
300.083
301.27
302.351
303.331
304.214
305.006
305.712
306.336
306.883
307.357
307.764
308.108
308.392
308.621
308.799
308.931
309.019
309.068
309.08
309.059
309.008
308.931
308.829
308.705
308.563
308.403
308.229
308.043
307.845
307.639
307.426
307.206
306.983
306.756
306.527
306.297
306.067
305.838
305.611
305.387
305.165
304.947
304.733
304.523
304.318
304.118
303.924
303.735
303.552
303.374
303.203
303.038
302.878
302.725
302.577
302.436
302.3
302.17
302.046
301.927
301.814
301.706
301.603
301.505
301.411
301.323
301.239
301.159
301.083
301.011
300.943
300.879
300.818
300.761
300.706
300.654
300.606
300.56
300.516
300.475
300.435
300.398
300.363
300.329
300.297
300.267
300.237
300.209
300.182
300.156
300.131
300.106
300.082
300.058
300.035
300.012
293.959
295.68
297.272
298.739
300.087
301.319
302.442
303.459
304.377
305.2
305.933
306.581
307.149
307.642
308.064
308.421
308.716
308.954
309.14
309.276
309.368
309.418
309.431
309.409
309.356
309.276
309.17
309.042
308.894
308.728
308.547
308.353
308.149
307.934
307.713
307.485
307.252
307.017
306.779
306.54
306.302
306.064
305.828
305.595
305.364
305.138
304.915
304.698
304.485
304.277
304.075
303.879
303.689
303.505
303.327
303.155
302.989
302.83
302.677
302.53
302.389
302.254
302.125
302.002
301.884
301.772
301.665
301.563
301.466
301.374
301.286
301.204
301.125
301.05
300.98
300.913
300.85
300.79
300.733
300.68
300.629
300.581
300.536
300.493
300.452
300.413
300.377
300.342
300.309
300.277
300.246
300.217
300.189
300.162
300.136
300.11
300.085
300.06
300.036
300.012
293.735
295.52
297.171
298.692
300.09
301.368
302.532
303.587
304.539
305.392
306.152
306.824
307.413
307.924
308.362
308.732
309.038
309.285
309.478
309.619
309.714
309.766
309.779
309.757
309.702
309.619
309.509
309.376
309.222
309.051
308.863
308.662
308.45
308.228
307.998
307.762
307.521
307.276
307.03
306.782
306.535
306.288
306.044
305.802
305.563
305.328
305.097
304.871
304.651
304.435
304.226
304.023
303.825
303.634
303.45
303.272
303.1
302.935
302.776
302.624
302.477
302.337
302.204
302.076
301.954
301.837
301.726
301.621
301.52
301.425
301.334
301.248
301.167
301.089
301.016
300.947
300.881
300.819
300.76
300.705
300.652
300.603
300.556
300.511
300.469
300.429
300.391
300.355
300.32
300.287
300.256
300.225
300.196
300.168
300.141
300.114
300.088
300.063
300.037
300.012
293.514
295.361
297.071
298.646
300.093
301.416
302.622
303.714
304.7
305.583
306.37
307.066
307.676
308.205
308.659
309.041
309.358
309.614
309.813
309.96
310.058
310.112
310.126
310.102
310.046
309.959
309.846
309.708
309.549
309.371
309.177
308.969
308.749
308.519
308.281
308.036
307.787
307.534
307.279
307.022
306.766
306.511
306.258
306.007
305.76
305.516
305.278
305.044
304.815
304.593
304.376
304.165
303.961
303.763
303.572
303.388
303.21
303.039
302.874
302.716
302.565
302.42
302.282
302.149
302.023
301.902
301.787
301.678
301.574
301.475
301.381
301.292
301.208
301.128
301.052
300.98
300.912
300.848
300.787
300.73
300.675
300.624
300.575
300.529
300.485
300.444
300.405
300.367
300.331
300.297
300.265
300.233
300.203
300.174
300.146
300.118
300.091
300.065
300.039
300.013
293.293
295.204
296.971
298.6
300.096
301.464
302.711
303.841
304.859
305.773
306.586
307.306
307.936
308.484
308.952
309.348
309.676
309.941
310.146
310.298
310.399
310.455
310.469
310.445
310.387
310.297
310.18
310.037
309.873
309.689
309.489
309.273
309.046
308.808
308.562
308.309
308.051
307.79
307.526
307.261
306.996
306.732
306.47
306.211
305.955
305.704
305.457
305.215
304.979
304.748
304.524
304.306
304.095
303.891
303.693
303.503
303.319
303.142
302.972
302.809
302.652
302.502
302.359
302.222
302.091
301.967
301.848
301.735
301.627
301.525
301.428
301.336
301.249
301.166
301.088
301.014
300.943
300.877
300.814
300.755
300.698
300.645
300.595
300.547
300.502
300.459
300.418
300.38
300.343
300.307
300.274
300.241
300.21
300.18
300.151
300.122
300.094
300.067
300.04
300.013
293.075
295.048
296.872
298.554
300.099
301.512
302.799
303.966
305.018
305.961
306.801
307.544
308.195
308.76
309.244
309.653
309.991
310.264
310.477
310.633
310.738
310.796
310.811
310.786
310.725
310.633
310.512
310.365
310.195
310.005
309.798
309.576
309.341
309.095
308.841
308.58
308.314
308.043
307.771
307.497
307.224
306.951
306.681
306.413
306.149
305.89
305.635
305.385
305.141
304.903
304.672
304.447
304.229
304.018
303.814
303.617
303.427
303.244
303.069
302.9
302.739
302.584
302.436
302.294
302.159
302.031
301.908
301.791
301.68
301.575
301.475
301.38
301.29
301.204
301.123
301.047
300.974
300.906
300.841
300.779
300.721
300.666
300.614
300.565
300.518
300.474
300.432
300.392
300.354
300.317
300.283
300.249
300.217
300.186
300.156
300.126
300.097
300.069
300.041
300.014
292.858
294.893
296.774
298.509
300.102
301.56
302.887
304.09
305.175
306.147
307.014
307.78
308.452
309.034
309.534
309.955
310.304
310.586
310.805
310.966
311.075
311.134
311.149
311.124
311.061
310.966
310.841
310.689
310.514
310.318
310.105
309.875
309.633
309.38
309.118
308.849
308.574
308.295
308.014
307.732
307.45
307.169
306.89
306.614
306.342
306.074
305.811
305.554
305.302
305.057
304.818
304.586
304.361
304.143
303.933
303.73
303.534
303.346
303.165
302.991
302.824
302.665
302.512
302.366
302.227
302.094
301.968
301.847
301.733
301.624
301.521
301.423
301.33
301.242
301.158
301.079
301.005
300.934
300.867
300.804
300.744
300.687
300.633
300.583
300.535
300.489
300.445
300.404
300.365
300.327
300.291
300.257
300.224
300.192
300.16
300.13
300.101
300.071
300.043
300.014
292.643
294.739
296.677
298.464
300.105
301.607
302.974
304.213
305.331
306.333
307.225
308.014
308.706
309.306
309.821
310.255
310.615
310.905
311.13
311.297
311.408
311.469
311.485
311.459
311.394
311.296
311.167
311.011
310.831
310.629
310.409
310.173
309.923
309.663
309.392
309.115
308.832
308.545
308.256
307.965
307.674
307.385
307.098
306.813
306.533
306.257
305.986
305.721
305.462
305.209
304.963
304.724
304.492
304.268
304.051
303.842
303.641
303.447
303.26
303.081
302.909
302.745
302.588
302.438
302.294
302.157
302.027
301.903
301.785
301.673
301.567
301.466
301.37
301.279
301.193
301.112
301.035
300.962
300.893
300.828
300.766
300.708
300.653
300.6
300.551
300.504
300.459
300.416
300.376
300.337
300.3
300.265
300.23
300.197
300.165
300.134
300.104
300.074
300.044
300.015
292.43
294.586
296.581
298.42
300.108
301.653
303.06
304.335
305.485
306.516
307.435
308.247
308.958
309.576
310.105
310.552
310.922
311.221
311.453
311.624
311.739
311.802
311.818
311.791
311.725
311.623
311.491
311.33
311.145
310.937
310.711
310.468
310.211
309.943
309.665
309.379
309.088
308.793
308.495
308.196
307.897
307.599
307.303
307.011
306.722
306.438
306.16
305.887
305.62
305.36
305.107
304.861
304.623
304.392
304.169
303.954
303.746
303.546
303.355
303.17
302.994
302.825
302.663
302.508
302.361
302.22
302.086
301.958
301.837
301.722
301.612
301.508
301.41
301.316
301.228
301.144
301.065
300.99
300.919
300.852
300.788
300.728
300.671
300.618
300.567
300.518
300.472
300.428
300.387
300.347
300.309
300.272
300.237
300.203
300.17
300.138
300.107
300.076
300.045
300.015
292.218
294.435
296.486
298.376
300.112
301.699
303.145
304.456
305.638
306.698
307.642
308.477
309.209
309.844
310.388
310.847
311.227
311.534
311.773
311.949
312.067
312.131
312.148
312.12
312.052
311.948
311.812
311.646
311.456
311.242
311.01
310.76
310.496
310.22
309.935
309.641
309.342
309.038
308.732
308.425
308.117
307.811
307.507
307.207
306.91
306.618
306.332
306.051
305.777
305.51
305.25
304.997
304.752
304.515
304.285
304.064
303.851
303.646
303.448
303.259
303.077
302.903
302.737
302.578
302.427
302.282
302.144
302.013
301.888
301.77
301.657
301.55
301.449
301.353
301.262
301.176
301.095
301.018
300.945
300.876
300.81
300.749
300.69
300.635
300.582
300.533
300.485
300.44
300.398
300.357
300.317
300.28
300.244
300.209
300.175
300.142
300.11
300.078
300.047
300.015
292.009
294.285
296.391
298.332
300.115
301.745
303.23
304.576
305.79
306.878
307.848
308.705
309.457
310.109
310.667
311.139
311.529
311.845
312.09
312.27
312.391
312.458
312.475
312.446
312.376
312.27
312.13
311.96
311.764
311.545
311.306
311.05
310.779
310.495
310.202
309.901
309.593
309.282
308.967
308.651
308.336
308.021
307.709
307.401
307.096
306.796
306.502
306.214
305.932
305.658
305.391
305.131
304.88
304.636
304.401
304.173
303.954
303.744
303.541
303.347
303.16
302.982
302.811
302.648
302.492
302.343
302.202
302.067
301.939
301.817
301.702
301.592
301.488
301.389
301.296
301.208
301.124
301.045
300.97
300.899
300.832
300.769
300.709
300.652
300.598
300.547
300.498
300.452
300.408
300.366
300.326
300.287
300.25
300.214
300.18
300.146
300.113
300.08
300.048
300.016
291.801
294.137
296.297
298.289
300.117
301.79
303.314
304.695
305.94
307.057
308.052
308.931
309.702
310.371
310.944
311.428
311.829
312.152
312.404
312.589
312.713
312.781
312.799
312.769
312.698
312.588
312.445
312.271
312.07
311.845
311.6
311.337
311.059
310.768
310.467
310.158
309.842
309.523
309.2
308.876
308.552
308.23
307.91
307.593
307.28
306.973
306.671
306.375
306.086
305.805
305.531
305.265
305.006
304.757
304.515
304.282
304.057
303.841
303.633
303.434
303.242
303.059
302.884
302.716
302.557
302.404
302.259
302.121
301.989
301.865
301.746
301.633
301.527
301.426
301.33
301.239
301.153
301.072
300.995
300.923
300.854
300.789
300.727
300.669
300.614
300.561
300.511
300.464
300.419
300.376
300.334
300.295
300.257
300.22
300.184
300.149
300.115
300.082
300.049
300.016
291.596
293.99
296.204
298.246
300.12
301.835
303.397
304.813
306.089
307.234
308.254
309.155
309.945
310.631
311.219
311.715
312.125
312.457
312.714
312.904
313.032
313.102
313.119
313.089
313.016
312.904
312.757
312.578
312.372
312.142
311.89
311.621
311.336
311.038
310.729
310.412
310.089
309.761
309.431
309.099
308.767
308.436
308.108
307.783
307.463
307.147
306.838
306.535
306.239
305.95
305.669
305.397
305.132
304.876
304.628
304.389
304.159
303.937
303.724
303.52
303.324
303.136
302.956
302.785
302.621
302.464
302.316
302.174
302.039
301.911
301.79
301.674
301.565
301.461
301.363
301.27
301.182
301.099
301.02
300.946
300.875
300.809
300.745
300.686
300.629
300.575
300.524
300.476
300.429
300.385