/*--------------------------------*- C++ -*----------------------------------*\
| =========                 |                                                 |
| \\      /  F ield         | OpenFOAM: The Open Source CFD Toolbox           |
|  \\    /   O peration     | Version:  2406                                  |
|   \\  /    A nd           | Website:  www.openfoam.com                      |
|    \\/     M anipulation  |                                                 |
\*---------------------------------------------------------------------------*/
FoamFile
{
    version     2.0;
    format      ascii;
    arch        "LSB;label=32;scalar=64";
    class       volScalarField;
    location    "10";
    object      gradTx;
}
// * * * * * * * * * * * * * * * * * * * * * * * * * * * * * * * * * * * * * //

dimensions      [0 -1 0 1 0 0 0];

internalField   nonuniform List<scalar> 
20000
(
-2.25927
-1.94315
-1.6641
-1.41902
-1.20488
-1.01872
-0.857711
-0.71911
-0.600423
-0.49931
-0.413549
-0.34115
-0.280332
-0.229485
-0.187161
-0.152082
-0.12313
-0.099336
-0.0798641
-0.063994
-0.0511104
-0.0406908
-0.0322945
-0.0255525
-0.0201578
-0.0158556
-0.012436
-0.00972682
-0.0075872
-0.00590258
-0.00458018
-0.00354512
-0.00273725
-0.00210843
-0.00162028
-0.00124231
-0.000950396
-0.000725496
-0.000552641
-0.000420096
-0.000318693
-0.000241288
-0.000182328
-0.000137513
-0.000103521
-7.77891e-05
-5.8349e-05
-4.36906e-05
-3.26585e-05
-2.4371e-05
-1.81566e-05
-1.35049e-05
-1.0029e-05
-7.43606e-06
-5.5051e-06
-4.0694e-06
-3.00368e-06
-2.21382e-06
-1.62936e-06
-1.19751e-06
-8.78864e-07
-6.44151e-07
-4.7149e-07
-3.44647e-07
-2.5161e-07
-1.83442e-07
-1.33571e-07
-9.71556e-08
-7.05547e-08
-5.12035e-08
-3.71259e-08
-2.68563e-08
-1.94067e-08
-1.4011e-08
-1.0103e-08
-7.27196e-09
-5.26246e-09
-3.78586e-09
-2.70894e-09
-1.93179e-09
-1.39888e-09
-9.99201e-10
-7.10543e-10
-5.10703e-10
-3.77476e-10
-2.44249e-10
-1.77636e-10
-1.33227e-10
-9.99201e-11
-7.77156e-11
-7.77156e-11
-3.33067e-11
-3.33067e-11
-3.33067e-11
0
0
2.22045e-11
0
0
0
-6.77724
-5.82896
-4.99187
-4.25671
-3.61435
-3.05591
-2.57289
-2.15716
-1.80115
-1.4978
-1.24053
-1.02336
-0.840934
-0.688405
-0.561439
-0.456206
-0.369356
-0.297982
-0.239573
-0.191967
-0.15332
-0.122063
-0.0968756
-0.0766513
-0.0604681
-0.0475625
-0.0373048
-0.0291779
-0.0227596
-0.0177063
-0.0137394
-0.0106345
-0.00821108
-0.00632477
-0.00486044
-0.00372664
-0.00285096
-0.00217632
-0.00165779
-0.00126019
-0.000956009
-0.00072381
-0.000546944
-0.000412511
-0.000310541
-0.000233352
-0.000175036
-0.000131064
-9.79699e-05
-7.31091e-05
-5.4467e-05
-4.05127e-05
-3.00856e-05
-2.23073e-05
-1.65147e-05
-1.22078e-05
-9.01084e-06
-6.64135e-06
-4.88797e-06
-3.59244e-06
-2.6366e-06
-1.93244e-06
-1.41452e-06
-1.03396e-06
-7.5483e-07
-5.5036e-07
-4.00746e-07
-2.91467e-07
-2.11731e-07
-1.53599e-07
-1.11311e-07
-8.05578e-08
-5.82645e-08
-4.20775e-08
-3.03313e-08
-2.18603e-08
-1.57319e-08
-1.13021e-08
-8.11573e-09
-5.85088e-09
-4.18554e-09
-2.9865e-09
-2.13163e-09
-1.53211e-09
-1.11022e-09
-7.99361e-10
-5.44009e-10
-3.88578e-10
-2.66454e-10
-2.10942e-10
-1.66533e-10
-1.22125e-10
-5.55112e-11
-7.77156e-11
-4.44089e-11
-2.22045e-11
-1.11022e-11
0
1.11022e-11
1.11022e-11
-11.2935
-9.71332
-8.31843
-7.09336
-6.02293
-5.09234
-4.28743
-3.59469
-3.00143
-2.49592
-2.0672
-1.70532
-1.40133
-1.14716
-0.935579
-0.760215
-0.615488
-0.496553
-0.399222
-0.319894
-0.255492
-0.203406
-0.161433
-0.127731
-0.100763
-0.0792576
-0.0621641
-0.0486216
-0.0379263
-0.0295055
-0.0228952
-0.0177212
-0.0136829
-0.0105396
-0.00809941
-0.00621005
-0.00475083
-0.00362661
-0.00276255
-0.00209999
-0.0015931
-0.00120616
-0.000911431
-0.000687412
-0.00051749
-0.000388861
-0.000291683
-0.000218408
-0.00016326
-0.000121831
-9.07658e-05
-6.75121e-05
-5.01361e-05
-3.71742e-05
-2.75211e-05
-2.0344e-05
-1.50163e-05
-1.10677e-05
-8.1458e-06
-5.98681e-06
-4.39396e-06
-3.22051e-06
-2.35728e-06
-1.72313e-06
-1.25796e-06
-9.17222e-07
-6.67899e-07
-4.85767e-07
-3.52862e-07
-2.55995e-07
-1.85518e-07
-1.3427e-07
-9.70779e-08
-7.01106e-08
-5.05929e-08
-3.64375e-08
-2.62235e-08
-1.88516e-08
-1.35669e-08
-9.70335e-09
-6.9611e-09
-4.9849e-09
-3.56382e-09
-2.55351e-09
-1.82077e-09
-1.28786e-09
-9.32587e-10
-6.77236e-10
-4.44089e-10
-3.33067e-10
-2.55351e-10
-1.88738e-10
-1.33227e-10
-1.11022e-10
-4.44089e-11
-4.44089e-11
-2.22045e-11
-2.22045e-11
0
2.22045e-11
-15.807
-13.5953
-11.6429
-9.92825
-8.43002
-7.12752
-6.00092
-5.03132
-4.20098
-3.49342
-2.89335
-2.38686
-1.96139
-1.60563
-1.30949
-1.06403
-0.861466
-0.695001
-0.558774
-0.447743
-0.357603
-0.284699
-0.225951
-0.178779
-0.141034
-0.110933
-0.0870078
-0.0680532
-0.0530835
-0.0412973
-0.0320452
-0.0248035
-0.0191513
-0.0147517
-0.0113364
-0.00869194
-0.00664955
-0.00507602
-0.00386663
-0.00293927
-0.0022298
-0.00168822
-0.0012757
-0.000962152
-0.000724318
-0.000544281
-0.000408264
-0.000305703
-0.000228514
-0.000170527
-0.000127045
-9.44974e-05
-7.01763e-05
-5.20336e-05
-3.85221e-05
-2.84763e-05
-2.1019e-05
-1.54921e-05
-1.14022e-05
-8.38019e-06
-6.15059e-06
-4.50806e-06
-3.29974e-06
-2.41209e-06
-1.76096e-06
-1.28397e-06
-9.34952e-07
-6.80012e-07
-4.93983e-07
-3.58347e-07
-2.59681e-07
-1.87994e-07
-1.35914e-07
-9.81437e-08
-7.07989e-08
-5.10147e-08
-3.6704e-08
-2.64011e-08
-1.89626e-08
-1.36113e-08
-9.74776e-09
-6.9833e-09
-4.9849e-09
-3.57492e-09
-2.55351e-09
-1.79856e-09
-1.28786e-09
-9.4369e-10
-6.55032e-10
-4.66294e-10
-3.33067e-10
-2.55351e-10
-1.9984e-10
-1.11022e-10
-7.77156e-11
-5.55112e-11
-4.44089e-11
-4.44089e-11
0
1.11022e-11
-20.3167
-17.4739
-14.9645
-12.7607
-10.835
-9.16094
-7.71294
-6.46671
-5.39948
-4.49005
-3.71879
-3.06782
-2.52097
-2.06371
-1.68307
-1.36759
-1.10723
-0.893278
-0.718188
-0.575482
-0.459626
-0.365923
-0.290414
-0.229784
-0.181269
-0.14258
-0.11183
-0.0874677
-0.0682275
-0.0530789
-0.0411874
-0.0318797
-0.0246149
-0.0189603
-0.0145706
-0.0111717
-0.00854663
-0.0065242
-0.00496978
-0.00377785
-0.00286597
-0.00216988
-0.00163967
-0.00123666
-0.000930977
-0.000699575
-0.000524751
-0.000392928
-0.000293716
-0.000219185
-0.000163297
-0.000121462
-9.02016e-05
-6.6882e-05
-4.95152e-05
-3.66028e-05
-2.70176e-05
-1.99135e-05
-1.46564e-05
-1.0772e-05
-7.90614e-06
-5.79485e-06
-4.24166e-06
-3.10066e-06
-2.26363e-06
-1.6505e-06
-1.20191e-06
-8.74167e-07
-6.34992e-07
-4.60709e-07
-3.33855e-07
-2.41651e-07
-1.74727e-07
-1.26166e-07
-9.10272e-08
-6.55587e-08
-4.71956e-08
-3.39617e-08
-2.43805e-08
-1.74971e-08
-1.25344e-08
-8.9595e-09
-6.42819e-09
-4.58522e-09
-3.26406e-09
-2.33147e-09
-1.65423e-09
-1.17684e-09
-8.77076e-10
-6.21725e-10
-4.21885e-10
-2.9976e-10
-2.22045e-10
-1.66533e-10
-1.11022e-10
-6.66134e-11
-5.55112e-11
-4.44089e-11
-3.33067e-11
1.11022e-11
-24.8213
-21.3482
-18.2825
-15.59
-13.2374
-11.1921
-9.42304
-7.90051
-6.59665
-5.48558
-4.54332
-3.74801
-3.07992
-2.52127
-2.05624
-1.67081
-1.35272
-1.09133
-0.877426
-0.70308
-0.561536
-0.447056
-0.354805
-0.280731
-0.221459
-0.174193
-0.136624
-0.106861
-0.0833545
-0.0648473
-0.0503193
-0.038948
-0.0300725
-0.0231641
-0.0178012
-0.0136487
-0.0104416
-0.00797078
-0.00607171
-0.00461551
-0.00350145
-0.00265102
-0.00200325
-0.00151088
-0.00113741
-0.000854703
-0.000641116
-0.000480062
-0.000358851
-0.000267793
-0.000199512
-0.0001484
-0.000110207
-8.17161e-05
-6.04978e-05
-4.47217e-05
-3.30106e-05
-2.43309e-05
-1.79078e-05
-1.31618e-05
-9.66018e-06
-7.08057e-06
-5.1828e-06
-3.78868e-06
-2.76599e-06
-2.01678e-06
-1.46865e-06
-1.06817e-06
-7.75924e-07
-5.62983e-07
-4.07974e-07
-2.95297e-07
-2.13518e-07
-1.54188e-07
-1.11211e-07
-8.0147e-08
-5.76761e-08
-4.14779e-08
-2.97984e-08
-2.13829e-08
-1.53322e-08
-1.0969e-08
-7.82707e-09
-5.61773e-09
-4.00791e-09
-2.84217e-09
-2.02061e-09
-1.45439e-09
-1.02141e-09
-7.32747e-10
-5.44009e-10
-3.88578e-10
-2.77556e-10
-1.77636e-10
-1.33227e-10
-9.99201e-11
-5.55112e-11
-5.55112e-11
-3.33067e-11
0
-29.3198
-25.2173
-21.5959
-18.4154
-15.6364
-13.2205
-11.1308
-9.33235
-7.79219
-6.47976
-5.36673
-4.42729
-3.63811
-2.97822
-2.4289
-1.97361
-1.59788
-1.28912
-1.03645
-0.830505
-0.663308
-0.528079
-0.419108
-0.331609
-0.261595
-0.205762
-0.161385
-0.126227
-0.0984608
-0.0765996
-0.0594387
-0.0460066
-0.0355227
-0.0273623
-0.0210274
-0.0161224
-0.0123341
-0.00941541
-0.00717216
-0.00545205
-0.00413607
-0.00313151
-0.00236634
-0.00178474
-0.00134358
-0.00100963
-0.00075733
-0.000567085
-0.000423902
-0.00031634
-0.000235681
-0.000175304
-0.000130188
-9.65321e-05
-7.14672e-05
-5.28309e-05
-3.89966e-05
-2.87432e-05
-2.11554e-05
-1.55489e-05
-1.14123e-05
-8.36484e-06
-6.12295e-06
-4.47601e-06
-3.26784e-06
-2.38269e-06
-1.73512e-06
-1.26199e-06
-9.16744e-07
-6.65168e-07
-4.82026e-07
-3.48921e-07
-2.52254e-07
-1.82188e-07
-1.31406e-07
-9.46798e-08
-6.81566e-08
-4.90052e-08
-3.52163e-08
-2.52687e-08
-1.81077e-08
-1.29563e-08
-9.25926e-09
-6.62803e-09
-4.74065e-09
-3.37508e-09
-2.38698e-09
-1.70974e-09
-1.22125e-09
-8.88178e-10
-6.21725e-10
-4.55191e-10
-2.88658e-10
-2.10942e-10
-1.55431e-10
-1.33227e-10
-9.99201e-11
-5.55112e-11
-3.33067e-11
-1.11022e-11
-33.811
-29.0801
-24.904
-21.2363
-18.0317
-15.2456
-12.8359
-10.7619
-8.98581
-7.47234
-6.18881
-5.10547
-4.1954
-3.43442
-2.80095
-2.27593
-1.84265
-1.48659
-1.19521
-0.957726
-0.764916
-0.608972
-0.483308
-0.382405
-0.301665
-0.23728
-0.186105
-0.145562
-0.113543
-0.088333
-0.0685435
-0.0530539
-0.0409641
-0.0315537
-0.0242484
-0.0185921
-0.0142235
-0.0108577
-0.00827086
-0.00628726
-0.00476969
-0.00361125
-0.00272886
-0.00205817
-0.00154943
-0.00116432
-0.000873364
-0.000653973
-0.000488855
-0.000364812
-0.000271796
-0.000202169
-0.000150139
-0.000111326
-8.24206e-05
-6.09285e-05
-4.49741e-05
-3.31493e-05
-2.43986e-05
-1.79327e-05
-1.31621e-05
-9.64744e-06
-7.06188e-06
-5.16246e-06
-3.76901e-06
-2.74817e-06
-2.00131e-06
-1.45558e-06
-1.0574e-06
-7.67197e-07
-5.56011e-07
-4.02467e-07
-2.90989e-07
-2.10132e-07
-1.5159e-07
-1.09224e-07
-7.8626e-08
-5.65215e-08
-4.0612e-08
-2.91545e-08
-2.09055e-08
-1.49436e-08
-1.06914e-08
-7.62723e-09
-5.4512e-09
-3.88578e-09
-2.78666e-09
-1.9762e-09
-1.40998e-09
-9.99201e-10
-7.10543e-10
-5.44009e-10
-3.44169e-10
-2.55351e-10
-1.77636e-10
-1.33227e-10
-9.99201e-11
-7.77156e-11
-5.55112e-11
0
-38.2939
-32.9357
-28.2059
-24.052
-20.4224
-17.267
-14.5377
-12.1888
-10.1772
-8.46308
-7.00937
-5.78239
-4.75166
-3.88978
-3.17232
-2.57768
-2.08696
-1.6837
-1.35369
-1.08471
-0.866336
-0.689715
-0.547388
-0.433106
-0.341662
-0.268739
-0.210779
-0.164861
-0.128597
-0.100044
-0.0776313
-0.0600881
-0.0463954
-0.0357373
-0.0274635
-0.0210572
-0.0161094
-0.0122974
-0.00936754
-0.00712093
-0.00540215
-0.00409011
-0.00309072
-0.0023311
-0.0017549
-0.00131872
-0.000989189
-0.000740706
-0.000553691
-0.000413199
-0.000307847
-0.000228986
-0.000170056
-0.000126095
-9.33554e-05
-6.90124e-05
-5.09416e-05
-3.75481e-05
-2.76364e-05
-2.03126e-05
-1.4909e-05
-1.0928e-05
-7.99936e-06
-5.84782e-06
-4.26943e-06
-3.1131e-06
-2.26706e-06
-1.64891e-06
-1.19785e-06
-8.69138e-07
-6.29874e-07
-4.55935e-07
-3.29659e-07
-2.38065e-07
-1.7174e-07
-1.23757e-07
-8.90621e-08
-6.40599e-08
-4.60187e-08
-3.30069e-08
-2.367e-08
-1.69309e-08
-1.21236e-08
-8.64864e-09
-6.17284e-09
-4.41869e-09
-3.13083e-09
-2.22045e-09
-1.62093e-09
-1.14353e-09
-8.10463e-10
-5.77316e-10
-4.10783e-10
-2.88658e-10
-1.9984e-10
-1.55431e-10
-1.11022e-10
-7.77156e-11
-5.55112e-11
-2.22045e-11
-42.7674
-36.7832
-31.5009
-26.8617
-22.8081
-19.2841
-16.236
-13.6127
-11.3661
-9.45172
-7.8282
-6.45788
-5.30674
-4.34418
-3.54291
-2.8788
-2.33075
-1.88039
-1.51182
-1.21143
-0.967542
-0.770287
-0.611334
-0.483701
-0.381573
-0.300132
-0.235402
-0.184119
-0.143619
-0.111731
-0.0866999
-0.0671074
-0.0518152
-0.0399122
-0.0306718
-0.0235171
-0.0179913
-0.013734
-0.0104619
-0.00795286
-0.00603329
-0.00456797
-0.00345183
-0.00260346
-0.00195995
-0.00147281
-0.00110478
-0.000827262
-0.000618397
-0.000461489
-0.000343826
-0.00025575
-0.000189933
-0.000140835
-0.000104269
-7.70806e-05
-5.68976e-05
-4.19385e-05
-3.08681e-05
-2.26881e-05
-1.66527e-05
-1.22063e-05
-8.93511e-06
-6.53193e-06
-4.76897e-06
-3.47737e-06
-2.53239e-06
-1.84189e-06
-1.33807e-06
-9.70879e-07
-7.03626e-07
-5.09337e-07
-3.68272e-07
-2.65987e-07
-1.91869e-07
-1.38256e-07
-9.95093e-08
-7.15428e-08
-5.14144e-08
-3.68816e-08
-2.64233e-08
-1.89182e-08
-1.35558e-08
-9.67004e-09
-6.88338e-09
-4.91829e-09
-3.51941e-09
-2.498e-09
-1.76525e-09
-1.28786e-09
-8.99281e-10
-6.77236e-10
-4.44089e-10
-3.21965e-10
-2.44249e-10
-1.55431e-10
-1.33227e-10
-9.99201e-11
-5.55112e-11
-1.11022e-11
-47.2303
-40.6217
-34.7881
-29.6648
-25.1882
-21.2965
-17.9303
-15.0332
-12.5522
-10.438
-8.64509
-7.13178
-5.86052
-4.79751
-3.91262
-3.17921
-2.57397
-2.07661
-1.66959
-1.33784
-1.06851
-0.85067
-0.675128
-0.534176
-0.421391
-0.331451
-0.259966
-0.203332
-0.158605
-0.12339
-0.0957471
-0.0741102
-0.0572223
-0.0440771
-0.0338726
-0.0259713
-0.0198688
-0.0151673
-0.0115537
-0.00878284
-0.00666295
-0.00504472
-0.0038121
-0.00287519
-0.00216452
-0.00162654
-0.0012201
-0.000913619
-0.000682954
-0.000509668
-0.000379724
-0.000282453
-0.000209766
-0.000155542
-0.000115158
-8.5131e-05
-6.28406e-05
-4.63193e-05
-3.40928e-05
-2.50585e-05
-1.83928e-05
-1.34818e-05
-9.86892e-06
-7.21465e-06
-5.26748e-06
-3.84091e-06
-2.79718e-06
-2.03454e-06
-1.47801e-06
-1.07243e-06
-7.77234e-07
-5.62639e-07
-4.06819e-07
-2.93809e-07
-2.11953e-07
-1.52722e-07
-1.09945e-07
-7.90479e-08
-5.67879e-08
-4.07341e-08
-2.91989e-08
-2.08944e-08
-1.49769e-08
-1.06803e-08
-7.62723e-09
-5.44009e-09
-3.85247e-09
-2.77556e-09
-1.9762e-09
-1.40998e-09
-9.99201e-10
-7.21645e-10
-4.996e-10
-3.44169e-10
-2.55351e-10
-1.66533e-10
-1.55431e-10
-1.11022e-10
-7.77156e-11
-2.22045e-11
-51.6816
-44.4501
-38.0667
-32.4606
-27.5621
-23.3036
-19.6201
-16.45
-13.7352
-11.4218
-9.45985
-7.80392
-6.41285
-5.24966
-4.28136
-3.47884
-2.81656
-2.27232
-1.82694
-1.46393
-1.16921
-0.930842
-0.738756
-0.584519
-0.461104
-0.362688
-0.284466
-0.222495
-0.173553
-0.135019
-0.104771
-0.0810946
-0.0626152
-0.0482312
-0.037065
-0.028419
-0.0217415
-0.0165968
-0.0126427
-0.00961066
-0.00729098
-0.00552023
-0.00417144
-0.00314622
-0.00236857
-0.00177988
-0.00133513
-0.000999756
-0.000747347
-0.000557725
-0.000415531
-0.000309089
-0.000229549
-0.000170212
-0.00012602
-9.31615e-05
-6.87689e-05
-5.06895e-05
-3.73098e-05
-2.74232e-05
-2.01286e-05
-1.47543e-05
-1.08005e-05
-7.89583e-06
-5.76483e-06
-4.20359e-06
-3.06136e-06
-2.22672e-06
-1.61762e-06
-1.17377e-06
-8.50686e-07
-6.15819e-07
-4.45288e-07
-3.21576e-07
-2.31992e-07
-1.67177e-07
-1.20348e-07
-8.65419e-08
-6.21614e-08
-4.45866e-08
-3.19522e-08
-2.28928e-08
-1.63647e-08
-1.17018e-08
-8.33777e-09
-5.9619e-09
-4.24105e-09
-3.01981e-09
-2.17604e-09
-1.54321e-09
-1.11022e-09
-7.77156e-10
-5.21805e-10
-3.66374e-10
-2.88658e-10
-1.88738e-10
-1.44329e-10
-1.22125e-10
-9.99201e-11
-4.44089e-11
-56.1201
-48.2676
-41.336
-35.2484
-29.9292
-25.3049
-21.3052
-17.8628
-14.9148
-12.4027
-10.2723
-8.47414
-6.9636
-5.70051
-4.64905
-3.77761
-3.05845
-2.46747
-1.98385
-1.58966
-1.26963
-1.01078
-0.802201
-0.634718
-0.500704
-0.393835
-0.308895
-0.241602
-0.188457
-0.146615
-0.113768
-0.0880591
-0.0679927
-0.0523734
-0.0402482
-0.0308598
-0.0236088
-0.0180223
-0.0137286
-0.0104361
-0.00791722
-0.00599439
-0.00452975
-0.00341649
-0.00257204
-0.00193279
-0.00144983
-0.00108565
-0.000811559
-0.000605648
-0.000451238
-0.000335651
-0.000249277
-0.000184841
-0.000136852
-0.00010117
-7.46812e-05
-5.50478e-05
-4.0518e-05
-2.97816e-05
-2.18599e-05
-1.60235e-05
-1.17297e-05
-8.57517e-06
-6.26091e-06
-4.56539e-06
-3.32486e-06
-2.41838e-06
-1.75694e-06
-1.27487e-06
-9.23972e-07
-6.68854e-07
-4.83635e-07
-3.49287e-07
-2.51976e-07
-1.81588e-07
-1.30729e-07
-9.40026e-08
-6.75127e-08
-4.8439e-08
-3.47278e-08
-2.48579e-08
-1.77858e-08
-1.2701e-08
-9.08162e-09
-6.4615e-09
-4.61853e-09
-3.28626e-09
-2.33147e-09
-1.68754e-09
-1.19904e-09
-8.54872e-10
-5.77316e-10
-4.21885e-10
-2.9976e-10
-2.10942e-10
-1.44329e-10
-1.22125e-10
-9.99201e-11
-6.66134e-11
-60.5447
-52.0731
-44.595
-38.0275
-32.2889
-27.3001
-22.9849
-19.2711
-16.0907
-13.3806
-11.0822
-9.14226
-7.51262
-6.14995
-5.0156
-4.07544
-3.29958
-2.66202
-2.14026
-1.71499
-1.36973
-1.09048
-0.865448
-0.68476
-0.54018
-0.424886
-0.333249
-0.26065
-0.203315
-0.158174
-0.122738
-0.0950018
-0.0733534
-0.0565027
-0.0434216
-0.0332929
-0.0254702
-0.0194433
-0.0148111
-0.011259
-0.00854152
-0.00646708
-0.00488696
-0.00368591
-0.00277488
-0.00208522
-0.00156418
-0.00117128
-0.000875575
-0.000653425
-0.000486836
-0.000362133
-0.000268945
-0.000199427
-0.000147652
-0.000109155
-8.05758e-05
-5.93932e-05
-4.37168e-05
-3.2133e-05
-2.35861e-05
-1.7289e-05
-1.26561e-05
-9.25258e-06
-6.75558e-06
-4.92613e-06
-3.58762e-06
-2.60958e-06
-1.89584e-06
-1.37566e-06
-9.97025e-07
-7.21756e-07
-5.21883e-07
-3.76943e-07
-2.71927e-07
-1.95954e-07
-1.41065e-07
-1.01441e-07
-7.28972e-08
-5.22804e-08
-3.74589e-08
-2.6823e-08
-1.91847e-08
-1.37113e-08
-9.81437e-09
-6.99441e-09
-4.95159e-09
-3.56382e-09
-2.52021e-09
-1.79856e-09
-1.27676e-09
-9.10383e-10
-6.55032e-10
-4.55191e-10
-3.10862e-10
-2.44249e-10
-1.55431e-10
-1.33227e-10
-1.22125e-10
-6.66134e-11
-64.9544
-55.8658
-47.8431
-40.7972
-34.6406
-29.2884
-24.659
-20.6747
-17.2627
-14.3551
-11.8893
-9.80813
-8.0598
-6.59787
-5.3809
-4.37227
-3.53991
-2.8559
-2.29614
-1.8399
-1.46949
-1.1699
-0.928482
-0.734633
-0.579523
-0.455831
-0.35752
-0.279634
-0.218123
-0.169694
-0.131677
-0.101921
-0.078696
-0.0606181
-0.0465842
-0.0357179
-0.0273254
-0.0208595
-0.0158899
-0.0120792
-0.00916372
-0.00693819
-0.00524297
-0.00395444
-0.00297704
-0.00223715
-0.00167815
-0.00125663
-0.000939378
-0.000701043
-0.000522317
-0.000388527
-0.000288549
-0.000213965
-0.000158417
-0.000117113
-8.64512e-05
-6.37245e-05
-4.69053e-05
-3.44769e-05
-2.53067e-05
-1.85504e-05
-1.35797e-05
-9.92787e-06
-7.24867e-06
-5.28575e-06
-3.84955e-06
-2.80015e-06
-2.03431e-06
-1.47615e-06
-1.06988e-06
-7.74492e-07
-5.60019e-07
-4.04488e-07
-2.91822e-07
-2.1031e-07
-1.5139e-07
-1.08835e-07
-7.82041e-08
-5.61329e-08
-4.02234e-08
-2.87881e-08
-2.05835e-08
-1.47216e-08
-1.05138e-08
-7.49401e-09
-5.35127e-09
-3.80806e-09
-2.69784e-09
-1.94289e-09
-1.37668e-09
-9.65894e-10
-6.77236e-10
-4.88498e-10
-3.55271e-10
-2.44249e-10
-1.9984e-10
-1.33227e-10
-9.99201e-11
-9.99201e-11
-69.3481
-59.6447
-51.0793
-43.5568
-36.9838
-31.2696
-26.327
-22.0732
-18.4304
-15.3261
-12.6936
-10.4716
-8.60499
-7.04417
-5.74488
-4.66802
-3.77936
-3.04909
-2.45146
-1.96436
-1.56889
-1.24904
-0.991287
-0.784325
-0.618722
-0.486664
-0.381703
-0.298549
-0.232877
-0.181172
-0.140584
-0.108815
-0.0840192
-0.0647185
-0.0497353
-0.038134
-0.0291739
-0.0222706
-0.0169648
-0.0128963
-0.00978367
-0.00740759
-0.0055977
-0.00422199
-0.00317848
-0.00238853
-0.00179171
-0.00134167
-0.00100295
-0.000748491
-0.00055767
-0.000414827
-0.000308083
-0.000228451
-0.000169143
-0.000125044
-9.2306e-05
-6.80406e-05
-5.00826e-05
-3.68126e-05
-2.70214e-05
-1.98075e-05
-1.45e-05
-1.06008e-05
-7.74011e-06
-5.64415e-06
-4.11063e-06
-2.99006e-06
-2.1723e-06
-1.57632e-06
-1.14249e-06
-8.27083e-07
-5.98044e-07
-4.31954e-07
-3.1164e-07
-2.24576e-07
-1.61671e-07
-1.16274e-07
-8.34999e-08
-5.99298e-08
-4.29545e-08
-3.07532e-08
-2.20046e-08
-1.57208e-08
-1.12355e-08
-8.00471e-09
-5.68434e-09
-4.07452e-09
-2.89768e-09
-2.06501e-09
-1.46549e-09
-1.04361e-09
-7.21645e-10
-4.996e-10
-3.66374e-10
-2.77556e-10
-1.9984e-10
-1.66533e-10
-1.33227e-10
-8.88178e-11
-73.7247
-63.4089
-54.3029
-46.3057
-39.3179
-33.243
-27.9885
-23.4662
-19.5935
-16.2934
-13.4946
-11.1324
-9.14805
-7.48873
-6.10744
-4.96262
-4.01787
-3.24152
-2.60618
-2.08833
-1.66791
-1.32786
-1.05385
-0.833823
-0.657769
-0.517376
-0.405792
-0.31739
-0.247574
-0.192606
-0.149456
-0.115683
-0.0893217
-0.068803
-0.0528742
-0.0405408
-0.0310152
-0.0236763
-0.0180356
-0.0137103
-0.0104012
-0.00787517
-0.00595105
-0.00448851
-0.00337913
-0.00253932
-0.00190483
-0.00142638
-0.00106628
-0.000795756
-0.000592888
-0.000441026
-0.000327542
-0.000242882
-0.000179828
-0.000132944
-9.81386e-05
-7.23404e-05
-5.32479e-05
-3.91396e-05
-2.87296e-05
-2.10598e-05
-1.5417e-05
-1.12713e-05
-8.22971e-06
-6.00122e-06
-4.37074e-06
-3.1793e-06
-2.3098e-06
-1.6761e-06
-1.21485e-06
-8.79463e-07
-6.35902e-07
-4.59344e-07
-3.31402e-07
-2.38831e-07
-1.71918e-07
-1.23634e-07
-8.88067e-08
-6.37157e-08
-4.56857e-08
-3.27072e-08
-2.34035e-08
-1.672e-08
-1.19238e-08
-8.51541e-09
-6.05072e-09
-4.32987e-09
-3.08642e-09
-2.18714e-09
-1.53211e-09
-1.11022e-09
-7.99361e-10
-5.66214e-10
-3.77476e-10
-2.77556e-10
-2.10942e-10
-1.66533e-10
-1.55431e-10
-8.88178e-11
-78.0831
-67.1574
-57.5131
-49.0431
-41.6422
-35.2082
-29.6431
-24.8535
-20.7518
-17.2566
-14.2924
-11.7906
-9.68886
-7.93144
-6.46849
-5.256
-4.2554
-3.43315
-2.76025
-2.21179
-1.76651
-1.40636
-1.11615
-0.883115
-0.696654
-0.547961
-0.42978
-0.336152
-0.26221
-0.203992
-0.158292
-0.122521
-0.0946022
-0.0728705
-0.0560001
-0.0429375
-0.0328488
-0.025076
-0.0191019
-0.0145209
-0.0110162
-0.00834081
-0.00630293
-0.00475393
-0.00357896
-0.00268949
-0.00201748
-0.00151074
-0.00112935
-0.000842827
-0.000627962
-0.000467118
-0.000346922
-0.000257253
-0.00019047
-0.000140812
-0.000103947
-7.66228e-05
-5.64004e-05
-4.14571e-05
-3.0431e-05
-2.23072e-05
-1.63302e-05
-1.1939e-05
-8.71736e-06
-6.3569e-06
-4.62982e-06
-3.36778e-06
-2.44677e-06
-1.7755e-06
-1.28689e-06
-9.31633e-07
-6.73672e-07
-4.86611e-07
-3.51064e-07
-2.52975e-07
-1.82132e-07
-1.31006e-07
-9.41025e-08
-6.75127e-08
-4.83835e-08
-3.46501e-08
-2.47913e-08
-1.77192e-08
-1.26454e-08
-9.00391e-09
-6.41709e-09
-4.60743e-09
-3.25295e-09
-2.32037e-09
-1.64313e-09
-1.15463e-09
-8.43769e-10
-5.88418e-10
-4.10783e-10
-3.10862e-10
-2.22045e-10
-1.77636e-10
-1.33227e-10
-1.11022e-10
-82.4222
-70.8894
-60.7092
-51.7685
-43.9563
-37.1648
-31.2904
-26.2346
-21.905
-18.2155
-15.0866
-12.4458
-10.2273
-8.3722
-6.82795
-5.54808
-4.49187
-3.62393
-2.91364
-2.3347
-1.86468
-1.48452
-1.17817
-0.93219
-0.735366
-0.578411
-0.453663
-0.354832
-0.27678
-0.215328
-0.167088
-0.12933
-0.0998593
-0.07692
-0.0591121
-0.0453237
-0.0346743
-0.0264696
-0.0201635
-0.015328
-0.0116285
-0.0088044
-0.00665327
-0.00501818
-0.0037779
-0.002839
-0.00212964
-0.00159474
-0.00119214
-0.000889692
-0.000662882
-0.000493096
-0.000366217
-0.000271563
-0.000201066
-0.000148646
-0.000109731
-8.08866e-05
-5.95394e-05
-4.37646e-05
-3.2125e-05
-2.35491e-05
-1.72396e-05
-1.2604e-05
-9.20295e-06
-6.71108e-06
-4.88779e-06
-3.55547e-06
-2.58316e-06
-1.87449e-06
-1.35864e-06
-9.83602e-07
-7.11264e-07
-5.13756e-07
-3.7067e-07
-2.67109e-07
-1.92302e-07
-1.383e-07
-9.9365e-08
-7.12652e-08
-5.10925e-08
-3.66041e-08
-2.61791e-08
-1.87073e-08
-1.33449e-08
-9.52571e-09
-6.79456e-09
-4.82947e-09
-3.41949e-09
-2.4758e-09
-1.73195e-09
-1.24345e-09
-8.54872e-10
-6.32827e-10
-4.55191e-10
-2.9976e-10
-2.22045e-10
-1.88738e-10
-1.44329e-10
-1.22125e-10
-86.741
-74.6039
-63.8902
-54.4811
-46.2596
-39.1122
-32.9299
-27.6093
-23.0528
-19.17
-15.8772
-13.0979
-10.7632
-8.81089
-7.18573
-5.83879
-4.72724
-3.81382
-3.06631
-2.45704
-1.96238
-1.5623
-1.2399
-0.981034
-0.773898
-0.608718
-0.477433
-0.373424
-0.291283
-0.22661
-0.175843
-0.136107
-0.105092
-0.0809505
-0.0622096
-0.0476987
-0.0364913
-0.0278567
-0.0212202
-0.0161312
-0.0122379
-0.00926583
-0.00700197
-0.00528119
-0.00397592
-0.00298781
-0.00224128
-0.00167834
-0.00125464
-0.000936339
-0.00069764
-0.000518953
-0.000385422
-0.000285805
-0.000211612
-0.000156444
-0.000115488
-8.51307e-05
-6.26638e-05
-4.60616e-05
-3.38113e-05
-2.47854e-05
-1.81448e-05
-1.32659e-05
-9.68632e-06
-7.06363e-06
-5.1446e-06
-3.74231e-06
-2.71893e-06
-1.97307e-06
-1.43008e-06
-1.03531e-06
-7.48679e-07
-5.40779e-07
-3.90188e-07
-2.81208e-07
-2.02416e-07
-1.45561e-07
-1.04583e-07
-7.50622e-08
-5.37792e-08
-3.85025e-08
-2.75779e-08
-1.96732e-08
-1.40554e-08
-1.00364e-08
-7.12763e-09
-5.10703e-09
-3.61933e-09
-2.59792e-09
-1.83187e-09
-1.26565e-09
-8.99281e-10
-6.77236e-10
-4.77396e-10
-3.33067e-10
-2.33147e-10
-1.9984e-10
-1.44329e-10
-1.22125e-10
-91.0384
-78.3
-67.0555
-57.1802
-48.5514
-41.0499
-34.5614
-28.9771
-24.1949
-20.1197
-16.6638
-13.7468
-11.2964
-9.2474
-7.54173
-6.12806
-4.96144
-4.00276
-3.21822
-2.57877
-2.05961
-1.6397
-1.30133
-1.02964
-0.812238
-0.638875
-0.501086
-0.391924
-0.305714
-0.237837
-0.184555
-0.14285
-0.110298
-0.0849611
-0.0652917
-0.0500619
-0.0382993
-0.0292369
-0.0222716
-0.0169305
-0.0128443
-0.00972497
-0.00734894
-0.00554291
-0.00417296
-0.00313589
-0.00235236
-0.00176153
-0.00131684
-0.000982756
-0.000732226
-0.000544683
-0.000404534
-0.000299979
-0.000222107
-0.000164204
-0.000121217
-8.93542e-05
-6.5773e-05
-4.83473e-05
-3.54894e-05
-2.60157e-05
-1.90456e-05
-1.39246e-05
-1.01673e-05
-7.41448e-06
-5.40021e-06
-3.92826e-06
-2.85404e-06
-2.07112e-06
-1.50117e-06
-1.0868e-06
-7.85938e-07
-5.67701e-07
-4.09583e-07
-2.95164e-07
-2.12508e-07
-1.52844e-07
-1.09801e-07
-7.87814e-08
-5.64437e-08
-4.04343e-08
-2.89324e-08
-2.06613e-08
-1.47438e-08
-1.0536e-08
-7.49401e-09
-5.36238e-09
-3.79696e-09
-2.69784e-09
-1.93179e-09
-1.35447e-09
-9.54792e-10
-6.88338e-10
-4.996e-10
-3.44169e-10
-2.55351e-10
-2.10942e-10
-1.44329e-10
-1.33227e-10
-95.3133
-81.9767
-70.2043
-59.8652
-50.8312
-42.9775
-36.1843
-30.3378
-25.331
-21.0645
-17.4462
-14.3923
-11.8269
-9.68164
-7.89586
-6.41581
-5.19441
-4.19072
-3.36934
-2.69986
-2.15632
-1.7167
-1.36244
-1.07799
-0.850378
-0.668874
-0.524615
-0.410327
-0.320069
-0.249005
-0.193221
-0.149558
-0.115478
-0.0889508
-0.0683578
-0.0524128
-0.0400979
-0.0306099
-0.0233175
-0.0177256
-0.0134475
-0.0101817
-0.00769411
-0.00580326
-0.00436897
-0.0032832
-0.00246287
-0.00184428
-0.0013787
-0.00102893
-0.000766633
-0.00057028
-0.000423546
-0.000314078
-0.000232548
-0.000171923
-0.000126916
-9.35559e-05
-6.88662e-05
-5.06213e-05
-3.71588e-05
-2.72397e-05
-1.99417e-05
-1.45799e-05
-1.0646e-05
-7.76355e-06
-5.65448e-06
-4.11324e-06
-2.98849e-06
-2.16872e-06
-1.57193e-06
-1.138e-06
-8.22953e-07
-5.94458e-07
-4.28901e-07
-3.0913e-07
-2.22544e-07
-1.60039e-07
-1.14975e-07
-8.25007e-08
-5.91194e-08
-4.23328e-08
-3.0298e-08
-2.16493e-08
-1.54543e-08
-1.10245e-08
-7.83817e-09
-5.59552e-09
-3.9857e-09
-2.83107e-09
-1.9984e-09
-1.44329e-09
-1.0103e-09
-7.10543e-10
-5.32907e-10
-3.55271e-10
-2.66454e-10
-1.9984e-10
-1.77636e-10
-1.33227e-10
-99.5647
-85.6333
-73.3357
-62.5355
-53.0985
-44.8945
-37.7983
-31.691
-26.4609
-22.0041
-18.2244
-15.0343
-12.3544
-10.1135
-8.24805
-6.70199
-5.42611
-4.37765
-3.51963
-2.82029
-2.2525
-1.79327
-1.42321
-1.12607
-0.888308
-0.698709
-0.548015
-0.428629
-0.334345
-0.260112
-0.201839
-0.156228
-0.120629
-0.0929184
-0.0714069
-0.0547508
-0.0418865
-0.0319754
-0.0243577
-0.0185164
-0.0140474
-0.010636
-0.00803738
-0.00606218
-0.00456391
-0.0034297
-0.00257277
-0.00192659
-0.00144023
-0.00107485
-0.000800852
-0.000595736
-0.000442454
-0.000328101
-0.000242931
-0.000179601
-0.000132584
-9.77346e-05
-7.19426e-05
-5.28829e-05
-3.88192e-05
-2.84571e-05
-2.08331e-05
-1.52316e-05
-1.11219e-05
-8.11072e-06
-5.90739e-06
-4.29727e-06
-3.12222e-06
-2.26573e-06
-1.64229e-06
-1.18898e-06
-8.5979e-07
-6.21059e-07
-4.48119e-07
-3.22975e-07
-2.32514e-07
-1.67222e-07
-1.20148e-07
-8.62088e-08
-6.17728e-08
-4.42091e-08
-3.16525e-08
-2.26263e-08
-1.61537e-08
-1.15241e-08
-8.20455e-09
-5.83977e-09
-4.16334e-09
-2.94209e-09
-2.08722e-09
-1.5099e-09
-1.04361e-09
-7.43849e-10
-5.44009e-10
-4.10783e-10
-2.77556e-10
-1.88738e-10
-1.88738e-10
-1.44329e-10
-103.792
-89.2687
-76.449
-65.1903
-55.3527
-46.8004
-39.4029
-33.0364
-27.5843
-22.9382
-18.9981
-15.6725
-12.8789
-10.5428
-8.59821
-6.98651
-5.65646
-4.56349
-3.66905
-2.94002
-2.34813
-1.8694
-1.48363
-1.17387
-0.926019
-0.72837
-0.571279
-0.446826
-0.348539
-0.271154
-0.210408
-0.162861
-0.12575
-0.0968632
-0.0744385
-0.0570752
-0.0436649
-0.033333
-0.0253919
-0.0193026
-0.0146439
-0.0110876
-0.00837867
-0.00631961
-0.00475772
-0.00357535
-0.00268204
-0.00200841
-0.00150141
-0.00112051
-0.000834874
-0.000621046
-0.000461253
-0.000342043
-0.000253255
-0.000187234
-0.00013822
-0.000101889
-7.50014e-05
-5.51316e-05
-4.04701e-05
-2.96675e-05
-2.17194e-05
-1.58797e-05
-1.15952e-05
-8.45592e-06
-6.15886e-06
-4.48024e-06
-3.25516e-06
-2.36225e-06
-1.71223e-06
-1.23965e-06
-8.96472e-07
-6.47526e-07
-4.67215e-07
-3.36764e-07
-2.42439e-07
-1.74338e-07
-1.25266e-07
-8.98837e-08
-6.4404e-08
-4.61187e-08
-3.29958e-08
-2.35811e-08
-1.68643e-08
-1.20237e-08
-8.53762e-09
-6.08402e-09
-4.35207e-09
-3.07532e-09
-2.17604e-09
-1.55431e-09
-1.12133e-09
-7.77156e-10
-5.55112e-10
-3.9968e-10
-2.77556e-10
-2.10942e-10
-1.9984e-10
-1.55431e-10
-107.993
-92.8821
-79.5435
-67.8291
-57.5933
-48.6947
-40.9979
-34.3736
-28.7008
-23.8667
-19.7671
-16.3069
-13.4002
-10.9696
-8.94624
-7.2693
-5.88542
-4.74821
-3.81756
-3.05902
-2.44317
-1.94507
-1.54368
-1.22139
-0.963501
-0.757853
-0.594403
-0.464912
-0.362647
-0.28213
-0.218925
-0.169453
-0.13084
-0.100784
-0.0774517
-0.0593856
-0.0454324
-0.0346823
-0.0264198
-0.020084
-0.0152367
-0.0115365
-0.00871789
-0.00657548
-0.00495036
-0.00372012
-0.00279064
-0.00208975
-0.00156222
-0.0011659
-0.00086869
-0.000646204
-0.000479939
-0.0003559
-0.000263517
-0.000194821
-0.000143822
-0.000106019
-7.80417e-05
-5.73669e-05
-4.21111e-05
-3.08706e-05
-2.26003e-05
-1.65239e-05
-1.20657e-05
-8.79908e-06
-6.40881e-06
-4.66212e-06
-3.38735e-06
-2.45818e-06
-1.78179e-06
-1.29e-06
-9.32887e-07
-6.73861e-07
-4.86233e-07
-3.50431e-07
-2.52298e-07
-1.81444e-07
-1.30351e-07
-9.35363e-08
-6.70464e-08
-4.80282e-08
-3.43503e-08
-2.45248e-08
-1.75082e-08
-1.25122e-08
-8.90399e-09
-6.32827e-09
-4.52971e-09
-3.21965e-09
-2.26485e-09
-1.60982e-09
-1.14353e-09
-8.10463e-10
-5.77316e-10
-4.10783e-10
-3.10862e-10
-2.22045e-10
-2.10942e-10
-1.44329e-10
-112.167
-96.4725
-82.6184
-70.4511
-59.8196
-50.5771
-42.5827
-35.7024
-29.8103
-24.7893
-20.5312
-16.9373
-13.9182
-11.3936
-9.29207
-7.55031
-6.11293
-4.93176
-3.96514
-3.17727
-2.53762
-2.02026
-1.60335
-1.2686
-1.00075
-0.787148
-0.61738
-0.482883
-0.376665
-0.293036
-0.227387
-0.176004
-0.135898
-0.10468
-0.0804458
-0.0616813