/*--------------------------------*- C++ -*----------------------------------*\
| =========                 |                                                 |
| \\      /  F ield         | OpenFOAM: The Open Source CFD Toolbox           |
|  \\    /   O peration     | Version:  2406                                  |
|   \\  /    A nd           | Website:  www.openfoam.com                      |
|    \\/     M anipulation  |                                                 |
\*---------------------------------------------------------------------------*/
FoamFile
{
    version     2.0;
    format      ascii;
    arch        "LSB;label=32;scalar=64";
    class       volScalarField;
    location    "135";
    object      gradTy;
}
// * * * * * * * * * * * * * * * * * * * * * * * * * * * * * * * * * * * * * //

dimensions      [0 -1 0 1 0 0 0];

internalField   nonuniform List<scalar> 
20000
(
-36.0496
-22.9416
-10.6909
0.730524
11.3532
21.2059
30.3189
38.7222
46.4439
53.5139
59.9615
65.8148
71.1017
75.8499
80.0864
83.8378
87.1298
89.9875
92.4356
94.4977
96.197
97.5559
98.596
99.3381
99.8023
100.008
99.9737
99.7172
99.2557
98.6054
97.782
96.8005
95.6748
94.4186
93.0447
91.5652
89.9916
88.3347
86.6047
84.8114
82.9638
81.0704
79.1391
77.1774
75.1922
73.19
71.1768
69.158
67.1389
65.124
63.1178
61.1241
59.1465
57.1883
55.2524
53.3414
51.4576
49.6031
47.7796
45.9888
44.2318
42.5099
40.8239
39.1745
37.5623
35.9875
34.4504
32.951
31.4892
30.0648
28.6776
27.3269
26.0123
24.7332
23.4887
22.2781
21.1006
19.9551
18.8406
17.7561
16.7005
15.6725
14.671
13.6948
12.7424
11.8127
10.9042
10.0156
9.14555
8.29256
7.45523
6.6321
5.82171
5.0226
4.23328
3.45226
2.67803
1.90909
1.14394
0.381061
-36.0406
-22.9361
-10.6885
0.730304
11.3502
21.2009
30.3116
38.7124
46.4324
53.5009
59.9468
65.7985
71.0841
75.8311
80.0667
83.8171
87.1083
89.9653
92.4128
94.4744
96.1733
97.5319
98.5717
99.3136
99.7777
99.9833
99.949
99.6926
99.2312
98.5811
97.7579
96.7766
95.6512
94.3954
93.0218
91.5426
89.9694
88.3129
86.5834
84.7905
82.9434
81.0504
79.1196
77.1584
75.1737
73.172
71.1592
69.141
67.1223
65.108
63.1022
61.109
59.1319
57.1742
55.2388
53.3282
51.4449
49.5908
47.7678
45.9774
44.2209
42.4994
40.8138
39.1649
37.553
35.9786
34.4419
32.9428
31.4814
30.0574
28.6705
27.3202
26.0059
24.7271
23.4829
22.2726
21.0954
19.9502
18.836
17.7518
16.6964
15.6687
14.6674
13.6914
12.7393
11.8098
10.9015
10.0132
9.1433
8.29052
7.45339
6.63046
5.82028
5.02136
4.23224
3.4514
2.67737
1.90862
1.14366
0.380967
-36.0225
-22.9245
-10.6834
0.729969
11.3445
21.1904
30.2966
38.6932
46.4095
53.4745
59.9172
65.766
71.049
75.7937
80.0272
83.7757
87.0653
89.9209
92.3671
94.4278
96.1258
97.4837
98.5231
99.2646
99.7285
99.934
99.8997
99.6434
99.1822
98.5324
97.7097
96.7288
95.604
94.3488
92.9759
91.4974
89.925
88.2693
86.5406
84.7487
82.9024
81.0104
79.0805
77.1203
75.1366
73.1359
71.1241
69.1068
67.0892
65.0758
63.0711
61.0788
59.1027
57.146
55.2115
53.3019
51.4195
49.5664
47.7443
45.9547
44.1991
42.4785
40.7937
39.1455
37.5345
35.9608
34.4249
32.9266
31.4659
30.0426
28.6563
27.3067
25.9931
24.7149
23.4713
22.2617
21.085
19.9403
18.8267
17.743
16.6881
15.6609
14.6602
13.6846
12.733
11.8039
10.8961
10.0082
9.13878
8.28642
7.44971
6.62719
5.81741
5.01889
4.23015
3.4497
2.67605
1.90768
1.14309
0.380779
-35.996
-22.9071
-10.6754
0.729473
11.3362
21.1746
30.2742
38.6646
46.3751
53.4349
59.8728
65.7173
70.9964
75.7376
79.9679
83.7137
87.0008
89.8543
92.2987
94.3578
96.0547
97.4116
98.4501
99.1911
99.6546
99.86
99.8257
99.5696
99.1088
98.4595
97.6373
96.6572
95.5332
94.2789
92.907
91.4297
89.8584
88.2039
86.4766
84.6859
82.841
80.9504
79.022
77.0632
75.081
73.0817
71.0714
69.0557
67.0395
65.0276
63.0244
61.0336
59.059
57.1037
55.1706
53.2624
51.3814
49.5297
47.7089
45.9207
44.1664
42.447
40.7635
39.1165
37.5067
35.9342
34.3994
32.9022
31.4426
30.0203
28.6351
27.2864
25.9738
24.6965
23.4539
22.2452
21.0694
19.9256
18.8127
17.7299
16.6758
15.6493
14.6493
13.6745
12.7236
11.7952
10.8881
10.0008
9.13202
8.28029
7.44419
6.62228
5.8131
5.01517
4.22702
3.44715
2.67406
1.90627
1.14225
0.380497
-35.9609
-22.8846
-10.6647
0.728745
11.325
21.1537
30.2443
38.6264
46.3293
53.3821
59.8137
65.6524
70.9263
75.6628
79.8889
83.631
86.9148
89.7655
92.2075
94.2646
95.9598
97.3154
98.3529
99.0932
99.5562
99.7614
99.7271
99.4713
99.0109
98.3622
97.5409
96.5617
95.4389
94.1858
92.8152
91.3394
89.7696
88.1168
86.3911
84.6023
82.7592
80.8704
78.9439
76.9871
75.0068
73.0095
71.0012
68.9875
66.9733
64.9634
62.9621
60.9733
59.0006
57.0473
55.1161
53.2098
51.3307
49.4807
47.6618
45.8753
44.1227
42.4051
40.7232
39.0779
37.4696
35.8987
34.3654
32.8697
31.4115
29.9907
28.6068
27.2595
25.9482
24.6722
23.4308
22.2232
21.0485
19.9059
18.7942
17.7124
16.6593
15.6339
14.6349
13.661
12.711
11.7835
10.8773
9.99093
9.12299
8.27211
7.43684
6.61574
5.80735
5.01021
4.22284
3.44374
2.67142
1.90438
1.14112
0.380121
-35.9165
-22.8565
-10.6516
0.727833
11.311
21.1276
30.2069
38.5787
46.2721
53.3162
59.7398
65.5713
70.8387
75.5693
79.7902
83.5277
86.8074
89.6546
92.0936
94.1482
95.8412
97.1951
98.2314
98.9707
99.4332
99.6381
99.6039
99.3484
98.8886
98.2407
97.4204
96.4424
95.3209
94.0694
92.7006
91.2265
89.6587
88.0079
86.2844
84.4977
82.6569
80.7705
78.8464
76.8919
74.9141
72.9193
70.9135
68.9022
66.8905
64.8831
62.8843
60.898
58.9277
56.9768
55.048
53.1441
51.2673
49.4196
47.6029
45.8187
44.0682
42.3527
40.6729
39.0296
37.4233
35.8544
34.3229
32.8291
31.3727
29.9536
28.5715
27.2258
25.9161
24.6417
23.4018
22.1957
21.0225
19.8813
18.7709
17.6905
16.6387
15.6146
14.6168
13.6441
12.6953
11.769
10.8639
9.97858
9.11172
8.26189
7.42765
6.60757
5.80018
5.00402
4.21762
3.43949
2.66812
1.90203
1.13971
0.379652
-35.8631
-22.8227
-10.6358
0.72674
11.2942
21.0962
30.1621
38.5215
46.2034
53.237
59.6511
65.474
70.7335
75.4572
79.6718
83.4037
86.6786
89.5216
91.957
94.0085
95.699
97.0509
98.0856
98.8239
99.2857
99.4903
99.4561
99.201
98.7418
98.0949
97.2758
96.2993
95.1795
93.9298
92.563
91.0912
89.5257
87.8773
86.1564
84.3723
82.5343
80.6507
78.7294
76.7779
74.803
72.8111
70.8083
68.8
66.7913
64.7869
62.791
60.8076
58.8403
56.8922
54.9663
53.0652
51.1912
49.3463
47.5322
45.7507
44.0028
42.2898
40.6126
38.9717
37.3678
35.8012
34.272
32.7804
31.3262
29.9092
28.5291
27.1854
25.8776
24.6051
23.3671
22.1628
20.9913
19.8518
18.7431
17.6642
16.614
15.5914
14.5951
13.6239
12.6764
11.7515
10.8478
9.96378
9.0982
8.24963
7.41663
6.59776
5.79157
4.9966
4.21136
3.43438
2.66416
1.89921
1.13802
0.379088
-35.8008
-22.7831
-10.6174
0.725478
11.2747
21.0597
30.1099
38.4547
46.1234
53.1448
59.5478
65.3606
70.611
75.3264
79.5337
83.2592
86.5284
89.3665
91.7976
93.8456
95.5332
96.8828
97.9157
98.6527
99.1137
99.3179
99.2838
99.0291
98.5707
97.925
97.1073
96.1324
95.0146
93.7671
92.4026
90.9333
89.3705
87.7251
86.0071
84.2262
82.3913
80.5109
78.593
76.6448
74.6733
72.685
70.6856
68.6808
66.6755
64.6746
62.6822
60.7023
58.7383
56.7937
54.8711
52.9733
51.1025
49.2608
47.4499
45.6714
43.9266
42.2166
40.5422
38.9042
37.303
35.7391
34.2126
32.7236
31.2719
29.8574
28.4797
27.1383
25.8328
24.5625
23.3266
22.1244
20.955
19.8174
18.7106
17.6336
16.5853
15.5644
14.5698
13.6003
12.6545
11.7312
10.829
9.94651
9.08244
8.23533
7.40378
6.58633
5.78154
4.98794
4.20407
3.42843
2.65955
1.89592
1.13605
0.378432
-35.7298
-22.7379
-10.5963
0.724041
11.2523
21.0179
30.0502
38.3785
46.0319
53.0394
59.4297
65.231
70.471
75.1771
79.3761
83.0941
86.3569
89.1893
91.6157
93.6595
95.3438
96.6907
97.7216
98.4571
98.9172
99.121
99.087
98.8328
98.3753
97.7308
96.9148
95.9419
94.8262
93.5812
92.2194
90.753
89.1934
87.5512
85.8366
84.0592
82.2279
80.3513
78.4372
76.4929
74.5253
72.5409
70.5455
68.5446
66.5434
64.5464
62.5579
60.5819
58.6219
56.6811
54.7623
52.8683
51.0012
49.1631
47.3558
45.5808
43.8395
42.1329
40.4618
38.8271
37.2291
35.6683
34.1448
32.6587
31.2099
29.7982
28.4232
27.0845
25.7816
24.5138
23.2804
22.0805
20.9134
19.7781
18.6735
17.5987
16.5524
15.5335
14.5409
13.5733
12.6294
11.7079
10.8075
9.92679
9.06443
8.21901
7.3891
6.57327
5.77008
4.97805
4.19573
3.42163
2.65427
1.89216
1.13379
0.377681
-35.65
-22.6872
-10.5726
0.722424
11.2272
20.971
29.9831
38.2928
45.9291
52.921
59.297
65.0853
70.3136
75.0092
79.1988
82.9086
86.164
88.9901
91.4111
93.4504
95.1309
96.4748
97.5034
98.2373
98.6963
98.8997
98.8657
98.6121
98.1557
97.5126
96.6983
95.7276
94.6145
93.3722
92.0135
90.5504
88.9942
87.3556
85.6449
83.8715
82.0443
80.1719
78.262
76.322
74.3589
72.3789
70.3879
68.3915
66.3948
64.4022
62.4182
60.4466
58.491
56.5545
54.64
52.7502
50.8873
49.0533
47.2501
45.4791
43.7416
42.0388
40.3715
38.7403
37.1459
35.5886
34.0685
32.5858
31.1402
29.7316
28.3597
27.024
25.724
24.459
23.2284
22.0312
20.8667
19.7339
18.6318
17.5594
16.5154
15.4988
14.5084
13.543
12.6012
11.6818
10.7834
9.90462
9.04419
8.20065
7.3726
6.55859
5.75719
4.96694
4.18636
3.41399
2.64835
1.88793
1.13126
0.376838
-35.5615
-22.6308
-10.5464
0.72063
11.1993
20.9189
29.9086
38.1976
45.815
52.7895
59.1497
64.9236
70.1389
74.8228
79.002
82.7025
85.9499
88.769
91.1839
93.2182
94.8946
96.2351
97.2611
97.9932
98.4511
98.6539
98.6201
98.3671
97.9118
97.2703
96.4581
95.4898
94.3794
93.1402
91.7849
90.3254
88.773
87.1386
85.4321
83.663
81.8404
79.9727
78.0675
76.1324
74.1741
72.199
70.213
68.2216
66.2298
64.2422
62.2631
60.2964
58.3456
56.4139
54.5042
52.6191
50.7608
48.9314
47.1326
45.366
43.6329
41.9343
40.2711
38.6441
37.0536
35.5002
33.9839
32.5048
31.0628
29.6577
28.2892
26.9569
25.6601
24.3983
23.1707
21.9765
20.8149
19.6849
18.5855
17.5157
16.4744
15.4603
14.4724
13.5093
12.5699
11.6527
10.7566
9.88001
9.02172
8.18028
7.35428
6.5423
5.74289
4.95459
4.17596
3.40551
2.64177
1.88324
1.12845
0.375902
-35.4641
-22.5688
-10.5175
0.71866
11.1686
20.8616
29.8267
38.0931
45.6896
52.645
58.9877
64.7458
69.9469
74.618
78.7857
82.4761
85.7146
88.526
90.9343
92.963
94.6348
95.9716
96.9948
97.7249
98.1815
98.3838
98.3501
98.0978
97.6437
97.004
96.194
95.2283
94.121
92.8852
91.5336
90.0781
88.53
86.9
85.1982
83.434
81.6164
79.7537
77.8538
75.924
73.971
72.0013
70.0208
68.0348
66.0485
64.0663
62.0927
60.1313
58.1859
56.2595
54.355
52.475
50.6218
48.7974
47.0036
45.2418
43.5134
41.8195
40.1609
38.5383
36.9522
35.403
33.8908
32.4158
30.9778
29.5765
28.2118
26.8831
25.5898
24.3315
23.1072
21.9163
20.7579
19.631
18.5346
17.4678
16.4293
15.418
14.4328
13.4723
12.5355
11.6208
10.7271
9.85296
8.99702
8.15788
7.33414
6.52438
5.72716
4.94103
4.16453
3.39619
2.63453
1.87809
1.12536
0.374872
-35.358
-22.5013
-10.486
0.716513
11.1352
20.7992
29.7374
37.9791
45.5529
52.4875
58.8112
64.5521
69.7376
74.3947
78.55
82.2294
85.4582
88.2611
90.6622
92.6849
94.3516
95.6845
96.7046
97.4325
97.8878
98.0895
98.0558
97.8042
97.3515
96.7138
95.9062
94.9434
93.8394
92.6073
91.2597
89.8086
88.2651
86.64
84.9433
83.1844
81.3722
79.5151
77.6208
75.6968
73.7497
71.7859
69.8113
67.8312
65.8508
63.8746
61.9069
59.9514
58.0118
56.0912
54.1924
52.318
50.4704
48.6514
46.863
45.1065
43.3833
41.6944
40.0407
38.423
36.8416
35.2971
33.7894
32.3188
30.8851
29.4881
28.1274
26.8026
25.5133
24.2587
23.0381
21.8507
20.6958
19.5723
18.4792
17.4155
16.3801
15.3719
14.3896
13.432
12.498
11.5861
10.695
9.82348
8.9701
8.13347
7.3122
6.50486
5.71003
4.92625
4.15207
3.38603
2.62665
1.87247
1.122
0.373751
-35.2432
-22.4282
-10.452
0.714187
11.0991
20.7316
29.6409
37.8557
45.4049
52.317
58.6202
64.3424
69.5111
74.1531
78.2949
81.9623
85.1806
87.9745
90.3678
92.3839
94.0452
95.3737
96.3906
97.1161
97.5699
97.7709
97.7374
97.4866
97.0354
96.3996
95.5947
94.635
93.5346
92.3065
90.9633
89.5169
87.9784
86.3586
84.6674
82.9142
81.1079
79.2568
77.3688
75.4509
73.5102
71.5528
69.5845
67.6109
65.637
63.6672
61.7058
59.7567
57.8234
55.909
54.0164
52.1481
50.3065
48.4934
46.7108
44.96
43.2424
41.559
39.9107
38.2982
36.722
35.1824
33.6797
32.2138
30.7848
29.3923
28.036
26.7156
25.4304
24.1799
22.9633
21.7798
20.6286
19.5087
18.4192
17.3589
16.3269
15.3219
14.3429
13.3884
12.4574
11.5484
10.6603
9.79158
8.94097
8.10706
7.28845
6.48374
5.69148
4.91025
4.13858
3.37503
2.61812
1.86639
1.11835
0.372537
-35.1196
-22.3496
-10.4153
0.711683
11.0602
20.659
29.537
37.723
45.2458
52.1336
58.4147
64.1169
69.2674
73.8932
78.0204
81.675
84.8821
87.6661
90.0511
92.06
93.7156
95.0395
96.0527
96.7757
97.2279
97.4282
97.3948
97.1449
96.6953
96.0618
95.2596
94.3033
93.2067
91.983
90.6445
89.2031
87.6701
86.0559
84.3706
82.6236
80.8236
78.979
77.0976
75.1865
73.2525
71.302
69.3406
67.374
65.4069
63.444
61.4895
59.5473
57.6207
55.713
53.827
51.9653
50.1301
48.3235
46.547
44.8024
43.0908
41.4133
39.7708
38.1639
36.5933
35.0591
33.5616
32.1009
30.6769
29.2893
27.9378
26.6219
25.3413
24.0951
22.8828
21.7034
20.5563
19.4403
18.3546
17.2981
16.2697
15.2682
14.2926
13.3415
12.4137
11.5079
10.6229
9.75726
8.90963
8.07864
7.26291
6.46101
5.67153
4.89304
4.12408
3.3632
2.60894
1.85984
1.11443
0.371231
-34.9874
-22.2655
-10.3761
0.709001
11.0185
20.5812
29.4258
37.581
45.0754
51.9374
58.1949
63.8756
69.0067
73.615
77.7268
81.3676
84.5626
87.3362
89.7121
91.7135
93.3628
94.6817
95.6912
96.4114
96.8619
97.0615
97.0282
96.7792
96.3313
95.7002
94.9011
93.9484
92.8559
91.6367
90.3033
88.8673
87.3401
85.732
84.053
82.3126
80.5194
78.6817
76.8074
74.9035
72.9768
71.0336
69.0796
67.1204
65.1607
63.2052
61.2581
59.3231
57.4038
55.5033
53.6244
51.7697
49.9414
48.1416
46.3718
44.6337
42.9286
41.2574
39.6211
38.0203
36.4555
34.9271
33.4353
31.9801
30.5614
29.179
27.8326
26.5217
25.2459
24.0044
22.7966
21.6217
20.4789
19.3671
18.2855
17.233
16.2084
15.2108
14.2388
13.2913
12.367
11.4646
10.5829
9.72053
8.87609
8.04823
7.23557
6.43669
5.65018
4.87462
4.10855
3.35054
2.59912
1.85284
1.11024
0.369834
-34.8466
-22.1759
-10.3344
0.706143
10.9742
20.4984
29.3073
37.4298
44.894
51.7283
57.9606
63.6185
68.729
73.3187
77.4139
81.0401
84.2222
86.9846
89.351
91.3444
92.9871
94.3006
95.306
96.0233
96.4721
96.6708
96.6376
96.3897
95.9436
95.315
94.5191
93.5702
92.4821
91.2679
89.9398
88.5096
86.9885
85.3869
83.7147
81.9812
80.1953
78.365
76.4982
74.602
72.683
70.7476
68.8016
66.8502
64.8984
62.9508
61.0115
59.0843
57.1728
55.2799
53.4086
51.5613
49.7404
47.9478
46.1852
44.4541
42.7558
41.0913
39.4616
37.8672
36.3088
34.7865
33.3007
31.8514
30.4384
29.0616
27.7206
26.415
25.1443
23.9078
22.7049
21.5347
20.3965
19.2892
18.2119
17.1636
16.1432
15.1495
14.1815
13.2378
12.3172
11.4185
10.5403
9.6814
8.84036
8.01584
7.20644
6.41078
5.62744
4.855
4.09202
3.33705
2.58866
1.84539
1.10577
0.368345
-34.6972
-22.0808
-10.2901
0.70311
10.9271
20.4105
29.1816
37.2693
44.7015
51.5065
57.7121
63.3457
68.4342
73.0043
77.082
80.6926
83.8611
86.6116
88.9679
90.9527
92.5883
93.8963
94.8973
95.6116
96.0584
96.2563
96.2232
95.9764
95.5321
94.9063
94.1138
93.169
92.0856
90.8765
89.5541
88.1301
86.6155
85.0207
83.3557
81.6297
79.8514
78.029
76.1702
74.2821
72.3714
70.4443
68.5065
66.5635
64.6201
62.6808
60.7499
58.831
56.9276
55.0429
53.1796
51.3402
49.5271
47.7422
45.9871
44.2635
42.5724
40.9151
39.2924
37.7049
36.1531
34.6374
33.1579
31.7148
30.3079
28.9369
27.6017
26.3017
25.0364
23.8053
22.6075
21.4424
20.309
19.2065
18.1338
17.09
16.074
15.0846
14.1207
13.181
12.2644
11.3695
10.4951
9.63989
8.80245
7.98146
7.17554
6.38329
5.60331
4.83418
4.07447
3.32274
2.57756
1.83747
1.10103
0.366766
-34.5392
-21.9802
-10.2432
0.699903
10.8773
20.3175
29.0488
37.0996
44.498
51.272
57.4493
63.0572
68.1226
72.6719
76.731
80.3252
83.4792
86.2173
88.5628
90.5386
92.1668
93.4687
94.4653
95.1763
95.621
95.818
95.7851
95.5394
95.0972
94.4741
93.6852
92.7448
91.6663
90.4627
89.1464
87.7288
86.2211
84.6336
82.9762
81.258
79.4878
77.6737
75.8233
73.9438
72.0418
70.1235
68.1946
66.2604
64.3259
62.3954
60.4733
58.5631
56.6684
54.7922
52.9374
51.1065
49.3016
47.5248
45.7777
44.0619
42.3786
40.7288
39.1135
37.5332
35.9885
34.4797
33.007
31.5704
30.1699
28.8052
27.476
26.1819
24.9224
23.6969
22.5046
21.3447
20.2165
19.119
18.0512
17.0122
16.0008
15.0159
14.0564
13.121
12.2085
11.3178
10.4473
9.596
8.76237
7.94512
7.14287
6.35423
5.5778
4.81217
4.05592
3.30761
2.56582
1.82911
1.09601
0.365096
-34.3727
-21.8743
-10.1938
0.696525
10.8249
20.2196
28.9087
36.9207
44.2834
51.0248
57.1724
62.7533
67.7942
72.3216
76.3611
79.938
83.0768
85.8017
88.1358
90.1021
91.7224
93.0181
94.0099
94.7174
95.16
95.3561
95.3233
95.0788
94.6387
94.0187
93.2336
92.2976
91.2244
90.0266
88.7166
87.3059
85.8054
84.2256
82.5762
80.8663
79.1046
77.2992
75.4578
73.5874
71.6945
69.7854
67.8658
65.941
64.0158
62.0946
60.1817
58.2808
56.3952
54.5281
52.6822
50.8601
49.0639
47.2957
45.557
43.8495
42.1743
40.5325
38.9249
37.3522
35.815
34.3134
32.8478
31.4182
30.0244
28.6663
27.3436
26.0557
24.8023
23.5826
22.3961
21.2418
20.1191
19.0268
17.9642
16.9302
15.9237
14.9435
13.9886
13.0577
12.1497
11.2632
10.397
9.54973
8.72013
7.90682
7.10843
6.32359
5.55091
4.78897
4.03636
3.29167
2.55345
1.82029
1.09073
0.363336
-34.1977
-21.7629
-10.1419
0.692977
10.7698
20.1166
28.7616
36.7328
44.058
50.765
56.8813
62.4338
67.4491
71.9534
75.9723
79.531
82.6539
85.3648
87.6872
89.6434
91.2555
92.5446
93.5313
94.2352
94.6756
94.8706
94.8381
94.5947
94.1569
93.54
92.7589
91.8278
90.7599
89.5683
88.2649
86.8614
85.3686
83.7968
82.1558
80.4546
78.7019
76.9057
75.0736
73.2127
71.3295
69.4302
67.5203
65.6053
63.6899
61.7785
59.8753
57.9841
56.1081
54.2505
52.414
50.6012
48.8141
47.0549
45.3251
43.6263
41.9596
40.3261
38.7267
37.1621
35.6326
34.1388
32.6806
31.2582
29.8716
28.5204
27.2044
25.9231
24.676
23.4626
22.2821
21.1337
20.0166
18.93
17.8728
16.844
15.8426
14.8674
13.9174
12.9913
12.0878
11.2059
10.344
9.50112
8.67574
7.86657
7.07224
6.2914
5.52265
4.76459
4.01581
3.27491
2.54046
1.81102
1.08518
0.361486
-34.0143
-21.6462
-10.0875
0.689259
10.712
20.0087
28.6073
36.5357
43.8217
50.4927
56.5762
62.0989
67.0873
71.5675
75.5649
79.1044
82.2105
84.907
87.2168
89.1626
90.766
92.0482
93.0296
93.7298
94.1678
94.3618
94.3294
94.0874
93.6519
93.0383
92.2614
91.3352
90.2731
89.0879
87.7915
86.3955
84.9107
83.3474
81.7151
80.023
78.2797
76.4932
74.671
72.82
70.9469
69.0578
67.1582
65.2534
63.3482
61.4471
59.5542
57.673
55.8071
53.9595
52.1329
50.3297
48.5523
46.8025
45.082
43.3923
41.7345
40.1098
38.519
36.9627
35.4415
33.9556
32.5053
31.0906
29.7113
28.3674
27.0584
25.784
24.5437
23.3367
22.1625
21.0203
19.9093
18.8284
17.7769
16.7536
15.7576
14.7877
13.8427
12.9216
12.023
11.1457
10.2886
9.45016
8.6292
7.82437
7.03431
6.25766
5.49303
4.73903
3.99427
3.25734
2.52683
1.80131
1.07936
0.359547
-33.8225
-21.5241
-10.0307
0.685372
10.6516
19.8959
28.446
36.3297
43.5746
50.208
56.2572
61.7487
66.709
71.1639
75.1387
78.6583
81.7469
84.4282
86.725
88.6598
90.2542
91.5291
92.505
93.2012
93.6367
93.8296
93.7974
93.5568
93.1237
92.5136
91.7411
90.8201
89.764
88.5855
87.2964
85.9083
84.4319
82.8773
81.2543
79.5718
77.8383
76.0618
74.2499
72.4094
70.5468
68.6683
66.7794
64.8854
62.991
61.1006
59.2183
57.3478
55.4924
53.6552
51.8389
50.0459
48.2785
46.5386
44.8278
43.1475
41.4992
39.8836
38.3018
36.7543
35.2416
33.7641
32.322
30.9152
29.5438
28.2074
26.9058
25.6386
24.4053
23.2051
22.0376
20.9018
19.797
18.7223
17.6767
16.6592
15.6687
14.7043
13.7647
12.8487
11.9552
11.0829
10.2305
9.39686
8.58054
7.78025
6.99464
6.22237
5.46205
4.71231
3.97175
3.23898
2.51258
1.79115
1.07327
0.357519
-33.6223
-21.3967
-9.97129
0.681318
10.5886
19.7782
28.2776
36.1147
43.3167
49.9109
55.9242
61.3833
66.3142
70.7427
74.694
78.1928
81.2631
83.9285
86.2117
88.1351
89.72
90.9874
91.9575
92.6496
93.0826
93.2743
93.2423
93.0031
92.5726
91.9661
91.1982
90.2827
89.2328
88.0612
86.7798
85.3999
83.9322
82.3868
80.7734
79.1008
77.3776
75.6117
73.8104
71.9808
70.1293
68.2619
66.3842
64.5014
62.6182
60.739
58.8679
57.0084
55.164
53.3376
51.5321
49.7497
47.9928
46.2631
44.5625
42.8922
41.2536
39.6476
38.0751
36.5368
35.0331
33.5643
32.1307
30.7323
29.3689
28.0405
26.7466
25.4869
24.2608
23.0678
21.9071
20.7781
19.6798
18.6115
17.572
16.5606
15.576
14.6173
13.6832
12.7727
11.8844
11.0173
10.17
9.34125
8.52976
7.7342
6.95325
6.18554
5.42972
4.68442
3.94824
3.21981
2.49771
1.78055
1.06692
0.355404
-33.4138
-21.2641
-9.90947
0.677095
10.5229
19.6555
28.1023
35.8908
43.0481
49.6014
55.5775
61.0027
65.9031
70.3041
74.2309
77.708
80.7593
83.4081
85.6772
87.5886
89.1637
90.4233
91.3874
92.0752
92.5054
92.696
92.6642
92.4265
91.9986
91.3959
90.6327
89.7229
88.6796
87.5152
86.2417
84.8704
83.4118
81.876
80.2726
78.6104
76.8979
75.1429
73.3528
71.5345
69.6945
67.8387
65.9726
64.1015
62.23
60.3624
58.5029
56.6549
54.822
53.0069
51.2126
49.4413
47.6952
45.9763
44.2862
42.6263
40.9978
39.4018
37.839
36.3102
34.8159
33.3562
31.9315
30.5417
29.1868
27.8666
26.5808
25.3289
24.1104
22.9248
21.7713
20.6493
19.5578
18.4961
17.4631
16.4579
15.4794
14.5266
13.5984
12.6935
11.8108
10.949
10.1069
9.28334
8.47687
7.68625
6.91014
6.14719
5.39606
4.65538
3.92376
3.19984
2.48222
1.76951
1.0603
0.3532
-33.1971
-21.1262
-9.8452
0.672705
10.4547
19.5281
27.92
35.658
42.7689
49.2797
55.217
60.6071
65.4757
69.8482
73.7495
77.204
80.2355
82.8672
85.1216
87.0206
88.5855
89.8369
90.7947
91.478
91.9055
92.0948
92.0632
91.827
91.402
90.8032
90.0449
89.141
88.1044
86.9476
85.6824
84.3199
82.8708
81.345
79.752
78.1006
76.3991
74.6555
72.8771
71.0706
69.2425
67.3987
65.5448
63.6857
61.8264
59.9709
58.1234
56.2875
54.4664
52.6632
50.8804
49.1206
47.3859
45.6781
43.9989
42.3498
40.7319
39.1462
37.5936
36.0748
34.5901
33.1399
31.7244
30.3437
28.9976
27.6859
26.4084
25.1646
23.954
22.7761
21.6301
20.5153
19.431
18.3761
17.3498
16.3512
15.3791
14.4324
13.5102
12.6112
11.7342
10.878
10.0414
9.22313
8.4219
7.6364
6.86532
6.10732
5.36106
4.62518
3.89832
3.17909
2.46613
1.75803
1.05343
0.350909
-32.9722
-20.9831
-9.7785
0.668149
10.3839
19.3958
27.7309
35.4164
42.4792
48.9459
54.843
60.1965
65.0321
69.375
73.2499
76.681
79.692
82.3058
84.5449
86.431
87.9853
89.2283
90.1796
90.8583
91.2829
91.4709
91.4395
91.2049
90.7828
90.188
89.4349
88.5371
87.5075
86.3586
85.1019
83.7487
82.3094
80.7939
79.2117
77.5715
75.8816
74.1498
72.3833
70.5891
68.7734
66.9421
65.1007
63.2543
61.4075
59.5647
57.7297
55.9062
54.0974
52.3064
50.5357
48.7879
47.0649
45.3687
43.7009
42.0629
40.456
38.881
37.339
35.8304
34.3557
32.9154
31.5095
30.1381
28.8011
27.4983
26.2295
24.9941
23.7918
22.6218
21.4836
20.3764
19.2993
18.2516
17.2323
16.2404
15.2749
14.3347
13.4187
12.5257
11.6547
10.8043
9.97337
9.16065
8.36484
7.58467
6.81881
6.06595
5.32474
4.59385
3.87191
3.15755
2.44942
1.74612
1.04629
0.348532
-32.7392
-20.8348
-9.70939
0.663427
10.3105
19.2587
27.5349
35.1661
42.179
48.6
54.4554
59.7711
64.5725
68.8847
72.7322
76.1391
79.1288
81.7241
83.9474
85.8202
87.3635
88.5976
89.5422
90.2162
90.6377
90.8245
90.7933
90.5603
90.1412
89.5506
88.8028
87.9113
86.8891
85.7482
84.5005
83.1568
81.7277
80.2229
78.6518
77.0232
75.3453
73.6257
71.8718
70.0902
68.2873
66.469
64.6406
62.8072
60.9735
59.1437
57.3217
55.5111
53.7151
51.9367
50.1786
48.443
46.7322
45.048
43.392
41.7656
40.17
38.6062
37.0751
35.5771
34.1129
32.6827
31.2868
29.9251
28.5976
27.304
26.0441
24.8175
23.6236
22.4619
21.3318
20.2324
19.1629
18.1226
17.1105
16.1256
15.1669
14.2333
13.3238
12.4372
11.5723
10.7279
9.90288
9.0959
8.30573
7.53106
6.77062
6.02308
5.28711
4.56138
3.84454
3.13524
2.43211
1.73378
1.03889
0.346069
-32.4981
-20.6813
-9.63789
0.658541
10.2345
19.1169
27.3321
34.9072
41.8683
48.242
54.0543
59.3309
64.0969
68.3774
72.1966
75.5783
78.546
81.1222
83.3291
85.1882
86.7201
87.9452
88.8828
89.5517
89.9702
90.1556
90.1246
89.8934
89.4773
88.8911
88.1488
87.2639
86.2492
85.1167
83.8782
82.5444
81.1258
79.6321
78.0726
76.456
74.7904
73.0835
71.3425
69.574
67.7844
65.9795
64.1646
62.3447
60.5245
58.7081
56.8995
55.1022
53.3195
51.5542
49.809
48.0863
46.3881
44.7163
43.0724
41.458
39.8742
38.3219
36.802
35.3151
33.8617
32.4421
31.0564
29.7047
28.3869
27.1029
25.8523
24.6347
23.4496
22.2965
21.1747
20.0834
19.0218
17.9892
16.9845
16.0069
15.0552
14.1285
13.2257
12.3456
11.4871
10.6489
9.82995
9.02892
8.24456
7.4756
6.72076
5.97872
5.24818
4.52779
3.81623
3.11215
2.4142
1.72101
1.03124
0.34352
-32.249
-20.5228
-9.564
0.653492
10.1561
18.9703
27.1226
34.6396
41.5474
47.8722
53.64
58.876
63.6056
67.8532
71.6431
74.999
77.9439
80.5004
82.6903
84.5351
86.0553
87.271
88.2014
88.8652
89.2805
89.4645
89.4337
89.2043
88.7914
88.2097
87.4731
86.595
85.588
84.4642
83.2352
81.9116
80.5039
79.0216
77.4741
75.8699
74.217
72.5232
70.7956
69.0407
67.2648
65.4737
63.6727
61.8668
60.0605
58.2581
56.4633
54.6798
52.9107
51.159
49.4272
47.7176
46.0325
44.3735
42.7423
41.1402
39.5685
38.0281
36.5199
35.0444
33.6021
32.1934
30.8183
29.477
28.1693
26.8951
25.6541
24.4459
23.2699
22.1256
21.0123
19.9294
18.876
17.8513
16.8543
15.8841
14.9398
14.0202
13.1243
12.251
11.399
10.5673
9.7546
8.9597
8.18136
7.41829
6.66924
5.93289
5.20794
4.49308
3.78698
3.08829
2.39569
1.70782
1.02334
0.340887
-31.9919
-20.3592
-9.48776
0.648282
10.0751
18.8191
26.9064
34.3634
41.2162
47.4906
53.2123
58.4067
63.0985
67.3123
71.072
74.4011
77.3225
79.8586
82.0311
83.8612
85.3693
86.5753
87.4983
88.1568
88.5688
88.7512
88.7208
88.4931
88.0835
87.5065
86.7757
85.9046
84.9057
83.7909
82.5716
81.2586
79.8621
78.3917
76.8565
75.265
73.6254
71.9451
70.2312
68.4903
66.7286
64.9517
63.1651
61.3736
59.5817
57.7936
56.0132
54.2439
52.4889
50.7512
49.0332
47.3372
45.6655
44.0197
42.4015
40.8122
39.2531
37.725
36.2288
34.765
33.3342
31.9367
30.5726
29.242
27.9448
26.6807
25.4496
24.251
23.0844
21.9492
20.8448
19.7705
18.7255
17.709
16.7199
15.7575
14.8207
13.9085
13.0197
12.1533
11.3081
10.4831
9.67684
8.88828
8.11614
7.35916
6.61607
5.88559
5.16643
4.45726
3.75679
3.06367
2.37659
1.69421
1.01518
0.338169
-31.7269
-20.1905
-9.40918
0.642911
9.99168
18.6632
26.6835
34.0788
40.8748
47.0972
52.7716
57.9229
62.5759
66.7547
70.4833
73.7848
76.6821
79.1972
81.3517
83.1666
84.6622
85.8582
86.7735
87.4266
87.8352
88.0161
87.9859
87.7602
87.354
86.7817
86.057
85.1931
84.2024
83.0969
81.8877
80.5856
79.2006
77.7424
76.2199
74.6416
73.0156
71.3492
69.6495
67.923
66.1759
64.4137
62.6419
60.8652
59.0882
57.3149
55.5493
53.7946
52.0542
50.3308
48.627
46.9452
45.2873
43.6551
42.0503
40.4742
38.928
37.4125
35.9287
34.4771
33.0581
31.6722
30.3194
28.9998
27.7133
26.4598
25.2388
24.0501
22.8932
21.7674
20.6722
19.6068
18.5704
17.5623
16.5815
15.627
14.698
13.7933
12.9118
12.0526
11.2145
10.3962
9.59669
8.81466
8.04891
7.2982
6.56127
5.83685
5.12364
4.42035
3.72567
3.0383
2.35691
1.68017
1.00677
0.335369
-31.4541
-20.0169
-9.32827
0.637382
9.90576
18.5027
26.4541
33.7858
40.5233
46.6923
52.3178
57.4249
62.0378
66.1807
69.8772
73.1504
76.0227
78.5162
80.6522
82.4515
83.9342
85.1199
86.0274
86.6749
87.0799
87.2593
87.2294
87.0056
86.6028
86.0355
85.317
84.4606
83.4784
82.3824
81.1836
79.8926
78.5196
77.0739
75.5645
73.9998
72.3877
70.7357
69.0506
67.339
65.6068
63.8599
62.1033
60.3419
58.5801
56.8221
55.0716
53.3321
51.6066
49.898
48.2089
46.5415
44.8979
43.2797
41.6887
40.1262
38.5932
37.0908
35.6198
34.1806
32.7739
31.3999
30.0587
28.7504
27.475
26.2322
25.0218
23.8433
22.6963
21.5802
20.4944
19.4382
18.4107
17.4113
16.4389
15.4926
14.5716
13.6747
12.8008
11.949
11.1181
10.3068
9.51417
8.73887
7.9797
7.23545
6.50486
5.78666
5.07958
4.38234
3.69364
3.01217
2.33664
1.66573
0.998115
0.332485
-31.1735
-19.8384
-9.24507
0.631695
9.8174
18.3377
26.2181
33.4844
40.1619
46.2758
51.8512
56.9126
61.4844
65.5904
69.2539
72.4979
75.3446
77.8158
79.9328
81.716
83.1855
84.3607
85.2601
85.9018
86.3032
86.481
86.4513
86.2295
85.8303
85.268
84.556
83.7072
82.7338
81.6475
80.4594
79.18
77.8192
76.3864
74.8905
73.3397
71.742
70.1047
68.4347
66.7383
65.0216
63.2903
61.5493
59.8036
58.0576
56.3153
54.5804
52.8564
51.1463
49.4529
47.7789
46.1264
44.4974
42.8937
41.3169
39.7683
38.249
36.76
35.302
33.8757
32.4815
31.1198
29.7906
28.494
27.2299
25.9982
24.7986
23.6306
22.4939
21.3877
20.3116
19.2648
18.2465
17.256
16.2922
15.3544
14.4416
13.5527
12.6866
11.8424
11.0189
10.2149
9.4293
8.66092
7.90853
7.17091
6.44683
5.73504
5.03427
4.34325
3.66069
2.9853
2.3158
1.65087
0.989212
0.329519
-30.8853
-19.6549
-9.15958
0.625852
9.72662
18.1681
25.9757
33.1748
39.7905
45.8479
51.3717
56.3864
60.9159
64.9839
68.6136
71.8275
74.6479
77.0963
79.1936
80.9604
82.4163
83.5806
84.4717
85.1074
85.5051
85.6813
85.6519
85.4321
85.0367
84.4796
83.7741
82.9331
81.9688
80.8925
79.7154
78.4478
77.0996
75.6801
74.198
72.6616
71.0786
69.4565
67.8018
66.1212
64.4204
62.705
60.9802
59.2506
57.5207
55.7945
54.0757
52.3676
50.6733
48.9957
47.3371
45.6998
44.0859
42.4971
40.9348
39.4005
37.8953
36.4201
34.9756
33.5625
32.1812
30.832
29.5151
28.2305
26.9781
25.7578
24.5693
23.4121
22.2859
21.19
20.1238
19.0867
18.0778
17.0964
16.1416
15.2125
14.3081
13.4274
12.5693
11.7329
10.917
10.1204
9.34211
8.58083
7.8354
7.1046
6.38722
5.68201
4.98772
4.30309
3.62684
2.9577
2.29438
1.6356
0.980065
0.326472
-30.5894
-19.4667
-9.07184
0.619854
9.63344
17.9941
25.7268
32.857
39.4093
45.4086
50.8796
55.8462
60.3323
64.3614
67.9562
71.1394
73.9328
76.3577
78.435
80.1848
81.6268
82.7799
83.6624
84.2921
84.686
84.8605
84.8313
84.6137
84.222
83.6702
82.9716
82.1386
81.1835
80.1176
78.9517
77.6963
76.361
74.9551
73.4872
71.9655
70.3977
68.7911
67.1523
65.4877
63.8032
62.1043
60.396
58.683
56.9697
55.26
53.5576
51.8659
50.1879
48.5263
46.8836
45.262
43.6636
42.0899
40.5427
39.0231
37.5323
36.0712
34.6405
33.241
31.8729
30.5366
29.2323
27.9601
26.7197
25.5111
24.3339
23.1878
22.0724
20.987
19.931
18.9038
17.9046
16.9326
15.987
15.0667
14.171
13.2987
12.4489
11.6205
10.8124
10.0235
9.25262
8.49863
7.76034
7.03654
6.32603
5.62758
4.93994
4.26186
3.59209
2.92937
2.27241
1.61994
0.970676
0.323345
-30.286
-19.2736
-8.98185
0.613704
9.53788
17.8156
25.4716
32.531
39.0184
44.9582
50.3749
55.2922
59.7339
63.7229
67.2822
70.4337
73.1994
75.6003
77.6569
79.3894
80.8171
81.9587
82.8325
83.456
83.846
84.0187
83.9898
83.7744
83.3866
82.8403
82.1485
81.3239
80.3782
79.3229
78.1686
76.9256
75.6035
74.2116
72.7582
71.2516
69.6994
68.1087
66.4862
64.8381
63.1703
61.4883
59.7969
58.1009
56.4046
54.7119
53.0264
51.3514
49.69
48.0449
46.4185
44.813
43.2304
41.6724
40.1405
38.636
37.16
35.7134
34.2969
32.9112