/*--------------------------------*- C++ -*----------------------------------*\
| =========                 |                                                 |
| \\      /  F ield         | OpenFOAM: The Open Source CFD Toolbox           |
|  \\    /   O peration     | Version:  2406                                  |
|   \\  /    A nd           | Website:  www.openfoam.com                      |
|    \\/     M anipulation  |                                                 |
\*---------------------------------------------------------------------------*/
FoamFile
{
    version     2.0;
    format      ascii;
    arch        "LSB;label=32;scalar=64";
    class       volScalarField;
    location    "125";
    object      gradTx;
}
// * * * * * * * * * * * * * * * * * * * * * * * * * * * * * * * * * * * * * //

dimensions      [0 -1 0 1 0 0 0];

internalField   nonuniform List<scalar> 
20000
(
5.347
4.9421
4.554
4.18242
3.82676
3.4867
3.16239
2.85388
2.55974
2.2797
2.01445
1.76322
1.52513
1.29987
1.08734
0.887241
0.699078
0.52234
0.356592
0.201469
0.0566201
-0.0783176
-0.203729
-0.320008
-0.427549
-0.526738
-0.617947
-0.701538
-0.777864
-0.847268
-0.910084
-0.966643
-1.01726
-1.06226
-1.10193
-1.13657
-1.16647
-1.1919
-1.21314
-1.23044
-1.24406
-1.25422
-1.26118
-1.26513
-1.26631
-1.26492
-1.26115
-1.2552
-1.24723
-1.23744
-1.22597
-1.21299
-1.19865
-1.18309
-1.16644
-1.14884
-1.1304
-1.11124
-1.09147
-1.07119
-1.0505
-1.02949
-1.00826
-0.986868
-0.965406
-0.943942
-0.922544
-0.901274
-0.880191
-0.859351
-0.838804
-0.818599
-0.79878
-0.779389
-0.760462
-0.742037
-0.724146
-0.706819
-0.690083
-0.673965
-0.658488
-0.643674
-0.629542
-0.616111
-0.603396
-0.591413
-0.580175
-0.569694
-0.559981
-0.551047
-0.542898
-0.535544
-0.528992
-0.523245
-0.518311
-0.514193
-0.510895
-0.508418
-0.506767
-0.50594
16.0397
14.8252
13.6609
12.5459
11.4791
10.4598
9.48689
8.56039
7.67817
6.83894
6.04316
5.28911
4.57477
3.89921
3.26184
2.66161
2.0971
1.56686
1.06964
0.604325
0.169839
-0.234924
-0.61112
-0.959931
-1.28253
-1.58008
-1.85369
-2.10444
-2.3334
-2.5416
-2.73003
-2.89969
-3.05154
-3.1865
-3.3055
-3.40942
-3.49912
-3.57542
-3.63913
-3.69103
-3.73187
-3.76236
-3.78321
-3.79509
-3.79863
-3.79445
-3.78314
-3.76528
-3.74139
-3.712
-3.67761
-3.63868
-3.59566
-3.54897
-3.49904
-3.44623
-3.39091
-3.33344
-3.27413
-3.2133
-3.15124
-3.08823
-3.02452
-2.96036
-2.89598
-2.83159
-2.7674
-2.7036
-2.64036
-2.57784
-2.51621
-2.4556
-2.39614
-2.33797
-2.2812
-2.22593
-2.17226
-2.12028
-2.07008
-2.02173
-1.9753
-1.93086
-1.88847
-1.84818
-1.81004
-1.77409
-1.74038
-1.70894
-1.67981
-1.653
-1.62856
-1.6065
-1.58684
-1.56961
-1.55481
-1.54245
-1.53256
-1.52513
-1.52017
-1.5177
26.7288
24.7049
22.7641
20.9061
19.1285
17.4303
15.8091
14.2647
12.7946
11.3967
10.0705
8.81357
7.62311
6.49757
5.43562
4.43542
3.49463
2.61097
1.78238
1.00699
0.283003
-0.391464
-1.01834
-1.5996
-2.13719
-2.63303
-3.08897
-3.50683
-3.88837
-4.2353
-4.54931
-4.83202
-5.08506
-5.30997
-5.50827
-5.68144
-5.8309
-5.95805
-6.06422
-6.15071
-6.21876
-6.26957
-6.30432
-6.32411
-6.33
-6.32304
-6.3042
-6.27443
-6.23463
-6.18566
-6.12834
-6.06346
-5.99177
-5.91398
-5.83077
-5.74277
-5.65059
-5.55481
-5.45599
-5.35462
-5.25121
-5.1462
-5.04004
-4.93312
-4.82584
-4.71855
-4.61158
-4.50526
-4.39987
-4.29569
-4.19299
-4.09199
-3.99292
-3.89598
-3.80137
-3.70927
-3.61984
-3.53322
-3.44956
-3.369
-3.29163
-3.21758
-3.14694
-3.07979
-3.01624
-2.95634
-2.90016
-2.84777
-2.79922
-2.75455
-2.71382
-2.67706
-2.64431
-2.61558
-2.59092
-2.57033
-2.55384
-2.54147
-2.53321
-2.52908
37.4112
34.5788
31.8622
29.2614
26.7732
24.3961
22.1273
19.9656
17.9081
15.9517
14.0953
12.3358
10.6696
9.09437
7.60813
6.20816
4.89129
3.65439
2.49463
1.40939
0.396097
-0.547895
-1.4253
-2.23886
-2.99131
-3.68532
-4.3235
-4.90836
-5.44238
-5.92796
-6.36746
-6.76317
-7.11733
-7.43212
-7.70967
-7.95205
-8.16125
-8.33921
-8.48781
-8.60886
-8.70411
-8.77524
-8.82387
-8.85156
-8.85982
-8.85007
-8.8237
-8.78203
-8.72632
-8.65778
-8.57756
-8.48676
-8.38641
-8.27753
-8.16106
-8.03789
-7.90887
-7.77482
-7.6365
-7.49462
-7.34988
-7.2029
-7.05431
-6.90467
-6.75451
-6.60434
-6.45462
-6.3058
-6.1583
-6.01249
-5.86873
-5.72737
-5.5887
-5.45303
-5.32061
-5.1917
-5.06652
-4.94529
-4.8282
-4.71543
-4.60714
-4.5035
-4.40462
-4.31065
-4.22169
-4.13785
-4.05922
-3.98589
-3.91794
-3.85542
-3.79841
-3.74696
-3.70111
-3.66091
-3.62639
-3.59758
-3.5745
-3.55717
-3.54562
-3.53983
48.0838
44.4437
40.9527
37.6095
34.4114
31.356
28.4401
25.6616
23.0171
20.5026
18.1166
15.8549
13.7134
11.689
9.7788
7.97938
6.28672
4.69689
3.20626
1.81144
0.5091
-0.704178
-1.83189
-2.87756
-3.84469
-4.73671
-5.55695
-6.30868
-6.99505
-7.61917
-8.18405
-8.69264
-9.14784
-9.55244
-9.90917
-10.2207
-10.4896
-10.7183
-10.9093
-11.0649
-11.1873
-11.2787
-11.3412
-11.3768
-11.3874
-11.3749
-11.341
-11.2875
-11.2159
-11.1278
-11.0247
-10.908
-10.779
-10.639
-10.4893
-10.331
-10.1652
-9.99291
-9.81512
-9.63277
-9.44673
-9.25783
-9.06685
-8.87451
-8.68151
-8.48849
-8.29607
-8.10479
-7.91521
-7.7278
-7.54303
-7.36134
-7.18311
-7.00873
-6.83853
-6.67284
-6.51195
-6.35614
-6.20564
-6.0607
-5.92152
-5.7883
-5.66122
-5.54044
-5.4261
-5.31834
-5.21728
-5.12303
-5.03569
-4.95534
-4.88207
-4.81594
-4.75701
-4.70534
-4.66097
-4.62393
-4.59427
-4.572
-4.55715
-4.54972
58.7444
54.2974
50.0327
45.9483
42.0411
38.3082
34.7458
31.3513
28.1204
25.0485
22.1333
19.3702
16.7539
14.2807
11.9471
9.74861
7.68058
5.73821
3.91708
2.21304
0.621984
-0.860278
-2.23802
-3.51554
-4.69711
-5.78692
-6.78904
-7.70744
-8.546
-9.30849
-9.99862
-10.62
-11.1761
-11.6704
-12.1062
-12.4868
-12.8153
-13.0948
-13.3281
-13.5182
-13.6678
-13.7795
-13.8558
-13.8993
-13.9123
-13.897
-13.8556
-13.7901
-13.7026
-13.595
-13.469
-13.3265
-13.1689
-12.9979
-12.815
-12.6216
-12.419
-12.2085
-11.9913
-11.7685
-11.5413
-11.3105
-11.0771
-10.8422
-10.6064
-10.3706
-10.1355
-9.90178
-9.67016
-9.4412
-9.21547
-8.99349
-8.77575
-8.5627
-8.35477
-8.15234
-7.95578
-7.76542
-7.58155
-7.40448
-7.23444
-7.07168
-6.91643
-6.76886
-6.62917
-6.49752
-6.37405
-6.25891
-6.1522
-6.05404
-5.96452
-5.88372
-5.81173
-5.7486
-5.69439
-5.64915
-5.61291
-5.58571
-5.56756
-5.55848
69.3907
64.1377
59.1003
54.2757
49.6604
45.251
41.043
37.0333
33.2168
29.5881
26.1446
22.8806
19.7903
16.8689
14.1124
11.5154
9.07253
6.7781
4.62693
2.6141
0.734722
-1.01616
-2.64359
-4.15265
-5.54838
-6.83571
-8.01945
-9.10431
-10.0948
-10.9955
-11.8107
-12.5447
-13.2016
-13.7855
-14.3003
-14.7499
-15.1379
-15.468
-15.7436
-15.9682
-16.1448
-16.2768
-16.367
-16.4183
-16.4337
-16.4156
-16.3667
-16.2894
-16.186
-16.0589
-15.9101
-15.7417
-15.5556
-15.3536
-15.1376
-14.9091
-14.6698
-14.4211
-14.1646
-13.9014
-13.6329
-13.3603
-13.0847
-12.8071
-12.5286
-12.2501
-11.9724
-11.6963
-11.4227
-11.1523
-10.8856
-10.6234
-10.3662
-10.1146
-9.86895
-9.62983
-9.39765
-9.17278
-8.95559
-8.74642
-8.54557
-8.35332
-8.16992
-7.99562
-7.83061
-7.6751
-7.52925
-7.39324
-7.26719
-7.15124
-7.0455
-6.95006
-6.86502
-6.79045
-6.72642
-6.67297
-6.63017
-6.59803
-6.57659
-6.56587
80.02
73.9623
68.1534
62.5897
57.2675
52.1826
47.3301
42.7061
38.3049
34.1205
30.1495
26.3855
22.8218
19.453
16.2742
13.2794
10.4622
7.81631
5.33564
3.01452
0.847285
-1.17178
-3.0485
-4.78873
-6.39827
-7.88281
-9.24789
-10.4989
-11.6412
-12.6798
-13.6199
-14.4663
-15.2238
-15.8972
-16.4908
-17.0093
-17.4568
-17.8374
-18.1553
-18.4142
-18.6179
-18.7701
-18.8741
-18.9333
-18.951
-18.9301
-18.8737
-18.7846
-18.6654
-18.5188
-18.3472
-18.153
-17.9384
-17.7055
-17.4564
-17.1929
-16.9169
-16.6302
-16.3343
-16.0309
-15.7212
-15.4069
-15.089
-14.769
-14.4478
-14.1265
-13.8063
-13.488
-13.1725
-12.8606
-12.5531
-12.2507
-11.9541
-11.6639
-11.3807
-11.1049
-10.8372
-10.5779
-10.3274
-10.0862
-9.8546
-9.63289
-9.4214
-9.2204
-9.03011
-8.85078
-8.6826
-8.52575
-8.38039
-8.24668
-8.12473
-8.01468
-7.91661
-7.83062
-7.75678
-7.69515
-7.64578
-7.60873
-7.584
-7.57164
90.6297
83.7688
77.1897
70.8883
64.8604
59.1014
53.6055
48.3683
43.3836
38.6445
34.147
29.8839
25.8477
22.0323
18.432
15.0401
11.8493
8.85259
6.04304
3.41419
0.959646
-1.3271
-3.45265
-5.42363
-7.24658
-8.92796
-10.474
-11.891
-13.1847
-14.361
-15.4257
-16.3844
-17.2423
-18.0049
-18.6773
-19.2645
-19.7713
-20.2024
-20.5624
-20.8557
-21.0864
-21.2587
-21.3766
-21.4436
-21.4636
-21.44
-21.3761
-21.2752
-21.1402
-20.9742
-20.7798
-20.5599
-20.3168
-20.053
-19.7708
-19.4724
-19.1599
-18.8351
-18.5
-18.1563
-17.8057
-17.4496
-17.0897
-16.7271
-16.3634
-15.9995
-15.6368
-15.2763
-14.919
-14.5657
-14.2175
-13.875
-13.5391
-13.2104
-12.8896
-12.5773
-12.2741
-11.9804
-11.6967
-11.4235
-11.1612
-10.9101
-10.6706
-10.4429
-10.2274
-10.0243
-9.8338
-9.65615
-9.49152
-9.34008
-9.20197
-9.07732
-8.96625
-8.86886
-8.78523
-8.71543
-8.65952
-8.61755
-8.58955
-8.57554
101.217
93.5546
86.2069
79.1694
72.4373
66.0055
59.8676
54.0187
48.4516
43.1589
38.136
33.3748
28.8671
24.6061
20.5852
16.797
13.2335
9.88669
6.74895
3.81303
1.07178
-1.4821
-3.85595
-6.05718
-8.09311
-9.97092
-11.6976
-13.2801
-14.7249
-16.0387
-17.2278
-18.2984
-19.2566
-20.1083
-20.8592
-21.515
-22.081
-22.5625
-22.9645
-23.292
-23.5497
-23.7422
-23.8737
-23.9487
-23.971
-23.9446
-23.8733
-23.7605
-23.6098
-23.4244
-23.2073
-22.9616
-22.6902
-22.3956
-22.0804
-21.7472
-21.3981
-21.0354
-20.6612
-20.2773
-19.8857
-19.4881
-19.086
-18.6812
-18.2749
-17.8686
-17.4635
-17.0609
-16.6618
-16.2673
-15.8784
-15.4959
-15.1207
-14.7536
-14.3954
-14.0466
-13.7079
-13.3799
-13.0631
-12.758
-12.465
-12.1846
-11.9171
-11.6628
-11.4221
-11.1953
-10.9826
-10.7842
-10.6003
-10.4312
-10.2769
-10.1377
-10.0137
-9.90491
-9.81151
-9.73355
-9.67111
-9.62424
-9.59297
-9.57733
111.779
103.317
95.2028
87.431
79.9964
72.8934
66.115
59.6556
53.5076
47.6627
42.1156
36.8576
31.8795
27.1738
22.7333
18.5498
14.6144
10.9184
7.45319
4.21094
1.18364
-1.63672
-4.2583
-6.68924
-8.93764
-11.0114
-12.9183
-14.6659
-16.2615
-17.7124
-19.0255
-20.2079
-21.2661
-22.2066
-23.0359
-23.7601
-24.3852
-24.9169
-25.3609
-25.7226
-26.0072
-26.2197
-26.365
-26.4478
-26.4724
-26.4433
-26.3645
-26.24
-26.0736
-25.8688
-25.6291
-25.3578
-25.058
-24.7326
-24.3846
-24.0166
-23.6311
-23.2306
-22.8173
-22.3933
-21.9609
-21.5217
-21.0777
-20.6306
-20.1819
-19.7332
-19.2859
-18.8412
-18.4005
-17.9648
-17.5353
-17.1129
-16.6986
-16.2932
-15.8976
-15.5124
-15.1384
-14.7761
-14.4263
-14.0893
-13.7658
-13.4561
-13.1607
-12.8799
-12.6141
-12.3636
-12.1286
-11.9095
-11.7065
-11.5197
-11.3494
-11.1956
-11.0586
-10.9385
-10.8354
-10.7493
-10.6803
-10.6286
-10.594
-10.5767
122.314
113.054
104.175
95.671
87.5357
79.7632
72.346
65.2779
58.5505
52.1548
46.0848
40.3312
34.884
29.7349
24.8759
20.2981
15.9918
11.9473
8.1556
4.60781
1.29523
-1.79094
-4.65959
-7.31965
-9.77996
-12.0492
-14.1358
-16.0481
-17.7941
-19.3817
-20.8186
-22.1124
-23.2703
-24.2995
-25.207
-25.9994
-26.6834
-27.2652
-27.7511
-28.1469
-28.4583
-28.6908
-28.8498
-28.9404
-28.9674
-28.9355
-28.8493
-28.713
-28.5309
-28.3068
-28.0445
-27.7476
-27.4196
-27.0636
-26.6827
-26.28
-25.8582
-25.4199
-24.9677
-24.5038
-24.0306
-23.55
-23.0642
-22.575
-22.084
-21.593
-21.1035
-20.617
-20.1347
-19.6579
-19.1879
-18.7257
-18.2724
-17.8288
-17.3958
-16.9744
-16.5651
-16.1687
-15.7859
-15.4172
-15.0632
-14.7243
-14.401
-14.0938
-13.8029
-13.5288
-13.2717
-13.032
-12.8098
-12.6054
-12.419
-12.2508
-12.1009
-11.9694
-11.8566
-11.7624
-11.6869
-11.6303
-11.5925
-11.5736
132.818
122.764
113.122
103.887
95.0534
86.6134
78.5592
70.8841
63.5789
56.634
50.0427
43.7949
37.8799
32.2886
27.0123
22.0413
17.3651
12.9733
8.85601
5.00354
1.40649
-1.94471
-5.05973
-7.94825
-10.6199
-13.084
-15.3498
-17.4263
-19.3223
-21.0462
-22.6066
-24.0114
-25.2688
-26.3864
-27.3718
-28.2323
-28.975
-29.6068
-30.1344
-30.5642
-30.9023
-31.1548
-31.3275
-31.4258
-31.4551
-31.4205
-31.3269
-31.179
-30.9812
-30.7378
-30.453
-30.1306
-29.7744
-29.3878
-28.9743
-28.537
-28.079
-27.603
-27.1119
-26.6082
-26.0944
-25.5726
-25.045
-24.5137
-23.9806
-23.4475
-22.9159
-22.3876
-21.8639
-21.3462
-20.8358
-20.3339
-19.8416
-19.36
-18.8898
-18.4321
-17.9877
-17.5573
-17.1416
-16.7412
-16.3568
-15.9888
-15.6378
-15.3041
-14.9883
-14.6907
-14.4115
-14.1512
-13.9099
-13.688
-13.4856
-13.3029
-13.1401
-12.9974
-12.8748
-12.7725
-12.6906
-12.6291
-12.588
-12.5675
143.29
132.443
122.041
112.078
102.548
93.4423
84.7531
76.4728
68.5916
61.0991
53.9882
47.2478
40.8664
34.8343
29.142
23.7791
18.7342
13.9962
9.55423
5.39805
1.51741
-2.09801
-5.45863
-8.5749
-11.4572
-14.1156
-16.56
-18.8003
-20.8457
-22.7056
-24.3889
-25.9046
-27.2611
-28.4668
-29.5298
-30.4582
-31.2595
-31.9411
-32.5103
-32.9739
-33.3387
-33.6112
-33.7974
-33.9035
-33.9351
-33.8978
-33.7968
-33.6372
-33.4238
-33.1613
-32.854
-32.5062
-32.1219
-31.7048
-31.2587
-30.7869
-30.2928
-29.7793
-29.2495
-28.7061
-28.1517
-27.5888
-27.0196
-26.4465
-25.8713
-25.2961
-24.7227
-24.1527
-23.5877
-23.0292
-22.4786
-21.9371
-21.406
-20.8863
-20.3792
-19.8854
-19.4059
-18.9416
-18.4931
-18.0612
-17.6464
-17.2494
-16.8707
-16.5108
-16.17
-15.8489
-15.5477
-15.2669
-15.0066
-14.7672
-14.5488
-14.3517
-14.1761
-14.0221
-13.8899
-13.7795
-13.6911
-13.6248
-13.5805
-13.5584
153.727
142.089
130.93
120.241
110.017
100.248
90.926
82.0426
73.5874
65.5493
57.9204
50.689
43.8429
37.3714
31.2645
25.511
20.0987
15.0155
10.2501
5.79122
1.62795
-2.25078
-5.85617
-9.19942
-12.2916
-15.1437
-17.7662
-20.1696
-22.364
-24.3593
-26.1653
-27.7913
-29.2466
-30.5401
-31.6806
-32.6766
-33.5362
-34.2675
-34.8781
-35.3756
-35.7669
-36.0592
-36.259
-36.3728
-36.4068
-36.3667
-36.2584
-36.0871
-35.8582
-35.5766
-35.2469
-34.8738
-34.4615
-34.014
-33.5354
-33.0293
-32.4991
-31.9483
-31.3799
-30.7969
-30.2021
-29.5982
-28.9876
-28.3727
-27.7556
-27.1385
-26.5233
-25.9118
-25.3057
-24.7065
-24.1158
-23.5349
-22.9651
-22.4076
-21.8634
-21.3337
-20.8193
-20.3212
-19.84
-19.3766
-18.9317
-18.5058
-18.0995
-17.7133
-17.3478
-17.0032
-16.6801
-16.3788
-16.0996
-15.8427
-15.6084
-15.397
-15.2086
-15.0434
-14.9016
-14.7832
-14.6883
-14.6171
-14.5696
-14.5459
164.125
151.7
139.786
128.375
117.458
107.029
97.0765
87.5922
78.5651
69.9832
61.8383
54.1177
46.8085
39.8993
33.3794
27.2366
21.4582
16.0312
10.9434
6.18297
1.7381
-2.403
-6.25227
-9.82168
-13.1231
-16.168
-18.9679
-21.5339
-23.8768
-26.0071
-27.9352
-29.6712
-31.2249
-32.6059
-33.8236
-34.8869
-35.8047
-36.5855
-37.2374
-37.7684
-38.1863
-38.4984
-38.7117
-38.8332
-38.8694
-38.8267
-38.711
-38.5282
-38.2838
-37.983
-37.6311
-37.2327
-36.7925
-36.3148
-35.8038
-35.2635
-34.6975
-34.1094
-33.5025
-32.8801
-32.2451
-31.6003
-30.9484
-30.2919
-29.6331
-28.9742
-28.3174
-27.6645
-27.0174
-26.3777
-25.747
-25.1269
-24.5185
-23.9233
-23.3423
-22.7768
-22.2276
-21.6958
-21.1821
-20.6873
-20.2123
-19.7575
-19.3238
-18.9115
-18.5212
-18.1534
-17.8084
-17.4867
-17.1886
-16.9143
-16.6642
-16.4385
-16.2374
-16.061
-15.9095
-15.7831
-15.6819
-15.6059
-15.5552
-15.5298
174.483
161.274
148.608
136.476
124.871
113.784
103.203
93.1202
83.5233
74.3999
65.7409
57.5331
49.7626
42.4174
35.4859
28.9555
22.8124
17.0429
11.6341
6.57319
1.84782
-2.55462
-6.64683
-10.4415
-13.9512
-17.1884
-20.165
-22.8929
-25.3837
-27.6484
-29.6982
-31.5438
-33.1955
-34.6637
-35.9582
-37.0886
-38.0643
-38.8944
-39.5874
-40.152
-40.5963
-40.928
-41.1548
-41.284
-41.3225
-41.277
-41.154
-40.9597
-40.6999
-40.3802
-40.006
-39.5825
-39.1145
-38.6067
-38.0634
-37.489
-36.8872
-36.262
-35.6169
-34.9551
-34.28
-33.5946
-32.9015
-32.2036
-31.5032
-30.8028
-30.1045
-29.4105
-28.7225
-28.0424
-27.3719
-26.7126
-26.0659
-25.4331
-24.8155
-24.2142
-23.6304
-23.065
-22.5189
-21.9929
-21.4879
-21.0044
-20.5433
-20.105
-19.6901
-19.2991
-18.9323
-18.5903
-18.2734
-17.9818
-17.7159
-17.4759
-17.2621
-17.0746
-16.9136
-16.7792
-16.6716
-16.5908
-16.5369
-16.5099
184.798
170.808
157.393
144.545
132.253
120.51
109.304
98.6252
88.4609
78.7982
69.6273
60.9343
52.7044
44.925
37.5838
30.6673
24.161
18.0505
12.3218
6.96179
1.95708
-2.70562
-7.03975
-11.0588
-14.776
-18.2045
-21.3571
-24.2463
-26.8843
-29.2829
-31.4539
-33.4085
-35.158
-36.7129
-38.084
-39.2812
-40.3146
-41.1937
-41.9277
-42.5257
-42.9962
-43.3475
-43.5878
-43.7246
-43.7653
-43.7172
-43.5869
-43.3811
-43.1059
-42.7673
-42.371
-41.9225
-41.4268
-40.889
-40.3136
-39.7052
-39.0679
-38.4057
-37.7224
-37.0216
-36.3066
-35.5806
-34.8466
-34.1074
-33.3656
-32.6238
-31.8842
-31.1491
-30.4205
-29.7002
-28.9901
-28.2918
-27.6068
-26.9366
-26.2825
-25.6457
-25.0274
-24.4285
-23.8501
-23.2931
-22.7582
-22.2462
-21.7578
-21.2935
-20.8541
-20.44
-20.0516
-19.6893
-19.3536
-19.0448
-18.7632
-18.5091
-18.2826
-18.084
-17.9135
-17.7711
-17.6571
-17.5716
-17.5145
-17.4859
195.067
180.3
166.14
152.577
139.603
127.207
115.378
104.106
93.3768
83.1771
73.4965
64.3204
55.6332
47.4215
39.6724
32.3715
25.5036
19.0535
13.0066
7.34867
2.06586
-2.85595
-7.43093
-11.6733
-15.5971
-19.2162
-22.544
-25.5937
-28.3783
-30.9102
-33.2018
-35.2651
-37.1117
-38.7531
-40.2003
-41.4641
-42.5549
-43.4829
-44.2577
-44.8889
-45.3855
-45.7564
-46.01
-46.1544
-46.1974
-46.1466
-46.0091
-45.7918
-45.5013
-45.1439
-44.7256
-44.2521
-43.7289
-43.1612
-42.5539
-41.9116
-41.2389
-40.5399
-39.8187
-39.0789
-38.3242
-37.5578
-36.783
-36.0027
-35.2198
-34.4367
-33.6561
-32.8801
-32.111
-31.3507
-30.6011
-29.864
-29.1409
-28.4335
-27.743
-27.0709
-26.4182
-25.786
-25.1755
-24.5875
-24.0228
-23.4824
-22.9668
-22.4768
-22.013
-21.5758
-21.1658
-20.7835
-20.4291
-20.1032
-19.8059
-19.5376
-19.2986
-19.0889
-18.9089
-18.7587
-18.6384
-18.548
-18.4878
-18.4576
205.289
189.748
174.845
160.572
146.918
133.873
121.424
109.561
98.2695
87.5354
77.3476
67.6907
58.5483
49.9063
41.7511
34.0677
26.84
20.0519
13.6881
7.73375
2.17413
-3.00557
-7.82028
-12.285
-16.4144
-20.2231
-23.7252
-26.9348
-29.8652
-32.5299
-34.9415
-37.1129
-39.0563
-40.7837
-42.3067
-43.6368
-44.7847
-45.7613
-46.5767
-47.241
-47.7636
-48.154
-48.4208
-48.5728
-48.6181
-48.5646
-48.4199
-48.1912
-47.8855
-47.5094
-47.0692
-46.5709
-46.0203
-45.4228
-44.7836
-44.1077
-43.3998
-42.6642
-41.9051
-41.1266
-40.3323
-39.5258
-38.7104
-37.8892
-37.0652
-36.2411
-35.4196
-34.603
-33.7935
-32.9934
-32.2045
-31.4288
-30.6679
-29.9234
-29.1967
-28.4893
-27.8024
-27.1372
-26.4946
-25.8758
-25.2816
-24.7128
-24.1703
-23.6546
-23.1664
-22.7064
-22.2749
-21.8725
-21.4996
-21.1565
-20.8437
-20.5614
-20.3098
-20.0892
-19.8997
-19.7416
-19.615
-19.5199
-19.4565
-19.4248
215.459
199.148
183.507
168.527
154.196
140.505
127.439
114.989
103.138
91.8722
81.1796
71.0442
61.4489
52.3788
43.8196
35.7555
28.1697
21.0453
14.3662
8.11691
2.28186
-3.15445
-8.2077
-12.8936
-17.2276
-21.225
-24.9007
-28.2692
-31.3449
-34.1415
-36.6726
-38.9516
-40.9913
-42.8042
-44.4027
-45.7986
-47.0035
-48.0284
-48.8843
-49.5814
-50.13
-50.5396
-50.8197
-50.9792
-51.0267
-50.9706
-50.8187
-50.5787
-50.2579
-49.8631
-49.4011
-48.8781
-48.3002
-47.6732
-47.0023
-46.2929
-45.5499
-44.7779
-43.9812
-43.1641
-42.3304
-41.484
-40.6282
-39.7663
-38.9015
-38.0366
-37.1744
-36.3173
-35.4677
-34.628
-33.8
-32.9859
-32.1873
-31.4059
-30.6432
-29.9008
-29.1798
-28.4816
-27.8072
-27.1578
-26.5341
-25.9372
-25.3677
-24.8265
-24.3142
-23.8313
-23.3784
-22.9561
-22.5647
-22.2047
-21.8764
-21.58
-21.316
-21.0844
-20.8856
-20.7197
-20.5868
-20.487
-20.4204
-20.3871
225.576
208.5
192.124
176.44
161.437
147.103
133.424
120.388
107.981
96.1862
84.9916
74.3803
64.3344
54.8384
45.8773
37.4345
29.4925
22.0335
15.0408
8.49807
2.38903
-3.30256
-8.5931
-13.499
-18.0365
-22.2216
-26.0699
-29.5967
-32.8167
-35.7447
-38.3947
-40.7807
-42.9161
-44.8142
-46.4878
-47.9492
-49.2106
-50.2837
-51.1797
-51.9096
-52.484
-52.9128
-53.2061
-53.3731
-53.4228
-53.3641
-53.2051
-52.9538
-52.6179
-52.2046
-51.7209
-51.1733
-50.5683
-49.9118
-49.2094
-48.4667
-47.6888
-46.8805
-46.0464
-45.191
-44.3182
-43.432
-42.536
-41.6337
-40.7282
-39.8227
-38.92
-38.0226
-37.1332
-36.254
-35.3872
-34.5348
-33.6987
-32.8806
-32.0821
-31.3048
-30.55
-29.819
-29.113
-28.433
-27.7801
-27.1551
-26.5589
-25.9923
-25.4559
-24.9503
-24.4762
-24.0341
-23.6243
-23.2474
-22.9036
-22.5934
-22.3169
-22.0745
-21.8664
-21.6926
-21.5535
-21.449
-21.3793
-21.3444
235.638
217.8
200.694
184.31
168.638
153.664
139.375
125.758
112.798
100.477
88.7826
77.698
67.204
57.2844
47.9236
39.1043
30.808
23.0163
15.7117
8.87713
2.49561
-3.44985
-8.97638
-14.1011
-18.8411
-23.2128
-27.2328
-30.9168
-34.2805
-37.3391
-40.1073
-42.5997
-44.8304
-46.8131
-48.5613
-50.088
-51.4057
-52.5266
-53.4626
-54.2251
-54.825
-55.273
-55.5793
-55.7537
-55.8057
-55.7443
-55.5782
-55.3158
-54.9649
-54.5331
-54.0278
-53.4559
-52.8239
-52.138
-51.4044
-50.6286
-49.8159
-48.9716
-48.1003
-47.2067
-46.295
-45.3692
-44.4333
-43.4907
-42.5449
-41.599
-40.656
-39.7186
-38.7895
-37.8711
-36.9656
-36.0752
-35.2018
-34.3472
-33.5131
-32.7012
-31.9127
-31.1491
-30.4116
-29.7013
-29.0192
-28.3664
-27.7436
-27.1517
-26.5913
-26.0632
-25.568
-25.1061
-24.6781
-24.2843
-23.9252
-23.6011
-23.3124
-23.0591
-22.8417
-22.6602
-22.5148
-22.4057
-22.3329
-22.2965
245.642
227.046
209.214
192.135
175.797
160.188
145.292
131.097
117.586
104.742
92.5517
80.9965
70.057
59.7164
49.9582
40.7644
32.1158
23.9934
16.3787
9.254
2.60157
-3.59629
-9.35744
-14.6998
-19.6409
-24.1983
-28.3889
-32.2294
-35.7359
-38.9242
-41.81
-44.4082
-46.7336
-48.8005
-50.6229
-52.2144
-53.588
-54.7565
-55.7323
-56.5271
-57.1525
-57.6195
-57.9388
-58.1207
-58.1749
-58.1109
-57.9377
-57.6641
-57.2983
-56.8482
-56.3215
-55.7253
-55.0664
-54.3515
-53.5867
-52.7779
-51.9308
-51.0506
-50.1423
-49.2107
-48.2603
-47.2953
-46.3196
-45.337
-44.3511
-43.365
-42.3819
-41.4048
-40.4363
-39.4788
-38.5349
-37.6067
-36.6962
-35.8054
-34.9359
-34.0894
-33.2675
-32.4715
-31.7026
-30.9622
-30.2512
-29.5706
-28.9214
-28.3043
-27.7202
-27.1697
-26.6534
-26.1719
-25.7257
-25.3153
-24.9409
-24.6031
-24.302
-24.0381
-23.8114
-23.6222
-23.4707
-23.3569
-23.281
-23.2431
255.585
236.236
217.683
199.912
182.913
166.672
151.173
136.403
122.346
108.982
96.298
84.275
72.8927
62.1335
51.9804
42.4144
33.4158
24.9646
17.0417
9.62859
2.70689
-3.74184
-9.73619
-15.2948
-20.4359
-25.1778
-29.538
-33.5339
-37.1824
-40.4998
-43.5024
-46.2057
-48.6252
-50.7758
-52.672
-54.3279
-55.7571
-56.9729
-57.9882
-58.8152
-59.4659
-59.9518
-60.284
-60.4732
-60.5296
-60.463
-60.2829
-59.9982
-59.6176
-59.1493
-58.6012
-57.9809
-57.2954
-56.5515
-55.7557
-54.9142
-54.0328
-53.117
-52.172
-51.2027
-50.2138
-49.2097
-48.1945
-47.1722
-46.1463
-45.1203
-44.0975
-43.0808
-42.073
-41.0769
-40.0947
-39.1289
-38.1816
-37.2547
-36.35
-35.4693
-34.6141
-33.7858
-32.9859
-32.2155
-31.4757
-30.7675
-30.092
-29.45
-28.8423
-28.2695
-27.7323
-27.2313
-26.767
-26.34
-25.9505
-25.599
-25.2857
-25.0111
-24.7752
-24.5784
-24.4207
-24.3023
-24.2234
-24.1839
265.465
245.368
226.097
207.64
189.984
173.115
157.017
141.676
127.075
113.195
100.021
87.5327
75.7105
64.5354
53.9897
44.054
34.7075
25.9296
17.7005
10.0008
2.81154
-3.88647
-10.1125
-15.886
-21.2259
-26.1511
-30.6799
-34.8302
-38.6197
-42.0654
-45.184
-47.9919
-50.5049
-52.7386
-54.7081
-56.428
-57.9125
-59.1753
-60.2298
-61.0887
-61.7646
-62.2693
-62.6144
-62.8109
-62.8695
-62.8003
-62.6132
-62.3175
-61.9222
-61.4358
-60.8665
-60.2222
-59.5102
-58.7375
-57.911
-57.037
-56.1215
-55.1703
-54.1887
-53.182
-52.1549
-51.1119
-50.0575
-48.9957
-47.9301
-46.8645
-45.8021
-44.7461
-43.6994
-42.6647
-41.6446
-40.6415
-39.6575
-38.6948
-37.7552
-36.8404
-35.9521
-35.0919
-34.261
-33.4608
-32.6924
-31.9569
-31.2553
-30.5884
-29.9572
-29.3623
-28.8043
-28.284
-27.8018
-27.3582
-26.9536
-26.5885
-26.2632
-25.9779
-25.7329
-25.5285
-25.3647
-25.2418
-25.1598
-25.1187
275.279
254.44
234.456
215.317
197.007
179.515
162.822
146.914
131.773
117.38
103.718
90.7689
78.5095
66.9213
55.9858
45.6827
35.9907
26.8883
18.3549
10.3705
2.9155
-4.03014
-10.4864
-16.4733
-22.0106
-27.1179
-31.8141
-36.118
-40.0475
-43.6206
-46.8545
-49.7662
-52.3721
-54.6884
-56.7307
-58.5142
-60.0535
-61.3631
-62.4565
-63.3472
-64.0481
-64.5715
-64.9293
-65.1331
-65.1938
-65.1221
-64.9281
-64.6214
-64.2115
-63.7071
-63.1168
-62.4486
-61.7103
-60.9091
-60.052
-59.1457
-58.1964
-57.21
-56.1921
-55.1481
-54.0831
-53.0016
-51.9082
-50.8071
-49.7021
-48.5971
-47.4954
-46.4004
-45.315
-44.2421
-43.1843
-42.1441
-41.1237
-40.1254
-39.151
-38.2024
-37.2813
-36.3892
-35.5276
-34.6978
-33.9011
-33.1384
-32.4108
-31.7193
-31.0647
-30.4478
-29.8692
-29.3296
-28.8296
-28.3696
-27.9501
-27.5715
-27.2341
-26.9383
-26.6843
-26.4723
-26.3025
-26.175
-26.0899
-26.0474
285.026
263.449
242.757
222.94
203.983
185.871
168.587
152.116
136.439
121.536
107.391
93.9826
81.2892
69.2908
57.968
47.3002
37.265
27.8403
19.0047
10.7377
3.01874
-4.17282
-10.8577
-17.0565
-22.79
-28.0781
-32.9406
-37.3968
-41.4654
-45.165
-48.5134
-51.5282
-54.2264
-56.6247
-58.7393
-60.5859
-62.1798
-63.5357
-64.6678
-65.5901
-66.3158
-66.8577
-67.2282
-67.4392
-67.5021
-67.4278
-67.2269
-66.9094
-66.485
-65.9627
-65.3515
-64.6597
-63.8952
-63.0657
-62.1782
-61.2398
-60.2569
-59.2355
-58.1817
-57.1007
-55.9979
-54.8782
-53.746
-52.6059
-51.4619
-50.3177
-49.1771
-48.0432
-46.9194
-45.8085
-44.7132
-43.6362
-42.5797
-41.546
-40.5372
-39.555
-38.6013
-37.6776
-36.7855
-35.9264
-35.1013
-34.3117
-33.5584
-32.8424
-32.1646
-31.5258
-30.9268
-30.3681
-29.8503
-29.3741
-28.9397
-28.5477
-28.1984
-27.8921
-27.6291
-27.4096
-27.2337
-27.1017
-27.0137
-26.9696
294.702
272.392
250.999
230.509
210.908
192.181
174.31
157.28
141.071
125.662
111.036
97.1732
84.0489
71.6431
59.936
48.9059
38.53
28.7854
19.6499
11.1023
3.12123
-4.31447
-11.2263
-17.6356
-23.5636
-29.0313
-34.0589
-38.6663
-42.8731
-46.6983
-50.1604
-53.2775
-56.0673
-58.5471
-60.7334
-62.6427
-64.2907
-65.6926
-66.8632
-67.8168
-68.5671
-69.1274
-69.5105
-69.7286
-69.7936
-69.7169
-69.5091
-69.1809
-68.742
-68.2021
-67.5701
-66.8548
-66.0644
-65.2066
-64.2891
-63.3188
-62.3025
-61.2465
-60.1568
-59.0392
-57.899
-56.7412
-55.5706
-54.3918
-53.2089
-52.0259
-50.8465
-49.6742
-48.5122
-47.3636
-46.2312
-45.1176
-44.0252
-42.9565
-41.9133
-40.8978
-39.9117
-38.9567
-38.0343
-37.146
-36.293
-35.4765
-34.6976
-33.9573
-33.2565
-32.5961
-31.9767
-31.399
-30.8637
-30.3713
-29.9222
-29.5169
-29.1557
-28.839
-28.567
-28.3401
-28.1583
-28.0218
-27.9307
-27.8852
304.305
281.269
259.178
238.02
217.78
198.443
179.99
162.405
145.668
129.756
114.655
100.34
86.7878
73.9777
61.8891
50.4996
39.7856
29.7234
20.2903
11.4641
3.22295
-4.45505
-11.5921
-18.2103
-24.3315
-29.9773
-35.1687
-39.9264
-44.2703
-48.2201
-51.795
-55.0137
-57.8944
-60.4549
-62.7126
-64.6841
-66.3858
-67.8333
-69.0421
-70.0267
-70.8015
-71.38
-71.7756
-72.0009
-72.068
-71.9887
-71.7742
-71.4353
-70.9821
-70.4246
-69.772
-69.0334
-68.2172
-67.3315
-66.3841
-65.3822
-64.3327
-63.2423
-62.1172
-60.9631
-59.7857
-58.5902
-57.3815
-56.1643
-54.9428
-53.7213
-52.5035
-51.293
-50.0931
-48.9071
-47.7377
-46.5878
-45.4599
-44.3563
-43.2792
-42.2306
-41.2123
-40.2262
-39.2738
-38.3565
-37.4757
-36.6326
-35.8283
-35.0639
-34.3403
-33.6583
-33.0187
-32.4222
-31.8695
-31.361
-30.8972
-30.4787
-30.1058
-29.7788
-29.498
-29.2636
-29.0759
-28.9349
-28.8409
-28.7939
313.834
290.076
267.293
245.473
224.6
204.657
185.626
167.49
150.229
133.819
118.245
103.482
89.5053
76.2941
63.827
52.0809
41.0314
30.6541
20.9256
11.823
3.32388
-4.59454
-11.955
-18.7805
-25.0934
-30.916
-36.27
-41.1765
-45.6565
-49.73
-53.4168
-56.7363
-59.7072
-62.3479
-64.6762
-66.7095
-68.4644
-69.9573
-71.2039
-72.2194
-73.0184
-73.6151
-74.023
-74.2554
-74.3246
-74.2428
-74.0216
-73.672
-73.2047
-72.6297
-71.9567
-71.195
-70.3532
-69.4398
-68.4627
-67.4294
-66.3471
-65.2226
-64.0622
-62.872
-61.6577
-60.4248
-59.1782
-57.9229
-56.6632
-55.4034
-54.1475
-52.899
-51.6616
-50.4384
-49.2325
-48.0466
-46.8833
-45.7452
-44.6343
-43.5529
-42.5028
-41.4858
-40.5035
-39.5575
-38.6491
-37.7796
-36.9501
-36.1618
-35.4155
-34.7122
-34.0526
-33.4374
-32.8674
-32.3429
-31.8647
-31.4331
-31.0485
-30.7112
-30.4216
-30.1799
-29.9863
-29.841
-29.744
-29.6955
323.285
298.811
275.343
252.865
231.363
210.82
191.216
172.534
154.753
137.849
121.806
106.598
92.2007
78.5917
65.7491
53.6493
42.267
31.5772
21.5557
12.1791
3.42399
-4.73289
-12.3151
-19.346
-25.8491
-31.847
-37.3622
-42.4166
-47.0314
-51.2276
-55.0254
-58.4448
-61.5052
-64.2255
-66.6239
-68.7184
-70.5262
-72.0641
-73.3482
-74.3942
-75.2173
-75.832
-76.2522
-76.4915
-76.5628
-76.4786
-76.2507
-75.8906
-75.4092
-74.8169
-74.1237
-73.339
-72.4719
-71.5309
-70.5244
-69.46
-68.3451
-67.1867
-65.9914
-64.7653
-63.5145
-62.2444
-60.9604
-59.6672
-58.3696
-57.0719
-55.7781
-54.4921
-53.2174
-51.9574
-50.7151
-49.4935
-48.2952
-47.1228
-45.9785
-44.8645
-43.7827
-42.7351
-41.7232
-40.7487
-39.813
-38.9173
-38.0629
-37.2508
-36.4821
-35.7575
-35.0781
-34.4444
-33.8571
-33.3169
-32.8243
-32.3797
-31.9835
-31.6361
-31.3377
-31.0887
-30.8893
-30.7396
-30.6397
-30.5898
332.656
307.473
283.324
260.195
238.07
216.931
196.759
177.536
159.239
141.845
125.336
109.688
94.8733
80.8699
67.655
55.2044
43.4922
32.4926
22.1806
12.5321
3.52325
-4.87007
-12.672
-19.9068
-26.5984
-32.7702
-38.4453
-43.6461
-48.3947
-52.7125
-56.6205
-60.139
-63.2881
-66.0872
-68.5552
-70.7104
-72.5706
-74.153
-75.4744
-76.5507
-77.3977
-78.0301
-78.4626
-78.7088
-78.7822
-78.6955
-78.4611
-78.0905
-77.5951
-76.9857
-76.2723
-75.4649
-74.5726
-73.6044
-72.5687
-71.4735
-70.3263
-69.1343
-67.9043
-66.6427
-65.3556
-64.0487
-62.7274
-61.3968
-60.0616
-58.7262
-57.3949
-56.0716
-54.76
-53.4635
-52.1852
-50.9282
-49.6951
-48.4887
-47.3113
-46.165
-45.0519
-43.9739
-42.9327
-41.9299
-40.9671
-40.0454
-39.1662
-38.3306
-37.5396
-36.7941
-36.0949
-35.4428
-34.8386
-34.2827
-33.7758
-33.3183
-32.9106
-32.5531
-32.2461
-31.9899
-31.7847
-31.6307
-31.5279
-31.4765
341.945
316.059
291.236
267.461
244.718
222.989
202.253
182.493
163.685
145.806
128.836
112.751
97.5226
83.1281
69.5442
56.746
44.7067
33.3999
22.8
12.8821
3.62164
-5.00605
-13.0259
-20.4627
-27.3411
-33.6852
-39.5188
-44.8649
-49.7461
-54.1845
-58.2015
-61.8184
-65.0554
-67.9327
-70.4695
-72.6849
-74.597
-76.2237
-77.5819
-78.6884
-79.5589
-80.2091
-80.6536
-80.9067
-80.9821
-80.893
-80.652
-80.2711
-79.7619
-79.1354