/*--------------------------------*- C++ -*----------------------------------*\
| =========                 |                                                 |
| \\      /  F ield         | OpenFOAM: The Open Source CFD Toolbox           |
|  \\    /   O peration     | Version:  2406                                  |
|   \\  /    A nd           | Website:  www.openfoam.com                      |
|    \\/     M anipulation  |                                                 |
\*---------------------------------------------------------------------------*/
FoamFile
{
    version     2.0;
    format      ascii;
    arch        "LSB;label=32;scalar=64";
    class       volScalarField;
    location    "115";
    object      T;
}
// * * * * * * * * * * * * * * * * * * * * * * * * * * * * * * * * * * * * * //

dimensions      [0 0 0 1 0 0 0];

internalField   nonuniform List<scalar> 
20000
(
300.333
300.349
300.362
300.374
300.384
300.392
300.399
300.404
300.408
300.411
300.412
300.412
300.412
300.41
300.408
300.404
300.4
300.396
300.39
300.385
300.378
300.372
300.365
300.357
300.35
300.342
300.334
300.325
300.317
300.309
300.3
300.292
300.283
300.275
300.266
300.258
300.249
300.241
300.233
300.224
300.217
300.209
300.201
300.193
300.186
300.179
300.172
300.165
300.158
300.152
300.145
300.139
300.133
300.127
300.122
300.116
300.111
300.106
300.101
300.096
300.091
300.087
300.083
300.079
300.075
300.071
300.067
300.064
300.06
300.057
300.054
300.051
300.048
300.045
300.043
300.04
300.038
300.036
300.033
300.031
300.029
300.027
300.025
300.024
300.022
300.02
300.018
300.017
300.015
300.014
300.012
300.011
300.01
300.008
300.007
300.006
300.004
300.003
300.002
300.001
300.998
301.045
301.086
301.122
301.152
301.177
301.197
301.212
301.224
301.232
301.236
301.237
301.235
301.23
301.222
301.213
301.201
301.187
301.171
301.154
301.135
301.115
301.094
301.072
301.049
301.025
301.001
300.976
300.951
300.926
300.901
300.875
300.849
300.824
300.798
300.773
300.747
300.722
300.698
300.673
300.649
300.626
300.603
300.58
300.558
300.536
300.515
300.494
300.474
300.455
300.435
300.417
300.399
300.381
300.365
300.348
300.332
300.317
300.302
300.288
300.274
300.261
300.248
300.236
300.224
300.213
300.202
300.191
300.181
300.171
300.162
300.153
300.145
300.136
300.129
300.121
300.114
300.107
300.1
300.094
300.088
300.082
300.076
300.071
300.065
300.06
300.055
300.051
300.046
300.041
300.037
300.033
300.029
300.025
300.021
300.017
300.013
300.009
300.006
300.002
301.664
301.742
301.81
301.869
301.919
301.961
301.994
302.02
302.04
302.053
302.06
302.061
302.058
302.05
302.037
302.021
302.001
301.977
301.951
301.922
301.891
301.858
301.823
301.786
301.748
301.708
301.668
301.627
301.585
301.543
301.501
301.458
301.415
301.372
301.33
301.287
301.245
301.204
301.163
301.122
301.082
301.043
301.004
300.967
300.93
300.894
300.858
300.824
300.79
300.757
300.726
300.695
300.665
300.636
300.608
300.58
300.554
300.528
300.504
300.48
300.457
300.435
300.414
300.393
300.373
300.354
300.336
300.319
300.302
300.286
300.27
300.255
300.241
300.227
300.214
300.202
300.19
300.178
300.167
300.156
300.146
300.136
300.127
300.118
300.109
300.1
300.092
300.084
300.077
300.069
300.062
300.055
300.048
300.041
300.035
300.028
300.022
300.016
300.009
300.003
302.329
302.438
302.534
302.616
302.686
302.744
302.791
302.828
302.855
302.873
302.883
302.885
302.88
302.869
302.851
302.828
302.8
302.768
302.731
302.691
302.647
302.6
302.551
302.5
302.446
302.391
302.335
302.277
302.219
302.16
302.1
302.041
301.981
301.921
301.861
301.802
301.743
301.685
301.627
301.571
301.515
301.46
301.406
301.353
301.301
301.251
301.201
301.153
301.106
301.06
301.016
300.972
300.93
300.89
300.85
300.812
300.775
300.74
300.705
300.672
300.64
300.609
300.579
300.55
300.523
300.496
300.471
300.446
300.423
300.4
300.378
300.357
300.337
300.318
300.3
300.282
300.265
300.249
300.234
300.219
300.204
300.191
300.177
300.164
300.152
300.14
300.129
300.118
300.107
300.097
300.087
300.077
300.067
300.058
300.049
300.04
300.031
300.022
300.013
300.004
302.993
303.134
303.257
303.363
303.452
303.527
303.587
303.635
303.669
303.693
303.705
303.708
303.702
303.687
303.665
303.635
303.599
303.557
303.51
303.458
303.402
303.342
303.279
303.213
303.144
303.073
303.001
302.927
302.852
302.776
302.7
302.623
302.546
302.469
302.392
302.316
302.24
302.166
302.092
302.019
301.947
301.876
301.807
301.739
301.673
301.607
301.544
301.482
301.421
301.363
301.305
301.25
301.196
301.144
301.093
301.044
300.996
300.951
300.906
300.863
300.822
300.782
300.744
300.707
300.672
300.638
300.605
300.573
300.543
300.514
300.486
300.459
300.434
300.409
300.385
300.363
300.341
300.32
300.3
300.281
300.263
300.245
300.228
300.211
300.196
300.18
300.166
300.151
300.138
300.124
300.111
300.099
300.086
300.074
300.063
300.051
300.039
300.028
300.017
300.006
303.657
303.829
303.979
304.108
304.218
304.309
304.383
304.44
304.483
304.511
304.527
304.53
304.523
304.505
304.477
304.441
304.397
304.346
304.288
304.225
304.156
304.083
304.006
303.925
303.841
303.755
303.666
303.576
303.484
303.392
303.298
303.204
303.11
303.016
302.923
302.829
302.737
302.646
302.555
302.466
302.379
302.292
302.208
302.125
302.043
301.964
301.886
301.81
301.737
301.665
301.595
301.527
301.461
301.397
301.335
301.275
301.217
301.161
301.107
301.055
301.005
300.956
300.909
300.864
300.821
300.779
300.739
300.701
300.664
300.628
300.594
300.561
300.53
300.5
300.471
300.443
300.417
300.391
300.367
300.343
300.321
300.299
300.278
300.258
300.239
300.22
300.202
300.185
300.168
300.152
300.136
300.121
300.106
300.091
300.076
300.062
300.048
300.034
300.021
300.007
304.319
304.523
304.7
304.853
304.982
305.09
305.177
305.245
305.295
305.329
305.347
305.351
305.342
305.321
305.288
305.246
305.194
305.133
305.065
304.991
304.91
304.823
304.732
304.636
304.537
304.435
304.331
304.224
304.116
304.006
303.896
303.785
303.674
303.563
303.452
303.342
303.233
303.125
303.019
302.913
302.81
302.708
302.608
302.51
302.414
302.32
302.228
302.139
302.051
301.966
301.884
301.804
301.726
301.65
301.577
301.506
301.438
301.372
301.308
301.246
301.187
301.129
301.074
301.021
300.97
300.92
300.873
300.827
300.784
300.742
300.702
300.663
300.626
300.59
300.556
300.524
300.492
300.462
300.433
300.406
300.379
300.353
300.329
300.305
300.282
300.26
300.239
300.219
300.199
300.179
300.161
300.143
300.125
300.107
300.09
300.073
300.057
300.041
300.024
300.008
304.981
305.216
305.42
305.596
305.746
305.87
305.97
306.049
306.107
306.145
306.167
306.171
306.161
306.136
306.099
306.049
305.989
305.92
305.841
305.755
305.662
305.562
305.457
305.347
305.233
305.115
304.994
304.871
304.746
304.62
304.493
304.365
304.236
304.109
303.981
303.854
303.728
303.604
303.481
303.36
303.24
303.123
303.007
302.894
302.783
302.675
302.569
302.466
302.366
302.268
302.172
302.08
301.99
301.903
301.819
301.737
301.658
301.582
301.508
301.437
301.368
301.302
301.238
301.177
301.118
301.061
301.007
300.954
300.904
300.856
300.809
300.765
300.722
300.681
300.642
300.604
300.568
300.533
300.5
300.468
300.437
300.407
300.379
300.352
300.326
300.3
300.276
300.252
300.229
300.207
300.185
300.164
300.144
300.124
300.104
300.085
300.066
300.047
300.028
300.009
305.641
305.907
306.139
306.338
306.507
306.648
306.762
306.851
306.916
306.96
306.984
306.989
306.977
306.95
306.907
306.851
306.784
306.705
306.616
306.518
306.412
306.299
306.18
306.056
305.926
305.793
305.656
305.517
305.375
305.232
305.088
304.943
304.798
304.653
304.509
304.365
304.223
304.082
303.943
303.805
303.67
303.537
303.406
303.278
303.152
303.03
302.91
302.793
302.679
302.568
302.461
302.356
302.254
302.156
302.06
301.968
301.878
301.792
301.708
301.627
301.55
301.475
301.403
301.333
301.266
301.202
301.14
301.081
301.024
300.969
300.916
300.866
300.818
300.771
300.727
300.684
300.643
300.604
300.566
300.53
300.495
300.462
300.429
300.398
300.369
300.34
300.312
300.286
300.26
300.234
300.21
300.186
300.163
300.14
300.118
300.096
300.074
300.053
300.032
300.011
306.3
306.597
306.856
307.079
307.267
307.424
307.552
307.651
307.724
307.773
307.8
307.806
307.792
307.761
307.714
307.652
307.576
307.488
307.389
307.279
307.161
307.035
306.902
306.763
306.619
306.47
306.317
306.161
306.003
305.844
305.683
305.521
305.359
305.197
305.036
304.875
304.716
304.559
304.403
304.25
304.098
303.95
303.804
303.661
303.521
303.384
303.25
303.119
302.992
302.868
302.748
302.631
302.517
302.407
302.301
302.197
302.097
302.001
301.908
301.818
301.731
301.647
301.566
301.489
301.414
301.342
301.273
301.207
301.143
301.082
301.023
300.967
300.913
300.861
300.811
300.764
300.718
300.674
300.632
300.592
300.553
300.515
300.48
300.445
300.412
300.38
300.349
300.319
300.29
300.262
300.234
300.208
300.182
300.157
300.132
300.107
300.083
300.059
300.035
300.012
306.958
307.286
307.571
307.817
308.026
308.199
308.34
308.449
308.53
308.585
308.614
308.62
308.606
308.571
308.519
308.45
308.367
308.269
308.16
308.039
307.909
307.769
307.622
307.469
307.309
307.145
306.976
306.804
306.63
306.453
306.276
306.097
305.918
305.739
305.561
305.384
305.208
305.034
304.863
304.693
304.526
304.362
304.201
304.043
303.888
303.737
303.589
303.445
303.304
303.168
303.035
302.906
302.78
302.659
302.541
302.427
302.316
302.21
302.107
302.007
301.911
301.819
301.73
301.644
301.562
301.482
301.406
301.333
301.263
301.195
301.13
301.068
301.008
300.951
300.896
300.843
300.793
300.744
300.698
300.653
300.61
300.569
300.53
300.491
300.455
300.419
300.385
300.352
300.32
300.289
300.259
300.23
300.201
300.173
300.145
300.118
300.092
300.065
300.039
300.013
307.614
307.972
308.285
308.554
308.782
308.972
309.126
309.246
309.334
309.394
309.426
309.433
309.417
309.379
309.322
309.247
309.155
309.049
308.929
308.797
308.654
308.502
308.341
308.173
307.998
307.818
307.634
307.446
307.255
307.062
306.867
306.671
306.476
306.28
306.085
305.891
305.699
305.509
305.321
305.135
304.953
304.773
304.597
304.424
304.255
304.089
303.927
303.77
303.616
303.466
303.321
303.179
303.042
302.909
302.78
302.655
302.535
302.418
302.305
302.196
302.092
301.99
301.893
301.799
301.709
301.622
301.539
301.459
301.382
301.308
301.237
301.169
301.103
301.041
300.981
300.923
300.868
300.815
300.764
300.715
300.668
300.623
300.58
300.538
300.498
300.459
300.421
300.385
300.35
300.316
300.283
300.251
300.22
300.189
300.159
300.129
300.1
300.071
300.043
300.014
308.267
308.657
308.997
309.289
309.536
309.742
309.909
310.04
310.136
310.2
310.235
310.243
310.225
310.185
310.122
310.041
309.941
309.826
309.696
309.552
309.397
309.232
309.057
308.874
308.685
308.49
308.289
308.085
307.878
307.668
307.457
307.244
307.032
306.819
306.608
306.397
306.189
305.982
305.778
305.576
305.378
305.183
304.992
304.804
304.62
304.44
304.265
304.093
303.926
303.764
303.606
303.452
303.303
303.159
303.019
302.883
302.752
302.626
302.503
302.385
302.271
302.161
302.056
301.954
301.856
301.761
301.671
301.584
301.5
301.42
301.343
301.269
301.198
301.13
301.065
301.002
300.942
300.885
300.829
300.776
300.725
300.676
300.629
300.584
300.54
300.498
300.458
300.418
300.38
300.344
300.308
300.273
300.239
300.205
300.173
300.141
300.109
300.078
300.046
300.015
308.919
309.34
309.706
310.021
310.288
310.511
310.691
310.831
310.935
311.005
311.042
311.05
311.032
310.988
310.921
310.832
310.725
310.6
310.46
310.305
310.138
309.96
309.771
309.574
309.37
309.159
308.943
308.723
308.499
308.273
308.045
307.816
307.586
307.357
307.129
306.902
306.677
306.454
306.233
306.016
305.802
305.592
305.385
305.183
304.984
304.79
304.601
304.416
304.236
304.061
303.89
303.725
303.564
303.408
303.257
303.111
302.969
302.833
302.701
302.573
302.45
302.332
302.218
302.108
302.002
301.9
301.803
301.709
301.619
301.532
301.449
301.369
301.293
301.219
301.149
301.081
301.016
300.954
300.895
300.837
300.783
300.73
300.679
300.63
300.583
300.538
300.494
300.451
300.41
300.371
300.332
300.294
300.258
300.222
300.186
300.152
300.118
300.084
300.05
300.017
309.569
310.02
310.413
310.751
311.038
311.276
311.469
311.62
311.731
311.806
311.846
311.855
311.835
311.788
311.716
311.621
311.506
311.372
311.222
311.056
310.876
310.685
310.483
310.271
310.052
309.826
309.594
309.358
309.118
308.875
308.631
308.385
308.139
307.893
307.648
307.404
307.163
306.924
306.687
306.454
306.225
305.999
305.777
305.56
305.347
305.139
304.936
304.738
304.545
304.356
304.174
303.996
303.823
303.656
303.494
303.337
303.186
303.039
302.897
302.761
302.629
302.502
302.379
302.261
302.148
302.039
301.934
301.833
301.736
301.644
301.554
301.469
301.387
301.308
301.232
301.16
301.091
301.024
300.96
300.898
300.839
300.783
300.728
300.676
300.625
300.577
300.53
300.484
300.44
300.398
300.356
300.316
300.276
300.238
300.2
300.163
300.126
300.09
300.054
300.018
310.216
310.698
311.117
311.478
311.784
312.039
312.245
312.406
312.525
312.605
312.648
312.657
312.636
312.585
312.508
312.407
312.285
312.142
311.981
311.804
311.612
311.408
311.192
310.966
310.732
310.491
310.243
309.991
309.735
309.476
309.214
308.952
308.689
308.427
308.165
307.905
307.647
307.392
307.14
306.891
306.646
306.405
306.168
305.936
305.709
305.487
305.27
305.058
304.852
304.651
304.456
304.266
304.082
303.904
303.731
303.563
303.401
303.244
303.093
302.947
302.806
302.671
302.54
302.414
302.293
302.177
302.065
301.957
301.854
301.755
301.659
301.568
301.481
301.396
301.316
301.238
301.164
301.093
301.025
300.959
300.896
300.836
300.778
300.722
300.668
300.616
300.566
300.517
300.47
300.425
300.38
300.337
300.295
300.254
300.213
300.174
300.135
300.096
300.057
300.019
310.861
311.373
311.819
312.203
312.528
312.799
313.018
313.189
313.315
313.4
313.446
313.456
313.433
313.379
313.298
313.191
313.06
312.908
312.737
312.549
312.345
312.128
311.898
311.658
311.409
311.153
310.89
310.621
310.349
310.074
309.796
309.517
309.238
308.959
308.681
308.404
308.13
307.859
307.59
307.326
307.065
306.809
306.557
306.311
306.069
305.833
305.602
305.377
305.158
304.945
304.737
304.535
304.34
304.15
303.966
303.788
303.616
303.449
303.288
303.133
302.984
302.839
302.7
302.567
302.438
302.314
302.195
302.081
301.971
301.865
301.764
301.667
301.574
301.485
301.399
301.317
301.238
301.162
301.089
301.02
300.953
300.889
300.827
300.767
300.71
300.655
300.601
300.55
300.5
300.451
300.404
300.358
300.314
300.27
300.227
300.185
300.143
300.102
300.061
300.02
311.503
312.045
312.517
312.924
313.269
313.555
313.787
313.969
314.103
314.192
314.241
314.252
314.227
314.17
314.084
313.97
313.832
313.671
313.49
313.291
313.075
312.845
312.602
312.348
312.084
311.812
311.534
311.249
310.961
310.669
310.375
310.08
309.784
309.488
309.194
308.901
308.611
308.323
308.039
307.759
307.483
307.211
306.945
306.684
306.428
306.178
305.934
305.695
305.463
305.237
305.017
304.804
304.596
304.395
304.2
304.012
303.829
303.653
303.483
303.319
303.16
303.007
302.86
302.718
302.582
302.451
302.325
302.204
302.087
301.976
301.869
301.766
301.667
301.572
301.482
301.394
301.311
301.231
301.154
301.08
301.009
300.941
300.876
300.813
300.752
300.693
300.637
300.582
300.529
300.478
300.428
300.38
300.332
300.286
300.24
300.196
300.152
300.108
300.065
300.022
312.142
312.715
313.213
313.642
314.006
314.309
314.554
314.745
314.886
314.981
315.032
315.044
315.018
314.958
314.867
314.747
314.601
314.431
314.24
314.029
313.801
313.558
313.302
313.034
312.755
312.469
312.174
311.875
311.57
311.262
310.952
310.64
310.327
310.015
309.705
309.396
309.089
308.786
308.486
308.19
307.899
307.612
307.331
307.055
306.785
306.521
306.263
306.012
305.767
305.528
305.296
305.07
304.852
304.639
304.434
304.235
304.042
303.856
303.676
303.503
303.336
303.174
303.019
302.869
302.725
302.587
302.454
302.326
302.203
302.086
301.972
301.864
301.76
301.66
301.564
301.472
301.384
301.299
301.218
301.14
301.065
300.993
300.924
300.858
300.794
300.732
300.672
300.615
300.559
300.505
300.452
300.401
300.351
300.302
300.254
300.207
300.16
300.114
300.068
300.023
312.778
313.381
313.905
314.357
314.74
315.058
315.316
315.518
315.666
315.766
315.82
315.832
315.805
315.742
315.646
315.519
315.366
315.187
314.986
314.764
314.525
314.269
313.999
313.717
313.424
313.122
312.812
312.497
312.176
311.852
311.525
311.197
310.869
310.54
310.213
309.888
309.565
309.246
308.93
308.619
308.312
308.011
307.715
307.425
307.141
306.863
306.592
306.327
306.069
305.818
305.573
305.336
305.106
304.883
304.666
304.457
304.254
304.058
303.869
303.686
303.51
303.341
303.177
303.02
302.868
302.723
302.583
302.448
302.319
302.195
302.076
301.961
301.852
301.747
301.646
301.549
301.456
301.367
301.282
301.2
301.121
301.045
300.973
300.903
300.835
300.77
300.707
300.647
300.588
300.531
300.476
300.422
300.369
300.318
300.267
300.217
300.168
300.12
300.072
300.024
313.412
314.044
314.594
315.068
315.47
315.804
316.075
316.286
316.442
316.547
316.604
316.616
316.588
316.521
316.421
316.288
316.127
315.939
315.728
315.496
315.244
314.976
314.692
314.396
314.089
313.772
313.447
313.116
312.779
312.439
312.096
311.752
311.407
311.062
310.719
310.378
310.039
309.704
309.373
309.046
308.724
308.408
308.097
307.793
307.495
307.203
306.918
306.64
306.369
306.106
305.85
305.601
305.359
305.124
304.897
304.677
304.465
304.259
304.061
303.869
303.684
303.506
303.335
303.169
303.01
302.857
302.711
302.569
302.434
302.304
302.179
302.059
301.944
301.833
301.727
301.626
301.528
301.435
301.345
301.259
301.177
301.097
301.021
300.947
300.877
300.808
300.742
300.679
300.617
300.557
300.499
300.443
300.387
300.333
300.28
300.228
300.177
300.126
300.075
300.025
314.041
314.703
315.28
315.776
316.197
316.546
316.83
317.051
317.215
317.324
317.383
317.396
317.367
317.297
317.192
317.053
316.884
316.688
316.467
316.223
315.96
315.679
315.382
315.072
314.75
314.419
314.079
313.732
313.38
313.023
312.664
312.304
311.943
311.582
311.222
310.865
310.511
310.16
309.813
309.471
309.134
308.803
308.478
308.159
307.846
307.541
307.243
306.952
306.669
306.393
306.124
305.864
305.61
305.365
305.127
304.897
304.674
304.459
304.251
304.051
303.857
303.671
303.491
303.318
303.152
302.992
302.838
302.69
302.548
302.412
302.281
302.155
302.035
301.919
301.808
301.702
301.6
301.502
301.409
301.318
301.232
301.149
301.069
300.992
300.918
300.846
300.777
300.711
300.646
300.583
300.523
300.463
300.406
300.349
300.293
300.239
300.185
300.132
300.079
300.026
314.668
315.359
315.961
316.48
316.919
317.284
317.58
317.812
317.982
318.097
318.159
318.172
318.141
318.069
317.959
317.814
317.637
317.432
317.201
316.947
316.672
316.378
316.069
315.745
315.408
315.062
314.707
314.344
313.976
313.604
313.229
312.853
312.475
312.098
311.723
311.35
310.979
310.613
310.251
309.893
309.541
309.195
308.856
308.523
308.196
307.878
307.566
307.262
306.966
306.678
306.397
306.125
305.861
305.604
305.356
305.116
304.883
304.658
304.441
304.231
304.029
303.835
303.647
303.466
303.292
303.125
302.964
302.81
302.662
302.519
302.383
302.251
302.126
302.005
301.889
301.778
301.672
301.569
301.471
301.377
301.287
301.2
301.116
301.036
300.959
300.884
300.812
300.742
300.675
300.609
300.546
300.484
300.424
300.364
300.307
300.249
300.193
300.138
300.082
300.027
315.29
316.011
316.639
317.179
317.637
318.018
318.327
318.568
318.746
318.865
318.93
318.944
318.911
318.836
318.721
318.57
318.386
318.172
317.931
317.666
317.38
317.074
316.751
316.413
316.063
315.701
315.331
314.953
314.57
314.182
313.791
313.398
313.005
312.612
312.221
311.832
311.446
311.063
310.686
310.313
309.946
309.586
309.232
308.884
308.544
308.212
307.887
307.57
307.262
306.961
306.669
306.385
306.11
305.842
305.583
305.333
305.09
304.856
304.63
304.411
304.2
303.997
303.802
303.613
303.432
303.258
303.09
302.929
302.775
302.626
302.484
302.347
302.216
302.09
301.969
301.854
301.743
301.636
301.534
301.436
301.341
301.251
301.164
301.08
300.999
300.922
300.846
300.774
300.704
300.635
300.569
300.505
300.442
300.38
300.32
300.26
300.201
300.143
300.086
300.029
315.909
316.659
317.312
317.875
318.351
318.748
319.069
319.319
319.505
319.629
319.696
319.711
319.677
319.598
319.479
319.322
319.13
318.908
318.657
318.381
318.083
317.765
317.429
317.077
316.713
316.337
315.951
315.558
315.159
314.756
314.349
313.941
313.531
313.123
312.715
312.31
311.909
311.511
311.118
310.731
310.349
309.974
309.605
309.244
308.89
308.544
308.206
307.877
307.556
307.243
306.939
306.644
306.357
306.079
305.809
305.549
305.296
305.052
304.817
304.59
304.37
304.159
303.956
303.76
303.571
303.39
303.215
303.048
302.887
302.733
302.584
302.442
302.306
302.175
302.049
301.929
301.813
301.702
301.596
301.494
301.396
301.302
301.211
301.124
301.04
300.959
300.881
300.805
300.732
300.661
300.592
300.525
300.459
300.395
300.332
300.271
300.21
300.149
300.089
300.03
316.524
317.303
317.982
318.565
319.061
319.472
319.806
320.066
320.259
320.387
320.457
320.473
320.437
320.356
320.232
320.069
319.87
319.639
319.378
319.092
318.782
318.451
318.102
317.737
317.359
316.968
316.568
316.16
315.745
315.326
314.904
314.479
314.054
313.63
313.207
312.786
312.369
311.956
311.548
311.146
310.749
310.359
309.977
309.601
309.234
308.875
308.524
308.181
307.848
307.523
307.207
306.9
306.603
306.314
306.034
305.763
305.501
305.248
305.003
304.767
304.539
304.32
304.108
303.905
303.709
303.521
303.34
303.166
302.999
302.838
302.684
302.536
302.395
302.259
302.128
302.003
301.883
301.768
301.658
301.552
301.45
301.352
301.258
301.167
301.08
300.996
300.915
300.836
300.76
300.687
300.615
300.545
300.477
300.411
300.345
300.281
300.218
300.155
300.093
300.031
317.135
317.943
318.646
319.252
319.765
320.192
320.538
320.808
321.007
321.141
321.214
321.229
321.193
321.108
320.98
320.811
320.604
320.365
320.095
319.798
319.476
319.134
318.772
318.393
318.001
317.596
317.181
316.757
316.328
315.893
315.455
315.015
314.574
314.134
313.695
313.259
312.826
312.398
311.975
311.558
311.147
310.742
310.345
309.956
309.575
309.203
308.839
308.484
308.138
307.801
307.474
307.155
306.847
306.547
306.257
305.976
305.704
305.442
305.188
304.943
304.707
304.48
304.26
304.049
303.846
303.651
303.463
303.283
303.109
302.943
302.783
302.63
302.483
302.342
302.207
302.077
301.953
301.833
301.719
301.609
301.503
301.402
301.304
301.21
301.12
301.033
300.949
300.867
300.788
300.712
300.638
300.565
300.495
300.426
300.358
300.291
300.226
300.161
300.096
300.032
317.742
318.578
319.307
319.934
320.465
320.907
321.265
321.545
321.751
321.89
321.965
321.981
321.943
321.856
321.723
321.547
321.334
321.086
320.806
320.499
320.166
319.811
319.436
319.044
318.638
318.219
317.789
317.351
316.906
316.456
316.002
315.546
315.09
314.634
314.18
313.729
313.281
312.837
312.399
311.967
311.541
311.123
310.712
310.309
309.914
309.529
309.152
308.784
308.426
308.077
307.738
307.409
307.089
306.779
306.479
306.188
305.906
305.634
305.372
305.118
304.874
304.638
304.411
304.193
303.982
303.78
303.586
303.399
303.22
303.047
302.882
302.723
302.571
302.425
302.285
302.151
302.022
301.898
301.78
301.666
301.557
301.451
301.35
301.253
301.16
301.069
300.982
300.898
300.816
300.737
300.66
300.585
300.512
300.441
300.371
300.302
300.234
300.166
300.1
300.033
318.344
319.209
319.962
320.61
321.16
321.617
321.987
322.276
322.49
322.633
322.71
322.727
322.688
322.598
322.46
322.279
322.058
321.802
321.513
321.195
320.851
320.484
320.096
319.691
319.271
318.837
318.393
317.94
317.48
317.014
316.545
316.074
315.602
315.131
314.661
314.195
313.731
313.273
312.82
312.373
311.933
311.5
311.075
310.659
310.251
309.852
309.462
309.082
308.712
308.352
308.001
307.66
307.33
307.009
306.698
306.398
306.107
305.826
305.554
305.292
305.039
304.796
304.561
304.335
304.118
303.908
303.707
303.514
303.329
303.151
302.98
302.816
302.658
302.507
302.363
302.224
302.091
301.963
301.84
301.722
301.609
301.501
301.396
301.296
301.199
301.106
301.016
300.928
300.844
300.762
300.683
300.605
300.53
300.456
300.383
300.312
300.242
300.172
300.103
300.034
318.942
319.835
320.612
321.282
321.849
322.321
322.704
323.002
323.223
323.37
323.45
323.468
323.428
323.334
323.192
323.005
322.777
322.512
322.214
321.885
321.53
321.151
320.751
320.333
319.899
319.451
318.992
318.524
318.049
317.569
317.084
316.598
316.111
315.624
315.139
314.657
314.179
313.706
313.238
312.776
312.322
311.875
311.436
311.006
310.585
310.173
309.771
309.378
308.996
308.624
308.262
307.91
307.569
307.238
306.917
306.606
306.306
306.016
305.735
305.465
305.204
304.952
304.71
304.476
304.252
304.036
303.828
303.629
303.437
303.253
303.077
302.908
302.745
302.589
302.44
302.296
302.159
302.027
301.9
301.779
301.662
301.55
301.442
301.338
301.238
301.142
301.049
300.959
300.872
300.787
300.705
300.625
300.547
300.471
300.396
300.322
300.25
300.178
300.106
300.035
319.535
320.456
321.258
321.948
322.534
323.02
323.415
323.722
323.95
324.102
324.185
324.203
324.161
324.065
323.918
323.725
323.49
323.217
322.909
322.571
322.204
321.813
321.401
320.969
320.522
320.06
319.587
319.104
318.614
318.119
317.619
317.118
316.615
316.113
315.613
315.116
314.623
314.135
313.652
313.176
312.708
312.247
311.794
311.351
310.916
310.492
310.077
309.672
309.278
308.894
308.52
308.158
307.806
307.464
307.133
306.813
306.503
306.204
305.915
305.636
305.366
305.107
304.857
304.616
304.385
304.162
303.948
303.742
303.545
303.355
303.173
302.999
302.831
302.67
302.516
302.368
302.226
302.09
301.96
301.834
301.714
301.598
301.487
301.38
301.277
301.177
301.081
300.989
300.899
300.812
300.727
300.645
300.564
300.485
300.408
300.332
300.257
300.183
300.11
300.037
320.123
321.072
321.898
322.609
323.212
323.713
324.12
324.437
324.671
324.828
324.913
324.932
324.889
324.79
324.638
324.44
324.198
323.916
323.599
323.25
322.873
322.47
322.045
321.601
321.14
320.664
320.177
319.68
319.175
318.664
318.15
317.633
317.116
316.599
316.083
315.571
315.063
314.56
314.063
313.573
313.09
312.616
312.15
311.693
311.245
310.808
310.38
309.963
309.557
309.162
308.777
308.403
308.041
307.689
307.348
307.018
306.699
306.391
306.093
305.805
305.528
305.261
305.003
304.755
304.517
304.288
304.067
303.855
303.652
303.456
303.269
303.089
302.916
302.751
302.592
302.439
302.293
302.153
302.019
301.889
301.765
301.646
301.532
301.421
301.315
301.213
301.114
301.018
300.926
300.836
300.749
300.664
300.581
300.5
300.421
300.342
300.265
300.189
300.113
300.038
320.707
321.683
322.533
323.265
323.885
324.401
324.819
325.145
325.386
325.548
325.635
325.654
325.61
325.508
325.353
325.148
324.899
324.609
324.283
323.924
323.536
323.122
322.684
322.227
321.752
321.263
320.762
320.25
319.731
319.205
318.676
318.144
317.612
317.08
316.55
316.023
315.5
314.982
314.471
313.967
313.47
312.981
312.502
312.032
311.571
311.121
310.681
310.252
309.834
309.427
309.031
308.647
308.274
307.912
307.561
307.222
306.893
306.576
306.27
305.974
305.688
305.413
305.148
304.893
304.648
304.412
304.185
303.967
303.758
303.556
303.364
303.178
303.001
302.83
302.667
302.51
302.36
302.216
302.077
301.944
301.817
301.694
301.576
301.463
301.353
301.248
301.146
301.048
300.953
300.86
300.771
300.683
300.598
300.515
300.433
300.352
300.273
300.194
300.116
300.039
321.285
322.288
323.162
323.914
324.552
325.082
325.512
325.847
326.095
326.261
326.351
326.371
326.325
326.22
326.061
325.85
325.594
325.297
324.961
324.592
324.193
323.767
323.318
322.848
322.36
321.857
321.341
320.816
320.282
319.742
319.198
318.651
318.104
317.557
317.012
316.47
315.933
315.401
314.875
314.357
313.846
313.344
312.851
312.367
311.894
311.431
310.979
310.538
310.109
309.69
309.284
308.888
308.505
308.133
307.772
307.423
307.086
306.76
306.445
306.14
305.847
305.564
305.292
305.03
304.778
304.535
304.302
304.078
303.862
303.656
303.457
303.267
303.085
302.909
302.741
302.58
302.426
302.277
302.135
301.999
301.867
301.741
301.62
301.504
301.391
301.283
301.178
301.077
300.979
300.884
300.792
300.702
300.615
300.529
300.445
300.362
300.28
300.2
300.12
300.04
321.858
322.888
323.785
324.558
325.213
325.757
326.199
326.543
326.797
326.968
327.06
327.081
327.034
326.926
326.762
326.546
326.283
325.978
325.633
325.254
324.844
324.407
323.945
323.463
322.962
322.445
321.916
321.376
320.828
320.273
319.714
319.153
318.591
318.029
317.47
316.913
316.362
315.815
315.276
314.743
314.219
313.703
313.197
312.7
312.214
311.739
311.275
310.822
310.381
309.951
309.533
309.128
308.734
308.352
307.982
307.623
307.277
306.942
306.618
306.306
306.005
305.714
305.435
305.165
304.906
304.657
304.418
304.187
303.966
303.754
303.551
303.355
303.168
302.988
302.815
302.65
302.491
302.339
302.193
302.052
301.918
301.788
301.664
301.544
301.429
301.317
301.21
301.106
301.006
300.908
300.814
300.721
300.631
300.543
300.457
300.372
300.288
300.205
300.123
300.041
322.425
323.482
324.403
325.196
325.868
326.426
326.879
327.232
327.493
327.668
327.763
327.784
327.736
327.625
327.457
327.235
326.966
326.652
326.299
325.91
325.49
325.041
324.567
324.072
323.558
323.028
322.485
321.931
321.368
320.8
320.226
319.65
319.074
318.497
317.923
317.353
316.786
316.226
315.672
315.126
314.588
314.059
313.539
313.03
312.532
312.044
311.568
311.103
310.65
310.21
309.781
309.365
308.96
308.569
308.189
307.821
307.466
307.122
306.79
306.47
306.16
305.863
305.576
305.299
305.034
304.778
304.532
304.296
304.069
303.852
303.643
303.442
303.25
303.065
302.888
302.719
302.556
302.399
302.25
302.106
301.967
301.835
301.707
301.584
301.466
301.352
301.241
301.135
301.032
300.932
300.835
300.74
300.648
300.557
300.469
300.381
300.295
300.21
300.126
300.042
322.987
324.071
325.015
325.827
326.516
327.089
327.553
327.915
328.182
328.362
328.459
328.48
328.431
328.318
328.145
327.918
327.642
327.32
326.958
326.56
326.128
325.668
325.183
324.675
324.148
323.605
323.048
322.481
321.904
321.321
320.733
320.143
319.552
318.961
318.373
317.788
317.207
316.633
316.065
315.505
314.953
314.411
313.879
313.357
312.846
312.346
311.858
311.381
310.917
310.466
310.026
309.599
309.185
308.783
308.394
308.017
307.653
307.3
306.96
306.632
306.315
306.01
305.715
305.432
305.16
304.898
304.646
304.404
304.171
303.948
303.734
303.528
303.331
303.142
302.961
302.787
302.62
302.46
302.306
302.158
302.017
301.881
301.75
301.624
301.502
301.386
301.273
301.163
301.058
300.955