/*--------------------------------*- C++ -*----------------------------------*\
| =========                 |                                                 |
| \\      /  F ield         | OpenFOAM: The Open Source CFD Toolbox           |
|  \\    /   O peration     | Version:  2406                                  |
|   \\  /    A nd           | Website:  www.openfoam.com                      |
|    \\/     M anipulation  |                                                 |
\*---------------------------------------------------------------------------*/
FoamFile
{
    version     2.0;
    format      ascii;
    arch        "LSB;label=32;scalar=64";
    class       volVectorField;
    location    "135";
    object      flux;
}
// * * * * * * * * * * * * * * * * * * * * * * * * * * * * * * * * * * * * * //

dimensions      [0 1 -1 1 0 0 0];

internalField   nonuniform List<vector> 
20000
(
(0.00148835 -0.00738767 0)
(0.00138997 -0.00451116 0)
(0.00129495 -0.00182815 0)
(0.00120332 0.000668331 0)
(0.00111515 0.0029849 0)
(0.00103037 0.00512856 0)
(0.000948896 0.00710605 0)
(0.000870953 0.00892404 0)
(0.00079648 0.0105897 0)
(0.00072523 0.0121097 0)
(0.000657243 0.0134904 0)
(0.000592574 0.0147385 0)
(0.000531155 0.0158606 0)
(0.00047287 0.016863 0)
(0.00041763 0.017752 0)
(0.000365374 0.0185334 0)
(0.000316042 0.0192133 0)
(0.000269566 0.0197975 0)
(0.000225863 0.0202915 0)
(0.000184845 0.0207009 0)
(0.000146421 0.0210309 0)
(0.000110498 0.0212866 0)
(7.69876e-05 0.0214728 0)
(4.57993e-05 0.0215945 0)
(1.68445e-05 0.021656 0)
(-9.96585e-06 0.0216619 0)
(-3.47204e-05 0.0216162 0)
(-5.75073e-05 0.021523 0)
(-7.84143e-05 0.0213862 0)
(-9.7528e-05 0.0212094 0)
(-0.000114934 0.0209961 0)
(-0.000130715 0.0207496 0)
(-0.000144955 0.0204732 0)
(-0.000157733 0.0201699 0)
(-0.000169128 0.0198424 0)
(-0.000179217 0.0194934 0)
(-0.000188074 0.0191255 0)
(-0.000195772 0.0187411 0)
(-0.000202381 0.0183425 0)
(-0.000207968 0.0179317 0)
(-0.000212599 0.0175107 0)
(-0.000216337 0.0170813 0)
(-0.000219244 0.0166454 0)
(-0.000221378 0.0162044 0)
(-0.000222795 0.0157599 0)
(-0.000223548 0.0153133 0)
(-0.000223691 0.0148658 0)
(-0.000223272 0.0144186 0)
(-0.000222337 0.0139727 0)
(-0.000220933 0.0135293 0)
(-0.000219102 0.0130891 0)
(-0.000216885 0.0126529 0)
(-0.00021432 0.0122216 0)
(-0.000211443 0.0117957 0)
(-0.00020829 0.0113759 0)
(-0.000204893 0.0109626 0)
(-0.000201284 0.0105563 0)
(-0.00019749 0.0101575 0)
(-0.000193541 0.00976642 0)
(-0.00018946 0.00938339 0)
(-0.000185274 0.00900863 0)
(-0.000181003 0.00864234 0)
(-0.00017667 0.00828466 0)
(-0.000172294 0.0079357 0)
(-0.000167893 0.00759553 0)
(-0.000163485 0.00726417 0)
(-0.000159085 0.00694163 0)
(-0.000154709 0.00662787 0)
(-0.00015037 0.00632283 0)
(-0.00014608 0.00602643 0)
(-0.000141852 0.00573854 0)
(-0.000137695 0.00545905 0)
(-0.00013362 0.0051878 0)
(-0.000129636 0.0049246 0)
(-0.000125751 0.00466928 0)
(-0.000121972 0.00442163 0)
(-0.000118307 0.00418143 0)
(-0.000114761 0.00394843 0)
(-0.00011134 0.00372241 0)
(-0.000108049 0.0035031 0)
(-0.000104893 0.00329024 0)
(-0.000101876 0.00308356 0)
(-9.90016e-05 0.00288276 0)
(-9.62728e-05 0.00268757 0)
(-9.36927e-05 0.00249769 0)
(-9.1264e-05 0.00231283 0)
(-8.89889e-05 0.00213266 0)
(-8.68694e-05 0.00195689 0)
(-8.49072e-05 0.0017852 0)
(-8.3104e-05 0.00161728 0)
(-8.1461e-05 0.00145281 0)
(-7.99795e-05 0.00129146 0)
(-7.86603e-05 0.00113291 0)
(-7.75044e-05 0.000976838 0)
(-7.65123e-05 0.000822913 0)
(-7.56848e-05 0.000670808 0)
(-7.50223e-05 0.000520192 0)
(-7.45251e-05 0.000370737 0)
(-7.41934e-05 0.000222111 0)
(-7.40276e-05 7.39816e-05 0)
(0.0044647 -0.00738588 0)
(0.00416955 -0.00451001 0)
(0.00388454 -0.00182765 0)
(0.00360973 0.000668187 0)
(0.00334508 0.00298421 0)
(0.00309078 0.00512722 0)
(0.00284658 0.00710424 0)
(0.00261273 0.00892192 0)
(0.00238917 0.0105872 0)
(0.00217544 0.0121067 0)
(0.00197158 0.013487 0)
(0.00177762 0.0147349 0)
(0.00159335 0.0158567 0)
(0.00141849 0.0168589 0)
(0.00125277 0.0177476 0)
(0.00109602 0.0185288 0)
(0.000948046 0.0192086 0)
(0.000808634 0.0197926 0)
(0.000677539 0.0202865 0)
(0.000554495 0.0206958 0)
(0.000439228 0.0210257 0)
(0.000331468 0.0212813 0)
(0.000230943 0.0214676 0)
(0.000137386 0.0215892 0)
(5.05285e-05 0.0216507 0)
(-2.98956e-05 0.0216565 0)
(-0.000104153 0.0216108 0)
(-0.000172508 0.0215177 0)
(-0.000235224 0.0213809 0)
(-0.00029256 0.0212041 0)
(-0.000344772 0.0209909 0)
(-0.000392113 0.0207445 0)
(-0.000434828 0.0204682 0)
(-0.000473159 0.0201649 0)
(-0.000507342 0.0198375 0)
(-0.000537607 0.0194886 0)
(-0.000564176 0.0191208 0)
(-0.000587268 0.0187365 0)
(-0.000607092 0.018338 0)
(-0.000623852 0.0179272 0)
(-0.000637744 0.0175063 0)
(-0.000648959 0.0170771 0)
(-0.000657679 0.0166413 0)
(-0.000664079 0.0162004 0)
(-0.000668329 0.015756 0)
(-0.00067059 0.0153095 0)
(-0.000671018 0.0148621 0)
(-0.00066976 0.014415 0)
(-0.000666957 0.0139693 0)
(-0.000662745 0.0135259 0)
(-0.000657253 0.0130858 0)
(-0.000650601 0.0126498 0)
(-0.000642906 0.0122186 0)
(-0.000634277 0.0117928 0)
(-0.000624819 0.0113731 0)
(-0.00061463 0.0109599 0)
(-0.000603802 0.0105537 0)
(-0.000592423 0.010155 0)
(-0.000580575 0.00976401 0)
(-0.000568335 0.00938107 0)
(-0.000555775 0.00900641 0)
(-0.000542965 0.00864021 0)
(-0.000529966 0.00828262 0)
(-0.000516839 0.00793374 0)
(-0.000503638 0.00759365 0)
(-0.000490415 0.00726238 0)
(-0.000477217 0.00693992 0)
(-0.00046409 0.00662623 0)
(-0.000451073 0.00632127 0)
(-0.000438205 0.00602494 0)
(-0.000425521 0.00573713 0)
(-0.000413052 0.00545771 0)
(-0.000400828 0.00518652 0)
(-0.000388877 0.00492339 0)
(-0.000377222 0.00466813 0)
(-0.000365887 0.00442054 0)
(-0.000354891 0.00418039 0)
(-0.000344254 0.00394746 0)
(-0.000333992 0.00372149 0)
(-0.000324121 0.00350224 0)
(-0.000314654 0.00328943 0)
(-0.000305603 0.00308279 0)
(-0.00029698 0.00288205 0)
(-0.000288795 0.00268691 0)
(-0.000281055 0.00249708 0)
(-0.00027377 0.00231225 0)
(-0.000266945 0.00213213 0)
(-0.000260587 0.00195641 0)
(-0.000254701 0.00178476 0)
(-0.000249291 0.00161688 0)
(-0.000244363 0.00145245 0)
(-0.000239919 0.00129114 0)
(-0.000235961 0.00113263 0)
(-0.000232494 0.000976597 0)
(-0.000229518 0.00082271 0)
(-0.000227036 0.000670642 0)
(-0.000225048 0.000520064 0)
(-0.000223557 0.000370646 0)
(-0.000222562 0.000222056 0)
(-0.000222065 7.39633e-05 0)
(0.00744001 -0.0073823 0)
(0.0069482 -0.00450783 0)
(0.00647314 -0.0018267 0)
(0.00601519 0.00066784 0)
(0.00557418 0.00298274 0)
(0.0051504 0.00512471 0)
(0.0047436 0.00710073 0)
(0.00435388 0.00891754 0)
(0.00398121 0.0105819 0)
(0.00362509 0.0121007 0)
(0.00328546 0.0134803 0)
(0.00296226 0.0147276 0)
(0.00265517 0.0158489 0)
(0.00236374 0.0168506 0)
(0.00208758 0.0177388 0)
(0.00182638 0.0185197 0)
(0.00157981 0.0191991 0)
(0.00134751 0.0197828 0)
(0.00112905 0.0202765 0)
(0.000924012 0.0206856 0)
(0.00073193 0.0210153 0)
(0.000552356 0.0212708 0)
(0.000384841 0.021457 0)
(0.000228937 0.0215785 0)
(8.41992e-05 0.02164 0)
(-4.98188e-05 0.0216458 0)
(-0.00017356 0.0216002 0)
(-0.000287466 0.0215071 0)
(-0.000391975 0.0213703 0)
(-0.00048752 0.0211937 0)
(-0.000574526 0.0209805 0)
(-0.000653414 0.0207343 0)
(-0.000724594 0.0204581 0)
(-0.000788469 0.0201549 0)
(-0.000845431 0.0198277 0)
(-0.000895864 0.019479 0)
(-0.000940139 0.0191114 0)
(-0.000978619 0.0187273 0)
(-0.00101165 0.0183289 0)
(-0.00103958 0.0179184 0)
(-0.00106273 0.0174977 0)
(-0.00108142 0.0170687 0)
(-0.00109595 0.0166331 0)
(-0.00110662 0.0161924 0)
(-0.0011137 0.0157482 0)
(-0.00111747 0.0153019 0)
(-0.00111818 0.0148548 0)
(-0.00111608 0.0144079 0)
(-0.00111141 0.0139624 0)
(-0.00110439 0.0135193 0)
(-0.00109524 0.0130794 0)
(-0.00108416 0.0126436 0)
(-0.00107133 0.0122125 0)
(-0.00105695 0.011787 0)
(-0.00104119 0.0113674 0)
(-0.00102421 0.0109545 0)
(-0.00100617 0.0105485 0)
(-0.000987209 0.01015 0)
(-0.000967465 0.0097592 0)
(-0.000947069 0.00937644 0)
(-0.00092614 0.00900196 0)
(-0.000904792 0.00863594 0)
(-0.000883131 0.00827853 0)
(-0.000861256 0.00792983 0)
(-0.000839258 0.00758991 0)
(-0.000817223 0.00725879 0)
(-0.000795231 0.00693649 0)
(-0.000773356 0.00662296 0)
(-0.000751665 0.00631815 0)
(-0.000730222 0.00602197 0)
(-0.000709084 0.0057343 0)
(-0.000688306 0.00545501 0)
(-0.000667937 0.00518396 0)
(-0.000648021 0.00492096 0)
(-0.0006286 0.00466583 0)
(-0.000609711 0.00441836 0)
(-0.000591388 0.00417833 0)
(-0.000573662 0.00394551 0)
(-0.000556562 0.00371966 0)
(-0.000540113 0.00350051 0)
(-0.000524337 0.00328781 0)
(-0.000509255 0.00308127 0)
(-0.000494886 0.00288063 0)
(-0.000481245 0.00268558 0)
(-0.000468348 0.00249585 0)
(-0.000456207 0.00231111 0)
(-0.000444835 0.00213108 0)
(-0.00043424 0.00195544 0)
(-0.000424431 0.00178388 0)
(-0.000415417 0.00161609 0)
(-0.000407205 0.00145173 0)
(-0.000399799 0.0012905 0)
(-0.000393204 0.00113207 0)
(-0.000387426 0.000976115 0)
(-0.000382467 0.000822304 0)
(-0.000378331 0.000670311 0)
(-0.000375019 0.000519807 0)
(-0.000372533 0.000370463 0)
(-0.000370876 0.000221946 0)
(-0.000370047 7.39268e-05 0)
(0.0104134 -0.00737678 0)
(0.00972515 -0.00450459 0)
(0.00906021 -0.00182539 0)
(0.00841916 0.000667329 0)
(0.00780195 0.00298052 0)
(0.00720878 0.00512095 0)
(0.00663942 0.00709549 0)
(0.00609393 0.00891093 0)
(0.00557227 0.0105741 0)
(0.00507385 0.0120917 0)
(0.00459854 0.0134704 0)
(0.00414619 0.0147167 0)
(0.00371633 0.0158372 0)
(0.0033084 0.0168381 0)
(0.00292187 0.0177257 0)
(0.00255629 0.018506 0)
(0.00221119 0.0191849 0)
(0.00188605 0.0197682 0)
(0.00158029 0.0202615 0)
(0.0012933 0.0206703 0)
(0.00102445 0.0209998 0)
(0.000773109 0.0212551 0)
(0.000538644 0.0214411 0)
(0.000320432 0.0215625 0)
(0.000117848 0.021624 0)
(-6.97304e-05 0.0216298 0)
(-0.000242925 0.0215842 0)
(-0.000402354 0.0214911 0)
(-0.00054863 0.0213545 0)
(-0.000682359 0.021178 0)
(-0.000804138 0.020965 0)
(-0.000914553 0.0207189 0)
(-0.00101418 0.0204429 0)
(-0.00110358 0.02014 0)
(-0.00118331 0.019813 0)
(-0.0012539 0.0194645 0)
(-0.00131587 0.0190972 0)
(-0.00136973 0.0187134 0)
(-0.00141597 0.0183153 0)
(-0.00145506 0.0179051 0)
(-0.00148746 0.0174847 0)
(-0.00151361 0.017056 0)
(-0.00153395 0.0166207 0)
(-0.00154888 0.0161804 0)
(-0.00155879 0.0157366 0)
(-0.00156407 0.0152906 0)
(-0.00156506 0.0148438 0)
(-0.00156213 0.0143972 0)
(-0.00155559 0.0139521 0)
(-0.00154577 0.0135093 0)
(-0.00153296 0.0130697 0)
(-0.00151744 0.0126342 0)
(-0.0014995 0.0122035 0)
(-0.00147937 0.0117782 0)
(-0.00145731 0.011359 0)
(-0.00143355 0.0109464 0)
(-0.00140829 0.0105407 0)
(-0.00138175 0.0101425 0)
(-0.00135412 0.00975197 0)
(-0.00132557 0.0093695 0)
(-0.00129628 0.00899529 0)
(-0.0012664 0.00862955 0)
(-0.00123608 0.0082724 0)
(-0.00120546 0.00792396 0)
(-0.00117467 0.00758429 0)
(-0.00114383 0.00725342 0)
(-0.00111305 0.00693135 0)
(-0.00108243 0.00661806 0)
(-0.00105207 0.00631347 0)
(-0.00102206 0.00601751 0)
(-0.000992473 0.00573005 0)
(-0.000963391 0.00545097 0)
(-0.000934881 0.00518012 0)
(-0.000907006 0.00491732 0)
(-0.000879823 0.00466237 0)
(-0.000853384 0.00441509 0)
(-0.000827739 0.00417524 0)
(-0.000802929 0.00394259 0)
(-0.000778995 0.0037169 0)
(-0.000755971 0.00349792 0)
(-0.00073389 0.00328537 0)
(-0.000712781 0.00307899 0)
(-0.000692669 0.0028785 0)
(-0.000673577 0.0026836 0)
(-0.000655526 0.002494 0)
(-0.000638533 0.0023094 0)
(-0.000622615 0.0021295 0)
(-0.000607785 0.001954 0)
(-0.000594057 0.00178256 0)
(-0.000581441 0.00161489 0)
(-0.000569946 0.00145066 0)
(-0.00055958 0.00128955 0)
(-0.00055035 0.00113123 0)
(-0.000542263 0.000975392 0)
(-0.000535322 0.000821695 0)
(-0.000529532 0.000669815 0)
(-0.000524897 0.000519422 0)
(-0.000521418 0.000370188 0)
(-0.000519098 0.000221782 0)
(-0.000517937 7.38721e-05 0)
(0.0133842 -0.0073694 0)
(0.0124996 -0.00450012 0)
(0.0116451 -0.00182361 0)
(0.0108211 0.000666679 0)
(0.0100278 0.00297758 0)
(0.00926537 0.00511589 0)
(0.00853358 0.00708847 0)
(0.00783247 0.00890211 0)
(0.00716196 0.0105636 0)
(0.00652137 0.0120797 0)
(0.00591049 0.0134571 0)
(0.00532908 0.0147022 0)
(0.00477657 0.0158215 0)
(0.00425224 0.0168215 0)
(0.00375544 0.0177082 0)
(0.00328557 0.0184877 0)
(0.00284203 0.0191659 0)
(0.00242414 0.0197486 0)
(0.00203115 0.0202415 0)
(0.00166228 0.0206499 0)
(0.00131672 0.020979 0)
(0.000993671 0.0212341 0)
(0.000692313 0.0214199 0)
(0.000411846 0.0215412 0)
(0.000151467 0.0216026 0)
(-8.96255e-05 0.0216084 0)
(-0.000312231 0.0215629 0)
(-0.000517143 0.0214699 0)
(-0.00070515 0.0213334 0)
(-0.000877031 0.021157 0)
(-0.00103355 0.0209443 0)
(-0.00117547 0.0206985 0)
(-0.00130352 0.0204227 0)
(-0.00141843 0.0201201 0)
(-0.0015209 0.0197934 0)
(-0.00161163 0.0194453 0)
(-0.00169128 0.0190784 0)
(-0.0017605 0.0186949 0)
(-0.00181993 0.0182972 0)
(-0.00187017 0.0178874 0)
(-0.00191182 0.0174675 0)
(-0.00194544 0.0170392 0)
(-0.00197158 0.0166043 0)
(-0.00199076 0.0161644 0)
(-0.0020035 0.015721 0)
(-0.00201028 0.0152755 0)
(-0.00201156 0.0148291 0)
(-0.00200779 0.014383 0)
(-0.00199939 0.0139383 0)
(-0.00198676 0.0134959 0)
(-0.0019703 0.0130568 0)
(-0.00195036 0.0126217 0)
(-0.00192729 0.0121914 0)
(-0.00190142 0.0117666 0)
(-0.00187307 0.0113478 0)
(-0.00184252 0.0109355 0)
(-0.00181006 0.0105303 0)
(-0.00177595 0.0101324 0)
(-0.00174043 0.00974233 0)
(-0.00170374 0.00936024 0)
(-0.00166609 0.00898641 0)
(-0.00162769 0.00862102 0)
(-0.00158872 0.00826423 0)
(-0.00154937 0.00791613 0)
(-0.00150979 0.00757679 0)
(-0.00147015 0.00724625 0)
(-0.00143059 0.00692451 0)
(-0.00139124 0.00661152 0)
(-0.00135222 0.00630723 0)
(-0.00131364 0.00601156 0)
(-0.00127562 0.00572439 0)
(-0.00123824 0.00544559 0)
(-0.00120159 0.005175 0)
(-0.00116577 0.00491246 0)
(-0.00113083 0.00465777 0)
(-0.00109685 0.00441073 0)
(-0.00106389 0.00417111 0)
(-0.001032 0.0039387 0)
(-0.00100123 0.00371323 0)
(-0.000971643 0.00349446 0)
(-0.000943263 0.00328213 0)
(-0.000916131 0.00307595 0)
(-0.000890281 0.00287565 0)
(-0.000865743 0.00268094 0)
(-0.000842541 0.00249153 0)
(-0.000820701 0.00230712 0)
(-0.000800241 0.0021274 0)
(-0.000781181 0.00195207 0)
(-0.000763537 0.0017808 0)
(-0.000747321 0.00161329 0)
(-0.000732546 0.00144923 0)
(-0.000719223 0.00128827 0)
(-0.000707361 0.00113012 0)
(-0.000696966 0.000974429 0)
(-0.000688045 0.000820883 0)
(-0.000680603 0.000669153 0)
(-0.000674645 0.000518909 0)
(-0.000670174 0.000369823 0)
(-0.000667192 0.000221563 0)
(-0.0006657 7.37991e-05 0)
(0.0163517 -0.00736029 0)
(0.0152709 -0.00449451 0)
(0.014227 -0.00182135 0)
(0.0132204 0.000665865 0)
(0.0122512 0.0029739 0)
(0.0113197 0.00510957 0)
(0.0104256 0.00707971 0)
(0.00956909 0.00889111 0)
(0.0087499 0.0105506 0)
(0.00796729 0.0120648 0)
(0.00722098 0.0134404 0)
(0.00651066 0.014684 0)
(0.00583563 0.015802 0)
(0.00519502 0.0168007 0)
(0.00458807 0.0176863 0)
(0.00401403 0.0184648 0)
(0.00347216 0.0191422 0)
(0.00296162 0.0197242 0)
(0.00248151 0.0202165 0)
(0.00203085 0.0206243 0)
(0.00160867 0.0209531 0)
(0.00121399 0.0212078 0)
(0.000845811 0.0213934 0)
(0.000503159 0.0215146 0)
(0.000185048 0.0215759 0)
(-0.000109499 0.0215817 0)
(-0.00038146 0.0215362 0)
(-0.000631805 0.0214434 0)
(-0.000861496 0.0213071 0)
(-0.00107149 0.0211309 0)
(-0.00126271 0.0209184 0)
(-0.00143609 0.0206729 0)
(-0.00159253 0.0203975 0)
(-0.00173292 0.0200953 0)
(-0.00185811 0.019769 0)
(-0.00196896 0.0194213 0)
(-0.00206627 0.0190548 0)
(-0.00215084 0.0186718 0)
(-0.00222344 0.0182746 0)
(-0.00228482 0.0178653 0)
(-0.0023357 0.0174459 0)
(-0.00237678 0.0170181 0)
(-0.00240871 0.0165838 0)
(-0.00243215 0.0161445 0)
(-0.00244772 0.0157016 0)
(-0.002456 0.0152566 0)
(-0.00245757 0.0148108 0)
(-0.00245296 0.0143652 0)
(-0.00244269 0.0139211 0)
(-0.00242727 0.0134792 0)
(-0.00240715 0.0130406 0)
(-0.00238279 0.0126061 0)
(-0.00235461 0.0121764 0)
(-0.00232301 0.0117521 0)
(-0.00228837 0.0113338 0)
(-0.00225105 0.010922 0)
(-0.00221139 0.0105173 0)
(-0.00216972 0.0101199 0)
(-0.00212632 0.0097303 0)
(-0.00208149 0.00934868 0)
(-0.0020355 0.00897531 0)
(-0.00198858 0.00861037 0)
(-0.00194097 0.00825402 0)
(-0.00189289 0.00790635 0)
(-0.00184455 0.00756743 0)
(-0.00179612 0.0072373 0)
(-0.00174778 0.00691595 0)
(-0.0016997 0.00660335 0)
(-0.00165203 0.00629944 0)
(-0.0016049 0.00600413 0)
(-0.00155845 0.00571732 0)
(-0.00151278 0.00543886 0)
(-0.00146801 0.00516861 0)
(-0.00142424 0.00490639 0)
(-0.00138155 0.00465201 0)
(-0.00134004 0.00440528 0)
(-0.00129977 0.00416596 0)
(-0.00126081 0.00393383 0)
(-0.00122323 0.00370864 0)
(-0.00118708 0.00349014 0)
(-0.0011524 0.00327807 0)
(-0.00111926 0.00307215 0)
(-0.00108767 0.0028721 0)
(-0.00105769 0.00267763 0)
(-0.00102935 0.00248846 0)
(-0.00100267 0.00230427 0)
(-0.00097767 0.00212477 0)
(-0.000954384 0.00194965 0)
(-0.000932828 0.0017786 0)
(-0.000913017 0.0016113 0)
(-0.000894966 0.00144744 0)
(-0.000878689 0.00128668 0)
(-0.000864196 0.00112872 0)
(-0.000851496 0.000973225 0)
(-0.000840598 0.000819869 0)
(-0.000831506 0.000668326 0)
(-0.000824227 0.000518268 0)
(-0.000818765 0.000369366 0)
(-0.000815121 0.000221289 0)
(-0.000813299 7.37079e-05 0)
(0.0193151 -0.0073494 0)
(0.0180385 -0.00448782 0)
(0.0168054 -0.00181863 0)
(0.0156163 0.00066488 0)
(0.0144715 0.00296948 0)
(0.0133712 0.00510198 0)
(0.0123151 0.0070692 0)
(0.0113033 0.00887792 0)
(0.0103357 0.0105349 0)
(0.00941124 0.0120469 0)
(0.0085297 0.0134205 0)
(0.00769063 0.0146622 0)
(0.00689323 0.0157786 0)
(0.00613652 0.0167758 0)
(0.00541957 0.01766 0)
(0.00474151 0.0184374 0)
(0.00410145 0.0191138 0)
(0.00349838 0.019695 0)
(0.00293125 0.0201865 0)
(0.00239892 0.0205937 0)
(0.00190022 0.020922 0)
(0.00143401 0.0211764 0)
(0.0009991 0.0213617 0)
(0.000594346 0.0214827 0)
(0.000218583 0.0215439 0)
(-0.000129346 0.0215497 0)
(-0.000450595 0.0215043 0)
(-0.000746311 0.0214116 0)
(-0.00101763 0.0212754 0)
(-0.00126568 0.0210995 0)
(-0.00149156 0.0208874 0)
(-0.00169636 0.0206422 0)
(-0.00188116 0.0203672 0)
(-0.00204698 0.0200654 0)
(-0.00219487 0.0197396 0)
(-0.0023258 0.0193925 0)
(-0.00244074 0.0190265 0)
(-0.00254064 0.0186441 0)
(-0.00262641 0.0182475 0)
(-0.00269891 0.0178388 0)
(-0.00275901 0.01742 0)
(-0.00280753 0.0169929 0)
(-0.00284526 0.0165592 0)
(-0.00287294 0.0161205 0)
(-0.00289133 0.0156783 0)
(-0.00290111 0.015234 0)
(-0.00290296 0.0147888 0)
(-0.00289752 0.0143439 0)
(-0.0028854 0.0139004 0)
(-0.00286717 0.0134592 0)
(-0.00284341 0.0130213 0)
(-0.00281463 0.0125874 0)
(-0.00278134 0.0121583 0)
(-0.00274402 0.0117346 0)
(-0.0027031 0.011317 0)
(-0.00265902 0.0109058 0)
(-0.00261217 0.0105017 0)
(-0.00256294 0.0101049 0)
(-0.00251169 0.00971586 0)
(-0.00245873 0.00933481 0)
(-0.0024044 0.00896199 0)
(-0.00234898 0.00859759 0)
(-0.00229274 0.00824177 0)
(-0.00223595 0.00789462 0)
(-0.00217884 0.0075562 0)
(-0.00212164 0.00722656 0)
(-0.00206454 0.00690569 0)
(-0.00200775 0.00659355 0)
(-0.00195144 0.00629009 0)
(-0.00189577 0.00599523 0)
(-0.00184089 0.00570883 0)
(-0.00178695 0.00543079 0)
(-0.00173407 0.00516094 0)
(-0.00168236 0.00489911 0)
(-0.00163194 0.00464511 0)
(-0.0015829 0.00439874 0)
(-0.00153533 0.00415978 0)
(-0.00148931 0.00392799 0)
(-0.00144492 0.00370314 0)
(-0.00140221 0.00348497 0)
(-0.00136126 0.00327321 0)
(-0.0013221 0.00306759 0)
(-0.0012848 0.00286784 0)
(-0.00124939 0.00267366 0)
(-0.0012159 0.00248476 0)
(-0.00118438 0.00230085 0)
(-0.00115486 0.00212162 0)
(-0.00112735 0.00194676 0)
(-0.00110189 0.00177596 0)
(-0.00107849 0.00160891 0)
(-0.00105717 0.00144529 0)
(-0.00103794 0.00128477 0)
(-0.00102082 0.00112705 0)
(-0.00100582 0.000971781 0)
(-0.000992943 0.000818653 0)
(-0.000982204 0.000667335 0)
(-0.000973606 0.000517499 0)
(-0.000967153 0.000368818 0)
(-0.00096285 0.000220961 0)
(-0.000960697 7.35985e-05 0)
(0.0222738 -0.00733668 0)
(0.0208017 -0.00448005 0)
(0.0193797 -0.00181548 0)
(0.0180085 0.000663724 0)
(0.0166883 0.00296433 0)
(0.0154194 0.00509313 0)
(0.0142016 0.00705695 0)
(0.0130348 0.00886254 0)
(0.0119189 0.0105167 0)
(0.0108529 0.0120261 0)
(0.0098363 0.0133973 0)
(0.0088687 0.0146368 0)
(0.00794914 0.0157512 0)
(0.00707651 0.0167467 0)
(0.00624973 0.0176294 0)
(0.00546782 0.0184055 0)
(0.00472972 0.0190807 0)
(0.00403428 0.0196609 0)
(0.00338028 0.0201515 0)
(0.00276639 0.0205581 0)
(0.00219131 0.0208858 0)
(0.00165367 0.0211397 0)
(0.00115214 0.0213247 0)
(0.000685387 0.0214455 0)
(0.000252064 0.0215066 0)
(-0.000149161 0.0215124 0)
(-0.00051962 0.021467 0)
(-0.000860633 0.0213745 0)
(-0.00117351 0.0212386 0)
(-0.00145956 0.021063 0)
(-0.00172004 0.0208512 0)
(-0.00195621 0.0206065 0)
(-0.00216931 0.020332 0)
(-0.00236055 0.0200307 0)
(-0.00253108 0.0197054 0)
(-0.00268207 0.0193589 0)
(-0.00281462 0.0189935 0)
(-0.00292982 0.0186118 0)
(-0.00302872 0.0182159 0)
(-0.00311234 0.0178079 0)
(-0.00318164 0.0173898 0)
(-0.00323759 0.0169634 0)
(-0.0032811 0.0165305 0)
(-0.00331303 0.0160926 0)
(-0.00333423 0.0156512 0)
(-0.00334551 0.0152076 0)
(-0.00334764 0.0147632 0)
(-0.00334137 0.0143191 0)
(-0.00332739 0.0138763 0)
(-0.00330637 0.0134359 0)
(-0.00327897 0.0129987 0)
(-0.00324578 0.0125656 0)
(-0.00320739 0.0121372 0)
(-0.00316435 0.0117143 0)
(-0.00311716 0.0112974 0)
(-0.00306633 0.0108869 0)
(-0.00301231 0.0104835 0)
(-0.00295554 0.0100874 0)
(-0.00289643 0.00969902 0)
(-0.00283537 0.00931863 0)
(-0.00277271 0.00894646 0)
(-0.0027088 0.0085827 0)
(-0.00264395 0.00822749 0)
(-0.00257846 0.00788094 0)
(-0.0025126 0.00754311 0)
(-0.00244663 0.00721404 0)
(-0.00238079 0.00689372 0)
(-0.0023153 0.00658213 0)
(-0.00225036 0.0062792 0)
(-0.00218616 0.00598484 0)
(-0.00212288 0.00569894 0)
(-0.00206068 0.00542138 0)
(-0.00199969 0.005152 0)
(-0.00194007 0.00489062 0)
(-0.00188192 0.00463706 0)
(-0.00182537 0.00439112 0)
(-0.00177052 0.00415257 0)
(-0.00171745 0.00392119 0)
(-0.00166625 0.00369672 0)
(-0.00161701 0.00347893 0)
(-0.00156978 0.00326754 0)
(-0.00152463 0.00306228 0)
(-0.00148161 0.00286287 0)
(-0.00144077 0.00266903 0)
(-0.00140216 0.00248046 0)
(-0.00136581 0.00229686 0)
(-0.00133176 0.00211794 0)
(-0.00130004 0.00194339 0)
(-0.00127068 0.00177289 0)
(-0.00124369 0.00160612 0)
(-0.0012191 0.00144278 0)
(-0.00119693 0.00128255 0)
(-0.00117719 0.00112509 0)
(-0.00115989 0.000970097 0)
(-0.00114504 0.000817234 0)
(-0.00113266 0.000666178 0)
(-0.00112274 0.000516603 0)
(-0.0011153 0.000368179 0)
(-0.00111034 0.000220578 0)
(-0.00110786 7.3471e-05 0)
(0.0252271 -0.00732214 0)
(0.0235597 -0.00447117 0)
(0.0219492 -0.00181189 0)
(0.0203961 0.000662405 0)
(0.0189009 0.00295845 0)
(0.0174638 0.00508304 0)
(0.0160845 0.00704296 0)
(0.0147631 0.00884497 0)
(0.0134992 0.0104958 0)
(0.0122918 0.0120022 0)
(0.0111405 0.0133707 0)
(0.0100446 0.0146078 0)
(0.00900308 0.01572 0)
(0.00801474 0.0167135 0)
(0.00707836 0.0175945 0)
(0.00619278 0.018369 0)
(0.00535682 0.0190429 0)
(0.00456919 0.0196219 0)
(0.00382847 0.0201116 0)
(0.00313319 0.0205173 0)
(0.00248185 0.0208444 0)
(0.00187292 0.0210978 0)
(0.0013049 0.0212824 0)
(0.000776258 0.021403 0)
(0.000285482 0.021464 0)
(-0.000168941 0.0214697 0)
(-0.000588516 0.0214245 0)
(-0.000974743 0.0213321 0)
(-0.00132911 0.0211965 0)
(-0.00165308 0.0210212 0)
(-0.00194809 0.0208098 0)
(-0.00221558 0.0205656 0)
(-0.00245694 0.0202917 0)
(-0.00267352 0.019991 0)
(-0.00286667 0.0196664 0)
(-0.00303768 0.0193205 0)
(-0.0031878 0.0189559 0)
(-0.00331828 0.0185749 0)
(-0.00343029 0.0181798 0)
(-0.00352499 0.0177726 0)
(-0.00360349 0.0173554 0)
(-0.00366686 0.0169298 0)
(-0.00371613 0.0164977 0)
(-0.00375229 0.0160607 0)
(-0.0037763 0.0156201 0)
(-0.00378908 0.0151775 0)
(-0.0037915 0.0147339 0)
(-0.00378439 0.0142907 0)
(-0.00376855 0.0138488 0)
(-0.00374476 0.0134093 0)
(-0.00371372 0.012973 0)
(-0.00367613 0.0125407 0)
(-0.00363265 0.0121132 0)
(-0.0035839 0.0116911 0)
(-0.00353046 0.011275 0)
(-0.00347288 0.0108654 0)
(-0.0034117 0.0104627 0)
(-0.00334741 0.0100674 0)
(-0.00328046 0.0096798 0)
(-0.0032113 0.00930016 0)
(-0.00314034 0.00892872 0)
(-0.00306795 0.00856568 0)
(-0.0029945 0.00821118 0)
(-0.00292033 0.00786531 0)
(-0.00284574 0.00752816 0)
(-0.00277102 0.00719974 0)
(-0.00269645 0.00688006 0)
(-0.00262228 0.00656908 0)
(-0.00254873 0.00626675 0)
(-0.00247602 0.00597297 0)
(-0.00240435 0.00568764 0)
(-0.00233389 0.00541063 0)
(-0.00226483 0.00514178 0)
(-0.0021973 0.00488092 0)
(-0.00213144 0.00462787 0)
(-0.00206739 0.00438241 0)
(-0.00200526 0.00414434 0)
(-0.00194516 0.00391341 0)
(-0.00188718 0.00368939 0)
(-0.0018314 0.00347203 0)
(-0.00177791 0.00326106 0)
(-0.00172677 0.0030562 0)
(-0.00167805 0.00285719 0)
(-0.0016318 0.00266374 0)
(-0.00158806 0.00247554 0)
(-0.0015469 0.00229231 0)
(-0.00150834 0.00211374 0)
(-0.00147241 0.00193953 0)
(-0.00143915 0.00176937 0)
(-0.00140859 0.00160294 0)
(-0.00138074 0.00143992 0)
(-0.00135563 0.00128 0)
(-0.00133327 0.00112286 0)
(-0.00131368 0.000968174 0)
(-0.00129686 0.000815614 0)
(-0.00128284 0.000664858 0)
(-0.00127161 0.000515578 0)
(-0.00126318 0.000367449 0)
(-0.00125756 0.00022014 0)
(-0.00125475 7.33254e-05 0)
(0.0281741 -0.0073058 0)
(0.026312 -0.00446119 0)
(0.0245133 -0.00180784 0)
(0.0227788 0.000660924 0)
(0.0211089 0.00295185 0)
(0.0195039 0.00507169 0)
(0.0179635 0.00702724 0)
(0.0164877 0.00882522 0)
(0.0150761 0.0104724 0)
(0.0137277 0.0119754 0)
(0.0124419 0.0133408 0)
(0.011218 0.0145752 0)
(0.0100548 0.0156849 0)
(0.008951 0.0166762 0)
(0.00790524 0.0175552 0)
(0.00691622 0.018328 0)
(0.00598261 0.0190003 0)
(0.00510297 0.0195781 0)
(0.00427571 0.0200666 0)
(0.00349921 0.0204715 0)
(0.00277178 0.0207978 0)
(0.00209172 0.0210507 0)
(0.00145734 0.0212349 0)
(0.000866937 0.0213552 0)
(0.000318829 0.021416 0)
(-0.000188678 0.0214218 0)
(-0.000657268 0.0213766 0)
(-0.00108861 0.0212845 0)
(-0.00148437 0.0211491 0)
(-0.00184619 0.0209743 0)
(-0.00217567 0.0207634 0)
(-0.00247441 0.0205197 0)
(-0.00274396 0.0202463 0)
(-0.00298584 0.0199463 0)
(-0.00320155 0.0196224 0)
(-0.00339253 0.0192773 0)
(-0.0035602 0.0189136 0)
(-0.00370592 0.0185334 0)
(-0.00383102 0.0181392 0)
(-0.00393678 0.0177329 0)
(-0.00402445 0.0173166 0)
(-0.00409522 0.016892 0)
(-0.00415024 0.0164609 0)
(-0.00419063 0.0160248 0)
(-0.00421745 0.0155852 0)
(-0.00423172 0.0151436 0)
(-0.00423442 0.014701 0)
(-0.00422648 0.0142588 0)
(-0.00420879 0.0138179 0)
(-0.00418221 0.0133793 0)
(-0.00414755 0.012944 0)
(-0.00410558 0.0125127 0)
(-0.00405702 0.0120861 0)
(-0.00400257 0.011665 0)
(-0.00394288 0.0112498 0)
(-0.00387858 0.0108411 0)
(-0.00381025 0.0104393 0)
(-0.00373845 0.0100449 0)
(-0.00366368 0.00965818 0)
(-0.00358644 0.00927939 0)
(-0.00350719 0.00890878 0)
(-0.00342634 0.00854655 0)
(-0.00334432 0.00819284 0)
(-0.00326148 0.00784775 0)
(-0.00317817 0.00751135 0)
(-0.00309473 0.00718366 0)
(-0.00301145 0.00686469 0)
(-0.00292861 0.00655441 0)
(-0.00284647 0.00625275 0)
(-0.00276527 0.00595963 0)
(-0.00268522 0.00567494 0)
(-0.00260654 0.00539855 0)
(-0.0025294 0.0051303 0)
(-0.00245398 0.00487002 0)
(-0.00238044 0.00461753 0)
(-0.0023089 0.00437263 0)
(-0.00223952 0.00413508 0)
(-0.00217239 0.00390467 0)
(-0.00210764 0.00368116 0)
(-0.00204534 0.00346428 0)
(-0.0019856 0.00325378 0)
(-0.00192849 0.00304938 0)
(-0.00187408 0.00285081 0)
(-0.00182242 0.00265779 0)
(-0.00177358 0.00247001 0)
(-0.00172761 0.00228719 0)
(-0.00168454 0.00210902 0)
(-0.00164442 0.0019352 0)
(-0.00160727 0.00176542 0)
(-0.00157314 0.00159936 0)
(-0.00154204 0.00143671 0)
(-0.00151399 0.00127715 0)
(-0.00148902 0.00112036 0)
(-0.00146714 0.000966012 0)
(-0.00144836 0.000813793 0)
(-0.0014327 0.000663373 0)
(-0.00142015 0.000514427 0)
(-0.00141074 0.000366628 0)
(-0.00140446 0.000219649 0)
(-0.00140132 7.31616e-05 0)
(0.0311141 -0.00728764 0)
(0.0290577 -0.00445011 0)
(0.0270713 -0.00180335 0)
(0.0251558 0.000659283 0)
(0.0233117 0.00294452 0)
(0.0215392 0.00505909 0)
(0.0198381 0.00700978 0)
(0.0182082 0.0088033 0)
(0.0166494 0.0104464 0)
(0.0151603 0.0119457 0)
(0.0137403 0.0133077 0)
(0.0123886 0.014539 0)
(0.011104 0.0156459 0)
(0.00988506 0.0166347 0)
(0.00873017 0.0175116 0)
(0.00763795 0.0182824 0)
(0.00660692 0.0189531 0)
(0.00563549 0.0195294 0)
(0.00472191 0.0200168 0)
(0.00386437 0.0204206 0)
(0.00306102 0.0207462 0)
(0.00230999 0.0209984 0)
(0.00160941 0.0211821 0)
(0.000957401 0.0213021 0)
(0.000352097 0.0213628 0)
(-0.00020837 0.0213686 0)
(-0.000725858 0.0213235 0)
(-0.00120222 0.0212316 0)
(-0.00163927 0.0210966 0)
(-0.00203884 0.0209222 0)
(-0.00240271 0.0207118 0)
(-0.00273262 0.0204687 0)
(-0.0030303 0.020196 0)
(-0.00329742 0.0198968 0)
(-0.00353564 0.0195737 0)
(-0.00374656 0.0192294 0)
(-0.00393172 0.0188666 0)
(-0.00409264 0.0184874 0)
(-0.0042308 0.0180941 0)
(-0.00434759 0.0176889 0)
(-0.00444441 0.0172736 0)
(-0.00452256 0.01685 0)
(-0.00458333 0.01642 0)
(-0.00462793 0.015985 0)
(-0.00465755 0.0155465 0)
(-0.00467331 0.0151059 0)
(-0.00467629 0.0146645 0)
(-0.00466752 0.0142233 0)
(-0.00464799 0.0137835 0)
(-0.00461864 0.0133461 0)
(-0.00458036 0.0129118 0)
(-0.004534 0.0124816 0)
(-0.00448038 0.0120561 0)
(-0.00442025 0.011636 0)
(-0.00435433 0.0112218 0)
(-0.00428332 0.0108141 0)
(-0.00420787 0.0104134 0)
(-0.00412856 0.01002 0)
(-0.004046 0.00963418 0)
(-0.0039607 0.00925633 0)
(-0.00387317 0.00888665 0)
(-0.00378389 0.00852532 0)
(-0.00369331 0.00817248 0)
(-0.00360182 0.00782825 0)
(-0.00350983 0.00749268 0)
(-0.00341767 0.00716581 0)
(-0.0033257 0.00684764 0)
(-0.00323422 0.00653812 0)
(-0.00314351 0.00623722 0)
(-0.00305383 0.00594482 0)
(-0.00296543 0.00566084 0)
(-0.00287854 0.00538513 0)
(-0.00279335 0.00511755 0)
(-0.00271006 0.00485792 0)
(-0.00262884 0.00460606 0)
(-0.00254985 0.00436176 0)
(-0.00247322 0.00412481 0)
(-0.00239909 0.00389497 0)
(-0.00232757 0.00367201 0)
(-0.00225878 0.00345567 0)
(-0.00219281 0.00324569 0)
(-0.00212973 0.0030418 0)
(-0.00206964 0.00284373 0)
(-0.0020126 0.00265118 0)
(-0.00195866 0.00246387 0)
(-0.00190789 0.00228151 0)
(-0.00186032 0.00210378 0)
(-0.00181602 0.00193039 0)
(-0.001775 0.00176103 0)
(-0.0017373 0.00159539 0)
(-0.00170295 0.00143314 0)
(-0.00167198 0.00127397 0)
(-0.0016444 0.00111757 0)
(-0.00162024 0.000963611 0)
(-0.0015995 0.000811771 0)
(-0.0015822 0.000661725 0)
(-0.00156835 0.000513149 0)
(-0.00155796 0.000365717 0)
(-0.00155102 0.000219103 0)
(-0.00154756 7.29798e-05 0)
(0.0340465 -0.00726769 0)
(0.0317963 -0.00443793 0)