/*--------------------------------*- C++ -*----------------------------------*\
| =========                 |                                                 |
| \\      /  F ield         | OpenFOAM: The Open Source CFD Toolbox           |
|  \\    /   O peration     | Version:  2406                                  |
|   \\  /    A nd           | Website:  www.openfoam.com                      |
|    \\/     M anipulation  |                                                 |
\*---------------------------------------------------------------------------*/
FoamFile
{
    version     2.0;
    format      ascii;
    arch        "LSB;label=32;scalar=64";
    class       volScalarField;
    location    "135";
    object      T;
}
// * * * * * * * * * * * * * * * * * * * * * * * * * * * * * * * * * * * * * //

dimensions      [0 0 0 1 0 0 0];

internalField   nonuniform List<scalar> 
20000
(
299.916
299.949
299.979
300.008
300.034
300.058
300.081
300.101
300.12
300.138
300.153
300.168
300.18
300.192
300.202
300.211
300.219
300.225
300.231
300.235
300.239
300.242
300.244
300.246
300.246
300.246
300.246
300.245
300.243
300.241
300.239
300.236
300.233
300.229
300.226
300.222
300.218
300.213
300.209
300.204
300.199
300.194
300.189
300.184
300.179
300.174
300.169
300.164
300.159
300.154
300.149
300.144
300.139
300.134
300.129
300.125
300.12
300.116
300.111
300.107
300.102
300.098
300.094
300.09
300.086
300.083
300.079
300.075
300.072
300.069
300.065
300.062
300.059
300.056
300.053
300.05
300.048
300.045
300.042
300.04
300.037
300.035
300.033
300.031
300.028
300.026
300.024
300.022
300.02
300.018
300.017
300.015
300.013
300.011
300.009
300.008
300.006
300.004
300.003
300.001
299.748
299.846
299.938
300.023
300.102
300.175
300.242
300.304
300.361
300.413
300.46
300.503
300.541
300.575
300.606
300.632
300.655
300.675
300.692
300.706
300.717
300.726
300.733
300.737
300.739
300.739
300.737
300.734
300.73
300.724
300.716
300.708
300.698
300.688
300.677
300.665
300.652
300.639
300.626
300.612
300.597
300.583
300.568
300.553
300.538
300.522
300.507
300.492
300.477
300.462
300.447
300.432
300.417
300.402
300.388
300.374
300.36
300.347
300.333
300.32
300.307
300.295
300.283
300.271
300.259
300.248
300.237
300.226
300.216
300.206
300.196
300.186
300.177
300.168
300.159
300.151
300.143
300.135
300.127
300.12
300.112
300.105
300.098
300.092
300.085
300.079
300.073
300.067
300.061
300.055
300.05
300.044
300.039
300.033
300.028
300.023
300.018
300.013
300.008
300.003
299.58
299.744
299.896
300.038
300.17
300.292
300.404
300.507
300.602
300.688
300.767
300.838
300.902
300.959
301.009
301.054
301.092
301.126
301.154
301.177
301.196
301.21
301.221
301.228
301.231
301.231
301.229
301.224
301.216
301.206
301.194
301.18
301.164
301.147
301.128
301.108
301.087
301.065
301.043
301.019
300.995
300.971
300.946
300.921
300.896
300.871
300.845
300.82
300.794
300.769
300.744
300.719
300.695
300.671
300.647
300.623
300.6
300.577
300.555
300.533
300.512
300.491
300.471
300.451
300.432
300.413
300.395
300.377
300.359
300.343
300.326
300.31
300.295
300.28
300.265
300.251
300.238
300.224
300.212
300.199
300.187
300.175
300.164
300.153
300.142
300.131
300.121
300.111
300.101
300.092
300.083
300.073
300.064
300.056
300.047
300.038
300.03
300.021
300.013
300.004
299.412
299.641
299.855
300.053
300.238
300.408
300.565
300.71
300.843
300.964
301.073
301.173
301.262
301.342
301.413
301.475
301.529
301.575
301.615
301.647
301.673
301.694
301.709
301.718
301.723
301.724
301.72
301.713
301.702
301.688
301.671
301.651
301.629
301.605
301.579
301.551
301.522
301.491
301.46
301.427
301.393
301.359
301.324
301.289
301.254
301.219
301.183
301.147
301.112
301.077
301.042
301.007
300.972
300.939
300.905
300.872
300.84
300.808
300.777
300.747
300.717
300.688
300.659
300.631
300.604
300.578
300.552
300.527
300.503
300.48
300.457
300.434
300.413
300.392
300.372
300.352
300.333
300.314
300.296
300.279
300.262
300.245
300.229
300.214
300.199
300.184
300.17
300.156
300.142
300.129
300.116
300.103
300.09
300.078
300.065
300.053
300.041
300.03
300.018
300.006
299.244
299.539
299.813
300.068
300.305
300.525
300.727
300.913
301.083
301.238
301.38
301.507
301.622
301.725
301.816
301.895
301.965
302.025
302.075
302.117
302.151
302.177
302.196
302.209
302.215
302.215
302.211
302.201
302.187
302.169
302.147
302.122
302.094
302.063
302.029
301.994
301.956
301.917
301.876
301.834
301.791
301.747
301.702
301.657
301.612
301.566
301.52
301.475
301.429
301.384
301.339
301.294
301.25
301.206
301.163
301.121
301.08
301.039
300.999
300.96
300.921
300.884
300.847
300.812
300.777
300.743
300.71
300.678
300.647
300.616
300.587
300.558
300.531
300.504
300.478
300.452
300.428
300.404
300.381
300.358
300.337
300.315
300.295
300.275
300.255
300.237
300.218
300.2
300.183
300.165
300.149
300.132
300.116
300.1
300.084
300.069
300.053
300.038
300.023
300.008
299.077
299.436
299.772
300.084
300.373
300.641
300.888
301.115
301.323
301.513
301.686
301.842
301.982
302.107
302.218
302.316
302.401
302.474
302.535
302.587
302.628
302.66
302.683
302.698
302.706
302.707
302.701
302.689
302.672
302.65
302.623
302.593
302.558
302.52
302.479
302.436
302.39
302.342
302.292
302.241
302.188
302.134
302.08
302.025
301.969
301.913
301.857
301.802
301.746
301.69
301.635
301.581
301.527
301.474
301.421
301.37
301.319
301.269
301.22
301.172
301.126
301.08
301.035
300.992
300.949
300.908
300.867
300.828
300.79
300.753
300.717
300.682
300.648
300.615
300.583
300.552
300.522
300.493
300.465
300.438
300.411
300.385
300.36
300.336
300.312
300.289
300.266
300.245
300.223
300.202
300.182
300.161
300.142
300.122
300.103
300.084
300.065
300.046
300.028
300.009
298.91
299.334
299.73
300.099
300.441
300.757
301.049
301.317
301.563
301.787
301.991
302.175
302.341
302.489
302.62
302.735
302.836
302.922
302.995
303.055
303.104
303.142
303.169
303.187
303.196
303.197
303.19
303.177
303.156
303.13
303.099
303.063
303.022
302.977
302.929
302.877
302.823
302.766
302.707
302.647
302.584
302.521
302.457
302.392
302.326
302.26
302.194
302.128
302.062
301.997
301.932
301.867
301.804
301.741
301.679
301.618
301.558
301.499
301.441
301.385
301.33
301.276
301.223
301.171
301.121
301.072
301.025
300.978
300.933
300.889
300.847
300.806
300.766
300.727
300.689
300.653
300.617
300.583
300.549
300.517
300.486
300.455
300.425
300.397
300.369
300.341
300.315
300.289
300.263
300.239
300.214
300.191
300.167
300.144
300.121
300.099
300.077
300.055
300.033
300.011
298.743
299.232
299.689
300.114
300.508
300.873
301.209
301.519
301.802
302.061
302.296
302.509
302.7
302.87
303.021
303.154
303.27
303.37
303.454
303.523
303.579
303.623
303.655
303.675
303.686
303.687
303.679
303.663
303.64
303.61
303.574
303.532
303.485
303.433
303.377
303.318
303.255
303.19
303.122
303.052
302.98
302.907
302.833
302.758
302.682
302.606
302.53
302.454
302.378
302.303
302.228
302.154
302.08
302.008
301.936
301.866
301.797
301.729
301.662
301.597
301.533
301.471
301.41
301.351
301.293
301.236
301.181
301.128
301.076
301.026
300.977
300.929
300.883
300.838
300.795
300.753
300.712
300.672
300.634
300.596
300.56
300.525
300.491
300.457
300.425
300.394
300.363
300.333
300.304
300.275
300.247
300.22
300.193
300.166
300.14
300.114
300.089
300.063
300.038
300.013
298.576
299.13
299.648
300.129
300.575
300.989
301.37
301.72
302.041
302.334
302.601
302.841
303.057
303.251
303.422
303.573
303.704
303.816
303.912
303.99
304.054
304.103
304.139
304.163
304.175
304.176
304.167
304.149
304.123
304.088
304.047
304
303.947
303.888
303.825
303.758
303.687
303.613
303.536
303.457
303.376
303.293
303.209
303.124
303.038
302.952
302.866
302.779
302.694
302.608
302.523
302.439
302.356
302.274
302.193
302.113
302.035
301.958
301.883
301.809
301.737
301.666
301.597
301.53
301.464
301.4
301.338
301.278
301.219
301.162
301.106
301.052
301
300.949
300.9
300.852
300.806
300.761
300.718
300.675
300.634
300.594
300.556
300.518
300.481
300.446
300.411
300.377
300.344
300.312
300.28
300.249
300.218
300.188
300.159
300.129
300.1
300.071
300.043
300.014
298.41
299.029
299.606
300.144
300.643
301.104
301.53
301.921
302.28
302.607
302.904
303.173
303.415
303.63
303.822
303.99
304.136
304.262
304.369
304.457
304.528
304.583
304.623
304.649
304.662
304.664
304.654
304.634
304.604
304.566
304.52
304.467
304.408
304.342
304.272
304.197
304.117
304.035
303.949
303.86
303.77
303.677
303.584
303.489
303.393
303.297
303.2
303.104
303.008
302.913
302.818
302.724
302.631
302.539
302.449
302.36
302.273
302.187
302.103
302.02
301.939
301.861
301.784
301.708
301.635
301.564
301.494
301.427
301.361
301.297
301.235
301.175
301.117
301.06
301.005
300.952
300.9
300.85
300.801
300.754
300.708
300.664
300.621
300.579
300.538
300.498
300.459
300.421
300.384
300.348
300.313
300.278
300.244
300.21
300.177
300.144
300.112
300.08
300.048
300.016
298.244
298.927
299.565
300.159
300.71
301.219
301.689
302.122
302.518
302.879
303.207
303.504
303.771
304.009
304.221
304.406
304.568
304.707
304.824
304.922
305
305.061
305.105
305.134
305.149
305.15
305.139
305.117
305.085
305.043
304.992
304.933
304.868
304.795
304.718
304.635
304.547
304.456
304.361
304.263
304.163
304.061
303.957
303.853
303.747
303.641
303.534
303.428
303.322
303.217
303.112
303.008
302.906
302.804
302.705
302.606
302.51
302.415
302.322
302.231
302.142
302.055
301.97
301.887
301.806
301.727
301.65
301.576
301.503
301.433
301.364
301.298
301.233
301.171
301.11
301.051
300.994
300.939
300.885
300.833
300.782
300.733
300.685
300.639
300.594
300.55
300.507
300.465
300.424
300.385
300.345
300.307
300.269
300.232
300.196
300.159
300.124
300.088
300.053
300.018
298.078
298.826
299.524
300.174
300.777
301.334
301.849
302.322
302.755
303.15
303.51
303.834
304.126
304.387
304.618
304.822
304.999
305.151
305.279
305.386
305.471
305.538
305.586
305.618
305.634
305.636
305.624
305.599
305.564
305.518
305.462
305.398
305.326
305.247
305.162
305.071
304.976
304.876
304.772
304.665
304.556
304.444
304.33
304.216
304.1
303.984
303.867
303.751
303.635
303.52
303.405
303.292
303.18
303.069
302.96
302.852
302.746
302.643
302.541
302.441
302.344
302.248
302.155
302.065
301.976
301.89
301.806
301.724
301.645
301.568
301.493
301.42
301.35
301.281
301.215
301.15
301.088
301.027
300.968
300.911
300.856
300.802
300.75
300.699
300.65
300.602
300.555
300.509
300.464
300.421
300.378
300.336
300.295
300.254
300.214
300.175
300.135
300.096
300.058
300.019
297.913
298.726
299.484
300.189
300.843
301.449
302.007
302.521
302.992
303.421
303.811
304.164
304.481
304.764
305.015
305.236
305.428
305.593
305.732
305.848
305.941
306.014
306.066
306.101
306.118
306.12
306.107
306.08
306.042
305.992
305.931
305.862
305.784
305.698
305.606
305.507
305.403
305.294
305.182
305.066
304.947
304.826
304.702
304.578
304.452
304.326
304.2
304.073
303.947
303.822
303.698
303.574
303.453
303.332
303.214
303.097
302.982
302.87
302.759
302.651
302.545
302.441
302.34
302.242
302.146
302.052
301.961
301.872
301.786
301.702
301.621
301.542
301.466
301.391
301.319
301.249
301.181
301.115
301.052
300.99
300.93
300.871
300.814
300.759
300.706
300.653
300.602
300.553
300.504
300.457
300.41
300.365
300.32
300.276
300.232
300.19
300.147
300.105
300.063
300.021
297.748
298.625
299.443
300.204
300.91
301.563
302.166
302.72
303.228
303.691
304.112
304.492
304.834
305.139
305.41
305.649
305.856
306.034
306.184
306.309
306.41
306.488
306.544
306.582
306.6
306.602
306.588
306.56
306.518
306.464
306.399
306.324
306.24
306.147
306.047
305.941
305.829
305.712
305.59
305.465
305.337
305.206
305.073
304.939
304.803
304.667
304.531
304.394
304.259
304.123
303.989
303.856
303.725
303.595
303.467
303.341
303.217
303.096
302.977
302.86
302.746
302.634
302.525
302.419
302.315
302.214
302.116
302.02
301.927
301.837
301.749
301.664
301.581
301.501
301.423
301.348
301.274
301.203
301.135
301.068
301.003
300.94
300.879
300.819
300.761
300.705
300.65
300.596
300.544
300.493
300.443
300.394
300.345
300.298
300.251
300.204
300.159
300.113
300.068
300.023
297.584
298.525
299.402
300.219
300.976
301.677
302.323
302.918
303.463
303.96
304.411
304.819
305.186
305.514
305.804
306.06
306.282
306.473
306.635
306.769
306.877
306.96
307.021
307.061
307.081
307.083
307.068
307.037
306.993
306.935
306.865
306.785
306.694
306.595
306.488
306.374
306.254
306.128
305.998
305.863
305.726
305.585
305.443
305.298
305.153
305.007
304.861
304.715
304.569
304.424
304.28
304.137
303.996
303.857
303.72
303.584
303.452
303.321
303.193
303.068
302.946
302.826
302.709
302.595
302.484
302.375
302.27
302.167
302.067
301.97
301.876
301.785
301.696
301.61
301.527
301.446
301.367
301.291
301.217
301.145
301.076
301.008
300.943
300.879
300.817
300.756
300.697
300.64
300.584
300.529
300.475
300.422
300.37
300.319
300.269
300.219
300.17
300.121
300.073
300.024
297.421
298.425
299.362
300.233
301.042
301.79
302.481
303.115
303.697
304.227
304.709
305.145
305.537
305.887
306.197
306.47
306.707
306.911
307.084
307.227
307.342
307.431
307.496
307.538
307.56
307.562
307.546
307.514
307.466
307.404
307.33
307.244
307.147
307.041
306.927
306.805
306.677
306.542
306.403
306.26
306.113
305.963
305.811
305.657
305.502
305.346
305.19
305.033
304.878
304.723
304.569
304.417
304.266
304.118
303.971
303.827
303.685
303.546
303.409
303.276
303.145
303.017
302.892
302.77
302.652
302.536
302.423
302.314
302.207
302.104
302.003
301.906
301.811
301.719
301.63
301.544
301.46
301.378
301.299
301.223
301.149
301.076
301.006
300.938
300.872
300.807
300.744
300.683
300.623
300.565
300.507
300.451
300.395
300.341
300.287
300.234
300.182
300.129
300.078
300.026
297.258
298.326
299.322
300.248
301.108
301.903
302.637
303.312
303.93
304.494
305.007
305.47
305.886
306.258
306.588
306.878
307.131
307.347
307.531
307.683
307.805
307.9
307.969
308.014
308.037
308.039
308.022
307.988
307.937
307.871
307.792
307.701
307.598
307.486
307.364
307.234
307.098
306.955
306.807
306.655
306.499
306.339
306.177
306.014
305.849
305.683
305.517
305.351
305.186
305.021
304.858
304.696
304.536
304.378
304.222
304.068
303.918
303.77
303.625
303.482
303.343
303.207
303.075
302.945
302.819
302.696
302.576
302.46
302.347
302.237
302.13
302.026
301.925
301.828
301.733
301.641
301.552
301.465
301.381
301.3
301.221
301.144
301.07
300.997
300.927
300.858
300.791
300.726
300.663
300.6
300.539
300.479
300.42
300.363
300.305
300.249
300.193
300.138
300.082
300.027
297.096
298.227
299.281
300.263
301.173
302.016
302.793
303.508
304.162
304.76
305.303
305.793
306.234
306.628
306.978
307.285
307.552
307.782
307.976
308.137
308.266
308.367
308.44
308.488
308.512
308.514
308.497
308.46
308.406
308.337
308.253
308.156
308.047
307.928
307.799
307.662
307.518
307.366
307.21
307.048
306.883
306.714
306.543
306.369
306.195
306.019
305.843
305.667
305.492
305.318
305.145
304.973
304.804
304.636
304.471
304.309
304.149
303.993
303.839
303.688
303.541
303.397
303.256
303.119
302.986
302.855
302.729
302.605
302.485
302.369
302.256
302.146
302.039
301.936
301.835
301.738
301.644
301.552
301.463
301.377
301.293
301.212
301.133
301.056
300.982
300.909
300.838
300.769
300.702
300.636
300.571
300.508
300.445
300.384
300.323
300.264
300.204
300.146
300.087
300.029
296.935
298.128
299.242
300.277
301.238
302.128
302.948
303.703
304.394
305.024
305.597
306.115
306.581
306.997
307.365
307.69
307.972
308.214
308.419
308.589
308.726
308.832
308.909
308.96
308.985
308.988
308.969
308.93
308.873
308.8
308.711
308.609
308.494
308.369
308.233
308.088
307.935
307.776
307.61
307.44
307.265
307.087
306.906
306.723
306.539
306.354
306.168
305.982
305.797
305.613
305.431
305.25
305.071
304.894
304.72
304.548
304.38
304.214
304.052
303.893
303.738
303.586
303.437
303.293
303.151
303.014
302.88
302.75
302.623
302.5
302.381
302.265
302.152
302.043
301.937
301.835
301.735
301.638
301.544
301.453
301.365
301.279
301.196
301.115
301.036
300.96
300.885
300.812
300.741
300.671
300.603
300.536
300.47
300.405
300.341
300.278
300.216
300.154
300.092
300.031
296.774
298.03
299.202
300.292
301.303
302.239
303.103
303.897
304.624
305.288
305.891
306.436
306.926
307.363
307.751
308.093
308.389
308.645
308.86
309.039
309.183
309.295
309.376
309.429
309.456
309.459
309.439
309.398
309.338
309.261
309.168
309.06
308.94
308.807
308.664
308.512
308.351
308.183
308.009
307.83
307.646
307.459
307.268
307.076
306.882
306.686
306.491
306.296
306.101
305.908
305.715
305.525
305.337
305.151
304.967
304.787
304.609
304.435
304.264
304.097
303.934
303.774
303.617
303.465
303.317
303.172
303.031
302.894
302.761
302.631
302.506
302.384
302.265
302.15
302.039
301.931
301.826
301.724
301.625
301.53
301.437
301.346
301.259
301.174
301.091
301.01
300.931
300.854
300.78
300.706
300.634
300.564
300.495
300.427
300.359
300.293
300.227
300.162
300.097
300.032
296.614
297.933
299.162
300.306
301.368
302.35
303.257
304.09
304.853
305.55
306.182
306.754
307.269
307.728
308.135
308.493
308.805
309.073
309.299
309.487
309.638
309.755
309.841
309.896
309.925
309.927
309.906
309.864
309.801
309.72
309.622
309.509
309.382
309.243
309.093
308.933
308.765
308.589
308.406
308.218
308.025
307.828
307.628
307.426
307.222
307.018
306.813
306.608
306.403
306.2
305.998
305.799
305.601
305.406
305.213
305.024
304.838
304.655
304.476
304.3
304.128
303.961
303.797
303.637
303.481
303.329
303.181
303.037
302.898
302.762
302.63
302.502
302.377
302.257
302.14
302.026
301.916
301.809
301.706
301.605
301.508
301.413
301.321
301.232
301.145
301.06
300.977
300.897
300.818
300.741
300.666
300.592
300.519
300.448
300.377
300.307
300.238
300.17
300.102
300.034
296.455
297.836
299.123
300.321
301.432
302.461
303.409
304.282
305.081
305.81
306.473
307.072
307.61
308.091
308.517
308.892
309.219
309.499
309.736
309.932
310.091
310.213
310.303
310.361
310.391
310.393
310.371
310.327
310.261
310.176
310.074
309.956
309.823
309.677
309.52
309.353
309.176
308.992
308.801
308.604
308.402
308.196
307.986
307.775
307.562
307.347
307.133
306.918
306.704
306.491
306.28
306.071
305.864
305.66
305.458
305.26
305.065
304.874
304.686
304.502
304.322
304.147
303.975
303.808
303.644
303.485
303.331
303.18
303.034
302.891
302.753
302.619
302.489
302.363
302.24
302.121
302.006
301.894
301.786
301.681
301.579
301.479
301.383
301.289
301.198
301.11
301.023
300.939
300.857
300.776
300.697
300.62
300.544
300.469
300.395
300.322
300.25
300.178
300.107
300.035
296.297
297.739
299.084
300.335
301.496
302.57
303.562
304.473
305.308
306.069
306.761
307.387
307.949
308.452
308.897
309.289
309.63
309.923
310.17
310.375
310.541
310.669
310.762
310.823
310.854
310.857
310.834
310.787
310.719
310.63
310.523
310.4
310.261
310.109
309.945
309.77
309.586
309.393
309.193
308.987
308.776
308.561
308.343
308.122
307.899
307.675
307.451
307.227
307.003
306.781
306.56
306.342
306.125
305.912
305.702
305.494
305.291
305.091
304.895
304.703
304.515
304.332
304.152
303.977
303.807
303.641
303.479
303.322
303.169
303.02
302.876
302.736
302.6
302.468
302.34
302.216
302.096
301.979
301.866
301.756
301.649
301.545
301.445
301.347
301.252
301.159
301.069
300.981
300.895
300.811
300.728
300.647
300.568
300.49
300.412
300.336
300.261
300.186
300.111
300.037
296.14
297.643
299.045
300.349
301.56
302.68
303.713
304.663
305.533
306.327
307.048
307.701
308.287
308.811
309.275
309.683
310.039
310.344
310.602
310.816
310.988
311.122
311.219
311.283
311.315
311.318
311.294
311.245
311.174
311.081
310.97
310.841
310.697
310.538
310.367
310.185
309.993
309.792
309.584
309.369
309.149
308.925
308.697
308.466
308.234
308.001
307.767
307.533
307.3
307.069
306.839
306.611
306.386
306.163
305.944
305.728
305.515
305.307
305.103
304.903
304.707
304.515
304.329
304.146
303.968
303.795
303.627
303.463
303.304
303.149
302.998
302.852
302.711
302.573
302.44
302.31
302.185
302.063
301.945
301.83
301.719
301.611
301.506
301.404
301.305
301.208
301.114
301.022
300.933
300.845
300.759
300.675
300.592
300.51
300.43
300.35
300.272
300.194
300.116
300.039
295.984
297.548
299.006
300.363
301.623
302.788
303.863
304.851
305.757
306.583
307.334
308.012
308.622
309.167
309.65
310.075
310.445
310.762
311.031
311.254
311.433
311.572
311.673
311.739
311.773
311.776
311.751
311.7
311.626
311.53
311.414
311.28
311.13
310.965
310.787
310.597
310.397
310.188
309.971
309.748
309.519
309.286
309.049
308.809
308.568
308.325
308.081
307.838
307.596
307.355
307.116
306.878
306.644
306.412
306.184
305.96
305.739
305.522
305.309
305.101
304.897
304.698
304.504
304.314
304.129
303.949
303.774
303.603
303.437
303.276
303.12
302.968
302.82
302.677
302.538
302.404
302.273
302.146
302.024
301.904
301.789
301.676
301.567
301.461
301.358
301.257
301.159
301.064
300.97
300.879
300.79
300.702
300.616
300.531
300.447
300.365
300.283
300.202
300.121
300.04
295.829
297.453
298.968
300.377
301.685
302.896
304.012
305.039
305.979
306.838
307.617
308.322
308.956
309.522
310.023
310.465
310.849
311.178
311.457
311.689
311.875
312.019
312.124
312.193
312.228
312.231
312.205
312.153
312.076
311.976
311.855
311.716
311.56
311.389
311.204
311.007
310.799
310.582
310.357
310.125
309.887
309.645
309.399
309.15
308.899
308.647
308.394
308.141
307.89
307.639
307.391
307.144
306.901
306.66
306.423
306.19
305.961
305.735
305.515
305.298
305.087
304.88
304.678
304.481
304.289
304.102
303.92
303.742
303.57
303.403
303.24
303.082
302.929
302.781
302.636
302.497
302.361
302.229
302.102
301.978
301.858
301.741
301.628
301.518
301.41
301.306
301.204
301.105
301.008
300.913
300.82
300.729
300.64
300.552
300.465
300.379
300.294
300.209
300.125
300.042
295.674
297.359
298.93
300.391
301.748
303.003
304.161
305.225
306.2
307.09
307.899
308.63
309.287
309.874
310.394
310.852
311.25
311.592
311.881
312.121
312.314
312.464
312.573
312.644
312.68
312.683
312.657
312.602
312.522
312.418
312.294
312.149
311.987
311.81
311.618
311.414
311.198
310.973
310.74
310.499
310.253
310.001
309.746
309.488
309.228
308.966
308.704
308.442
308.181
307.922
307.664
307.408
307.156
306.907
306.661
306.419
306.181
305.947
305.718
305.494
305.275
305.06
304.851
304.646
304.447
304.253
304.064
303.881
303.702
303.529
303.36
303.196
303.038
302.883
302.734
302.589
302.448
302.312
302.18
302.051
301.926
301.805
301.688
301.574
301.462
301.354
301.249
301.146
301.045
300.947
300.851
300.756
300.663
300.572
300.482
300.393
300.305
300.217
300.13
300.043
295.521
297.265
298.892
300.405
301.81
303.109
304.308
305.41
306.42
307.341
308.178
308.935
309.615
310.223
310.762
311.236
311.648
312.002
312.302
312.55
312.75
312.905
313.018
313.092
313.129
313.132
313.105
313.048
312.965
312.858
312.729
312.579
312.412
312.228
312.029
311.818
311.595
311.362
311.12
310.871
310.616
310.356
310.091
309.824
309.554
309.284
309.012
308.741
308.471
308.202
307.935
307.671
307.409
307.151
306.897
306.646
306.4
306.158
305.921
305.689
305.461
305.239
305.023
304.811
304.605
304.404
304.208
304.018
303.833
303.654
303.479
303.31
303.145
302.986
302.831
302.681
302.535
302.394
302.257
302.124
301.995
301.869
301.748
301.629
301.514
301.402
301.293
301.186
301.082
300.98
300.881
300.783
300.687
300.592
300.499
300.407
300.315
300.225
300.135
300.045
295.369
297.172
298.854
300.419
301.871
303.215
304.454
305.594
306.638
307.591
308.456
309.239
309.942
310.57
311.127
311.617
312.043
312.41
312.719
312.976
313.183
313.343
313.46
313.536
313.575
313.578
313.55
313.491
313.405
313.295
313.161
313.006
312.833
312.643
312.438
312.219
311.988
311.747
311.498
311.24
310.976
310.707
310.434
310.157
309.879
309.599
309.318
309.038
308.759
308.481
308.205
307.931
307.661
307.394
307.131
306.872
306.617
306.367
306.122
305.882
305.647
305.417
305.193
304.974
304.761
304.553
304.351
304.155
303.963
303.778
303.597
303.422
303.252
303.087
302.927
302.772
302.621
302.475
302.333
302.196
302.062
301.933
301.807
301.685
301.566
301.45
301.337
301.227
301.119
301.014
300.911
300.81
300.71
300.612
300.516
300.42
300.326
300.232
300.139
300.046
295.218
297.08
298.817
300.433
301.932
303.319
304.599
305.776
306.854
307.838
308.732
309.54
310.266
310.915
311.49
311.996
312.436
312.814
313.134
313.399
313.612
313.778
313.898
313.977
314.017
314.021
313.991
313.931
313.842
313.728
313.59
313.43
313.251
313.055
312.843
312.617
312.379
312.13
311.872
311.606
311.334
311.056
310.774
310.488
310.201
309.912
309.622
309.332
309.044
308.757
308.472
308.19
307.91
307.635
307.363
307.096
306.833
306.574
306.321
306.073
305.831
305.594
305.362
305.136
304.916
304.702
304.493
304.29
304.092
303.901
303.714
303.533
303.358
303.187
303.022
302.862
302.706
302.556
302.409
302.267
302.13
301.996
301.866
301.74
301.617
301.497
301.38
301.267
301.155
301.047
300.94
300.836
300.733
300.632
300.533
300.434
300.337
300.24
300.144
300.048
295.069
296.989
298.78
300.446
301.993
303.423
304.743
305.957
307.069
308.083
309.005
309.838
310.587
311.256
311.85
312.371
312.825
313.215
313.545
313.818
314.039
314.209
314.334
314.415
314.456
314.46
314.429
314.367
314.276
314.158
314.015
313.851
313.666
313.464
313.245
313.012
312.767
312.51
312.244
311.97
311.689
311.402
311.111
310.817
310.52
310.222
309.923
309.625
309.327
309.031
308.737
308.446
308.158
307.874
307.594
307.318
307.047
306.78
306.519
306.264
306.013
305.769
305.53
305.297
305.07
304.849
304.634
304.424
304.221
304.023
303.831
303.644
303.463
303.287
303.117
302.952
302.791
302.636
302.485
302.338
302.196
302.058
301.924
301.794
301.667
301.544
301.424
301.306
301.192
301.08
300.97
300.862
300.756
300.652
300.549
300.448
300.347
300.247
300.148
300.049
294.92
296.898
298.743
300.46
302.053
303.526
304.886
306.136
307.282
308.327
309.276
310.135
310.906
311.595
312.207
312.744
313.212
313.613
313.953
314.234
314.461
314.637
314.765
314.849
314.891
314.895
314.864
314.8
314.706
314.584
314.437
314.268
314.078
313.869
313.644
313.404
313.151
312.887
312.613
312.33
312.041
311.746
311.446
311.143
310.837
310.53
310.222
309.915
309.608
309.303
309
308.7
308.404
308.111
307.822
307.538
307.259
306.985
306.716
306.452
306.195
305.943
305.697
305.457
305.223
304.995
304.773
304.557
304.348
304.144
303.946
303.754
303.567
303.386
303.211
303.04
302.875
302.715
302.56
302.409
302.262
302.12
301.982
301.848
301.717
301.59
301.466
301.346
301.228
301.112
300.999
300.888
300.779
300.672
300.566
300.461
300.358
300.255
300.153
300.051
294.773
296.808
298.707
300.473
302.112
303.629
305.028
306.314
307.493
308.568
309.545
310.428
311.222
311.932
312.56
313.113
313.594
314.008
314.357
314.647
314.881
315.061
315.193
315.279
315.323
315.327
315.295
315.229
315.132
315.007
314.856
314.682
314.486
314.271
314.04
313.793
313.532
313.26
312.978
312.688
312.39
312.086
311.778
311.466
311.151
310.835
310.518
310.202
309.886
309.573
309.261
308.953
308.647
308.346
308.049
307.757
307.469
307.187
306.91
306.639
306.374
306.115
305.862
305.615
305.374
305.14
304.912
304.69
304.474
304.264
304.06
303.863
303.671
303.484
303.304
303.129
302.959
302.794
302.634
302.479
302.328
302.182
302.04
301.902
301.767
301.636
301.509
301.385
301.263
301.144
301.028
300.914
300.802
300.691
300.582
300.475
300.368
300.262
300.157
300.052
294.627
296.719
298.67
300.486
302.171
303.73
305.168
306.491
307.702
308.807
309.812
310.72
311.536
312.265
312.911
313.48
313.974
314.399
314.758
315.056
315.296
315.482
315.618
315.706
315.751
315.755
315.722
315.654
315.554
315.426
315.271
315.092
314.89
314.67
314.432
314.178
313.91
313.631
313.341
313.042
312.736
312.423
312.106
311.786
311.462
311.138
310.812
310.487
310.163
309.84
309.52
309.203
308.889
308.579
308.274
307.973
307.678
307.388
307.103
306.825
306.552
306.286
306.026
305.772
305.524
305.283
305.049
304.821
304.599
304.383
304.174
303.97
303.773
303.582
303.396
303.216
303.041
302.872
302.707
302.548
302.393
302.243
302.097
301.955
301.817
301.682
301.551
301.423
301.298
301.176
301.057
300.939
300.824
300.71
300.599
300.488
300.378
300.27
300.162
300.054
294.482
296.631
298.635
300.499
302.229
303.83
305.307
306.665
307.909
309.045
310.076
311.008
311.846
312.595
313.259
313.842
314.35
314.787
315.156
315.461
315.708
315.899
316.038
316.129
316.175
316.179
316.145
316.075
315.973
315.841
315.682
315.498
315.291
315.065
314.82
314.559
314.285
313.998
313.7
313.393
313.079
312.758
312.432
312.103
311.771
311.437
311.103
310.769
310.436
310.105
309.776
309.45
309.128
308.81
308.497
308.188
307.884
307.587
307.294
307.008
306.728
306.455
306.188
305.927
305.673
305.426
305.185
304.95
304.722
304.501
304.286
304.077
303.875
303.678
303.487
303.302
303.123
302.949
302.78
302.616
302.457
302.303
302.153
302.007
301.866
301.727
301.593
301.462
301.333
301.208
301.085
300.965
300.846
300.73
300.615
300.501
300.389
300.277
300.166
300.055
294.339
296.543
298.599
300.512
302.287
303.93
305.445
306.838
308.115
309.279
310.337
311.294
312.154
312.922
313.603
314.202
314.723
315.171
315.549
315.863
316.116
316.312
316.454
316.548
316.595
316.599
316.564
316.493
316.388
316.252
316.089
315.9
315.688
315.456
315.205
314.938
314.656
314.361
314.056
313.741
313.418
313.089
312.755
312.417
312.077
311.734
311.391
311.049
310.707
310.367
310.03
309.696
309.365
309.039
308.717
308.4
308.089
307.784
307.484
307.19
306.903
306.623
306.348
306.081
305.82
305.566
305.319
305.079
304.845
304.618
304.397
304.183
303.975
303.774
303.578
303.388
303.204
303.026
302.852
302.684
302.521
302.363
302.209
302.059
301.914
301.772
301.634
301.5
301.368
301.239
301.113
300.99
300.868
300.749
300.631
300.514
300.399
300.284
300.17
300.057
294.197
296.456
298.564
300.525
302.345
304.028
305.582
307.01
308.318
309.512
310.597
311.577
312.458
313.246
313.944
314.558
315.092
315.551
315.939
316.26
316.52
316.72
316.867
316.962
317.011
317.015
316.979
316.906
316.799
316.66
316.492
316.299
316.082
315.843
315.586
315.312
315.023
314.721
314.408
314.085
313.754
313.417
313.075
312.728
312.379
312.028
311.677
311.326
310.975
310.627
310.281
309.939
309.6
309.265
308.936
308.611
308.292
307.979
307.671
307.371
307.076
306.788
306.508
306.233
305.966
305.706
305.453
305.206
304.967
304.734
304.508
304.288
304.075
303.868
303.668
303.473
303.284
303.101
302.924
302.752
302.584
302.422
302.264
302.111
301.962
301.817
301.675
301.537
301.402
301.27