/*--------------------------------*- C++ -*----------------------------------*\
| =========                 |                                                 |
| \\      /  F ield         | OpenFOAM: The Open Source CFD Toolbox           |
|  \\    /   O peration     | Version:  2406                                  |
|   \\  /    A nd           | Website:  www.openfoam.com                      |
|    \\/     M anipulation  |                                                 |
\*---------------------------------------------------------------------------*/
FoamFile
{
    version     2.0;
    format      ascii;
    arch        "LSB;label=32;scalar=64";
    class       volVectorField;
    location    "160";
    object      flux;
}
// * * * * * * * * * * * * * * * * * * * * * * * * * * * * * * * * * * * * * //

dimensions      [0 1 -1 1 0 0 0];

internalField   nonuniform List<vector> 
20000
(
(0.00236491 -0.0761142 0)
(0.00229894 -0.0714502 0)
(0.0022323 -0.0669192 0)
(0.00216453 -0.0625222 0)
(0.00209639 -0.0582615 0)
(0.0020283 -0.054137 0)
(0.00195985 -0.050149 0)
(0.00189148 -0.0462981 0)
(0.00182351 -0.0425834 0)
(0.00175584 -0.0390045 0)
(0.00168864 -0.0355606 0)
(0.0016221 -0.0322504 0)
(0.00155631 -0.0290725 0)
(0.00149133 -0.0260255 0)
(0.00142728 -0.0231076 0)
(0.00136424 -0.0203168 0)
(0.00130229 -0.0176509 0)
(0.0012415 -0.0151079 0)
(0.00118192 -0.0126852 0)
(0.00112359 -0.0103805 0)
(0.00106656 -0.00819119 0)
(0.00101087 -0.00611457 0)
(0.00095657 -0.00414794 0)
(0.000903672 -0.00228852 0)
(0.000852204 -0.000533476 0)
(0.00080218 0.00112008 0)
(0.000753614 0.00267505 0)
(0.000706513 0.00413435 0)
(0.00066088 0.00550092 0)
(0.000616716 0.00677771 0)
(0.000574016 0.00796763 0)
(0.000532775 0.00907363 0)
(0.000492982 0.0100986 0)
(0.000454626 0.0110454 0)
(0.000417692 0.011917 0)
(0.000382162 0.0127161 0)
(0.000348017 0.0134455 0)
(0.000315235 0.0141081 0)
(0.000283795 0.0147064 0)
(0.00025367 0.0152432 0)
(0.000224835 0.015721 0)
(0.000197262 0.0161425 0)
(0.000170924 0.01651 0)
(0.000145791 0.0168261 0)
(0.000121832 0.0170931 0)
(9.90165e-05 0.0173134 0)
(7.73133e-05 0.0174892 0)
(5.66904e-05 0.0176226 0)
(3.71153e-05 0.0177159 0)
(1.85556e-05 0.0177711 0)
(9.78589e-07 0.0177901 0)
(-1.56486e-05 0.017775 0)
(-3.13587e-05 0.0177275 0)
(-4.61845e-05 0.0176496 0)
(-6.01584e-05 0.0175428 0)
(-7.33129e-05 0.017409 0)
(-8.568e-05 0.0172496 0)
(-9.72913e-05 0.0170663 0)
(-0.000108178 0.0168604 0)
(-0.000118372 0.0166336 0)
(-0.000127903 0.016387 0)
(-0.0001368 0.016122 0)
(-0.000145094 0.0158398 0)
(-0.000152813 0.0155416 0)
(-0.000159985 0.0152286 0)
(-0.000166637 0.0149017 0)
(-0.000172798 0.0145621 0)
(-0.000178492 0.0142106 0)
(-0.000183745 0.0138482 0)
(-0.000188582 0.0134757 0)
(-0.000193028 0.0130939 0)
(-0.000197104 0.0127036 0)
(-0.000200835 0.0123055 0)
(-0.000204241 0.0119003 0)
(-0.000207343 0.0114886 0)
(-0.000210163 0.011071 0)
(-0.000212718 0.010648 0)
(-0.000215028 0.0102202 0)
(-0.000217111 0.00978795 0)
(-0.000218983 0.00935178 0)
(-0.000220661 0.00891207 0)
(-0.000222161 0.00846919 0)
(-0.000223496 0.00802348 0)
(-0.000224682 0.00757526 0)
(-0.00022573 0.00712481 0)
(-0.000226654 0.00667239 0)
(-0.000227464 0.00621825 0)
(-0.000228172 0.00576259 0)
(-0.000228787 0.00530562 0)
(-0.000229319 0.0048475 0)
(-0.000229776 0.0043884 0)
(-0.000230166 0.00392845 0)
(-0.000230495 0.00346779 0)
(-0.000230769 0.00300653 0)
(-0.000230995 0.00254477 0)
(-0.000231176 0.00208261 0)
(-0.000231316 0.00162013 0)
(-0.000231419 0.0011574 0)
(-0.000231486 0.000694507 0)
(-0.000231519 0.000231513 0)
(0.00709452 -0.0760957 0)
(0.00689611 -0.0714321 0)
(0.00669565 -0.0669024 0)
(0.00649312 -0.0625069 0)
(0.00628884 -0.058247 0)
(0.00608424 -0.0541236 0)
(0.00587906 -0.0501367 0)
(0.00567406 -0.0462867 0)
(0.00547006 -0.0425729 0)
(0.00526706 -0.0389949 0)
(0.00506552 -0.0355518 0)
(0.00486592 -0.0322424 0)
(0.00466853 -0.0290654 0)
(0.00447362 -0.0260191 0)
(0.00428148 -0.0231019 0)
(0.00409239 -0.0203118 0)
(0.00390656 -0.0176466 0)
(0.0037242 -0.0151042 0)
(0.00354545 -0.0126821 0)
(0.00337048 -0.010378 0)
(0.00319941 -0.00818917 0)
(0.00303237 -0.00611306 0)
(0.00286947 -0.00414692 0)
(0.00271079 -0.00228796 0)
(0.0025564 -0.000533348 0)
(0.00240634 0.0011198 0)
(0.00226066 0.00267438 0)
(0.00211936 0.00413333 0)
(0.00198248 0.00549956 0)
(0.00184999 0.00677603 0)
(0.0017219 0.00796567 0)
(0.00159819 0.00907139 0)
(0.00147882 0.0100961 0)
(0.00136376 0.0110427 0)
(0.00125297 0.011914 0)
(0.00114639 0.012713 0)
(0.00104396 0.0134422 0)
(0.000945626 0.0141046 0)
(0.000851312 0.0147028 0)
(0.000760945 0.0152394 0)
(0.000674447 0.0157171 0)
(0.000591737 0.0161385 0)
(0.000512729 0.0165059 0)
(0.000437335 0.016822 0)
(0.000365464 0.0170889 0)
(0.000297023 0.0173091 0)
(0.000231919 0.0174849 0)
(0.000170055 0.0176183 0)
(0.000111335 0.0177116 0)
(5.56608e-05 0.0177667 0)
(2.93408e-06 0.0177858 0)
(-4.69433e-05 0.0177706 0)
(-9.40698e-05 0.0177232 0)
(-0.000138543 0.0176452 0)
(-0.000180462 0.0175385 0)
(-0.000219922 0.0174047 0)
(-0.00025702 0.0172453 0)
(-0.000291851 0.017062 0)
(-0.000324509 0.0168563 0)
(-0.000355088 0.0166295 0)
(-0.000383677 0.0163829 0)
(-0.000410367 0.016118 0)
(-0.000435246 0.0158359 0)
(-0.000458401 0.0155378 0)
(-0.000479915 0.0152248 0)
(-0.000499871 0.0148981 0)
(-0.000518351 0.0145585 0)
(-0.000535432 0.0142071 0)
(-0.00055119 0.0138448 0)
(-0.000565701 0.0134723 0)
(-0.000579036 0.0130907 0)
(-0.000591265 0.0127005 0)
(-0.000602455 0.0123025 0)
(-0.000612673 0.0118974 0)
(-0.000621979 0.0114858 0)
(-0.000630436 0.0110683 0)
(-0.000638102 0.0106454 0)
(-0.000645031 0.0102176 0)
(-0.000651279 0.00978553 0)
(-0.000656895 0.00934947 0)
(-0.000661929 0.00890987 0)
(-0.000666428 0.0084671 0)
(-0.000670434 0.0080215 0)
(-0.00067399 0.00757339 0)
(-0.000677134 0.00712305 0)
(-0.000679905 0.00667075 0)
(-0.000682336 0.00621672 0)
(-0.000684459 0.00576117 0)
(-0.000686305 0.00530431 0)
(-0.000687901 0.00484631 0)
(-0.000689272 0.00438732 0)
(-0.00069044 0.00392748 0)
(-0.000691428 0.00346694 0)
(-0.000692252 0.00300579 0)
(-0.000692928 0.00254414 0)
(-0.000693471 0.00208209 0)
(-0.000693892 0.00161973 0)
(-0.0006942 0.00115711 0)
(-0.000694401 0.000694335 0)
(-0.0006945 0.000231456 0)
(0.0118227 -0.0760585 0)
(0.0114922 -0.0713973 0)
(0.0111575 -0.0668693 0)
(0.0108199 -0.0624761 0)
(0.0104797 -0.0582183 0)
(0.0101386 -0.0540969 0)
(0.00979681 -0.0501121 0)
(0.0094553 -0.0462638 0)
(0.00911526 -0.0425519 0)
(0.00877697 -0.0389757 0)
(0.00844115 -0.0355343 0)
(0.00810854 -0.0322265 0)
(0.0077796 -0.029051 0)
(0.0074548 -0.0260063 0)
(0.00713463 -0.0230905 0)
(0.00681953 -0.0203018 0)
(0.00650988 -0.0176379 0)
(0.00620598 -0.0150967 0)
(0.00590811 -0.0126759 0)
(0.00561653 -0.0103729 0)
(0.00533147 -0.00818516 0)
(0.00505312 -0.00611008 0)
(0.00478167 -0.00414491 0)
(0.00451725 -0.00228686 0)
(0.00425997 -0.000533113 0)
(0.00400991 0.00111922 0)
(0.00376714 0.00267304 0)
(0.00353169 0.00413126 0)
(0.00330358 0.00549683 0)
(0.00308282 0.00677267 0)
(0.00286937 0.00796171 0)
(0.00266321 0.00906689 0)
(0.0024643 0.0100911 0)
(0.00227257 0.0110372 0)
(0.00208794 0.0119081 0)
(0.00191034 0.0127067 0)
(0.00173965 0.0134356 0)
(0.00157579 0.0140976 0)
(0.00141862 0.0146955 0)
(0.00126803 0.0152319 0)
(0.00112389 0.0157094 0)
(0.000986067 0.0161305 0)
(0.000854409 0.0164978 0)
(0.000728772 0.0168136 0)
(0.000609007 0.0170805 0)
(0.000494959 0.0173006 0)
(0.00038647 0.0174762 0)
(0.00028338 0.0176096 0)
(0.000185529 0.0177028 0)
(9.27538e-05 0.0177579 0)
(4.89031e-06 0.017777 0)
(-7.8225e-05 0.0177618 0)
(-0.000156756 0.0177144 0)
(-0.000230867 0.0176365 0)
(-0.000300719 0.0175298 0)
(-0.000366475 0.0173961 0)
(-0.000428295 0.0172368 0)
(-0.000486338 0.0170536 0)
(-0.000540759 0.016848 0)
(-0.000591715 0.0166213 0)
(-0.000639356 0.0163748 0)
(-0.000683832 0.0161101 0)
(-0.000725291 0.0158281 0)
(-0.000763875 0.0155301 0)
(-0.000799726 0.0152173 0)
(-0.000832981 0.0148907 0)
(-0.000863775 0.0145513 0)
(-0.000892239 0.0142001 0)
(-0.000918499 0.0138379 0)
(-0.00094268 0.0134657 0)
(-0.000964901 0.0130842 0)
(-0.000985279 0.0126942 0)
(-0.00100393 0.0122964 0)
(-0.00102095 0.0118915 0)
(-0.00103646 0.0114801 0)
(-0.00105055 0.0110628 0)
(-0.00106333 0.0106401 0)
(-0.00107488 0.0102126 0)
(-0.00108529 0.0097807 0)
(-0.00109465 0.00934486 0)
(-0.00110303 0.00890547 0)
(-0.00111053 0.00846292 0)
(-0.00111721 0.00801754 0)
(-0.00112313 0.00756965 0)
(-0.00112837 0.00711954 0)
(-0.00113299 0.00666745 0)
(-0.00113704 0.00621365 0)
(-0.00114058 0.00575833 0)
(-0.00114365 0.00530169 0)
(-0.00114631 0.00484391 0)
(-0.0011486 0.00438515 0)
(-0.00115054 0.00392555 0)
(-0.00115219 0.00346523 0)
(-0.00115356 0.00300431 0)
(-0.00115469 0.00254289 0)
(-0.0011556 0.00208107 0)
(-0.0011563 0.00161893 0)
(-0.00115681 0.00115654 0)
(-0.00115714 0.000693993 0)
(-0.00115731 0.000231342 0)
(0.0165476 -0.0760018 0)
(0.0160854 -0.0713447 0)
(0.0156169 -0.0668199 0)
(0.0151441 -0.0624298 0)
(0.014668 -0.0581752 0)
(0.0141905 -0.0540568 0)
(0.0137121 -0.0500749 0)
(0.0132342 -0.0462295 0)
(0.0127582 -0.0425204 0)
(0.0122847 -0.0389468 0)
(0.0118147 -0.0355079 0)
(0.0113491 -0.0322026 0)
(0.0108887 -0.0290295 0)
(0.0104341 -0.025987 0)
(0.00998602 -0.0230734 0)
(0.009545 -0.0202867 0)
(0.00911159 -0.0176248 0)
(0.00868623 -0.0150855 0)
(0.00826931 -0.0126665 0)
(0.0078612 -0.0103652 0)
(0.00746221 -0.00817906 0)
(0.00707262 -0.00610552 0)
(0.00669268 -0.0041418 0)
(0.00632259 -0.00228514 0)
(0.00596248 -0.000532685 0)
(0.00561249 0.00111843 0)
(0.0052727 0.00267109 0)
(0.00494315 0.00412824 0)
(0.00462388 0.00549279 0)
(0.00431488 0.00676768 0)
(0.00401613 0.00795585 0)
(0.00372758 0.0090602 0)
(0.00344917 0.0100837 0)
(0.00318081 0.0110291 0)
(0.0029224 0.0118994 0)
(0.00267381 0.0126973 0)
(0.00243491 0.0134256 0)
(0.00220556 0.0140872 0)
(0.00198558 0.0146846 0)
(0.00177481 0.0152206 0)
(0.00157306 0.0156977 0)
(0.00138015 0.0161186 0)
(0.00119588 0.0164856 0)
(0.00102003 0.0168012 0)
(0.0008524 0.0170678 0)
(0.000692771 0.0172878 0)
(0.000540924 0.0174633 0)
(0.000396635 0.0175966 0)
(0.000259677 0.0176897 0)
(0.000129823 0.0177448 0)
(6.84482e-06 0.0177638 0)
(-0.000109488 0.0177487 0)
(-0.000219404 0.0177013 0)
(-0.000323134 0.0176235 0)
(-0.000420903 0.0175169 0)
(-0.000512939 0.0173832 0)
(-0.000599465 0.0172241 0)
(-0.000680705 0.017041 0)
(-0.000756876 0.0168355 0)
(-0.000828196 0.0166089 0)
(-0.000894877 0.0163627 0)
(-0.000957129 0.0160981 0)
(-0.00101516 0.0158164 0)
(-0.00106916 0.0155186 0)
(-0.00111934 0.0152061 0)
(-0.00116589 0.0148797 0)
(-0.00120899 0.0145405 0)
(-0.00124883 0.0141896 0)
(-0.00128558 0.0138277 0)
(-0.00131943 0.0134557 0)
(-0.00135053 0.0130745 0)
(-0.00137905 0.0126848 0)
(-0.00140515 0.0122873 0)
(-0.00142898 0.0118827 0)
(-0.00145069 0.0114716 0)
(-0.00147041 0.0110546 0)
(-0.00148829 0.0106322 0)
(-0.00150445 0.010205 0)
(-0.00151903 0.00977346 0)
(-0.00153213 0.00933794 0)
(-0.00154387 0.00889888 0)
(-0.00155436 0.00845665 0)
(-0.0015637 0.0080116 0)
(-0.001572 0.00756405 0)
(-0.00157933 0.00711426 0)
(-0.00158579 0.00666252 0)
(-0.00159146 0.00620905 0)
(-0.00159641 0.00575406 0)
(-0.00160072 0.00529777 0)
(-0.00160444 0.00484033 0)
(-0.00160764 0.0043819 0)
(-0.00161036 0.00392264 0)
(-0.00161267 0.00346266 0)
(-0.00161459 0.00300208 0)
(-0.00161617 0.00254101 0)
(-0.00161743 0.00207953 0)
(-0.00161842 0.00161773 0)
(-0.00161913 0.00115569 0)
(-0.0016196 0.000693479 0)
(-0.00161983 0.00023117 0)
(0.0212681 -0.0759264 0)
(0.0206742 -0.071274 0)
(0.0200723 -0.0667539 0)
(0.0194646 -0.0623682 0)
(0.0188527 -0.0581177 0)
(0.0182389 -0.0540034 0)
(0.0176241 -0.0500254 0)
(0.0170098 -0.0461839 0)
(0.016398 -0.0424784 0)
(0.0157894 -0.0389083 0)
(0.0151853 -0.0354729 0)
(0.014587 -0.0321708 0)
(0.0139952 -0.0290008 0)
(0.0134109 -0.0259613 0)
(0.012835 -0.0230506 0)
(0.0122681 -0.0202666 0)
(0.011711 -0.0176074 0)
(0.0111643 -0.0150706 0)
(0.0106285 -0.0126539 0)
(0.0101039 -0.0103549 0)
(0.00959111 -0.00817099 0)
(0.00909038 -0.00609949 0)
(0.00860205 -0.00413772 0)
(0.00812636 -0.00228289 0)
(0.00766353 -0.000532164 0)
(0.00721369 0.00111732 0)
(0.00677695 0.00266845 0)
(0.00635339 0.00412416 0)
(0.00594303 0.00548736 0)
(0.00554587 0.00676099 0)
(0.00516189 0.00794799 0)
(0.00479102 0.00905125 0)
(0.00443319 0.0100737 0)
(0.00408827 0.0110182 0)
(0.00375613 0.0118876 0)
(0.00343662 0.0126847 0)
(0.00312957 0.0134124 0)
(0.00283478 0.0140733 0)
(0.00255205 0.0146701 0)
(0.00228115 0.0152056 0)
(0.00202185 0.0156822 0)
(0.0017739 0.0161026 0)
(0.00153705 0.0164693 0)
(0.00131103 0.0167846 0)
(0.00109558 0.017051 0)
(0.000890412 0.0172707 0)
(0.000695244 0.017446 0)
(0.00050979 0.0175792 0)
(0.00033376 0.0176722 0)
(0.00016686 0.0177273 0)
(8.79683e-06 0.0177463 0)
(-0.000140725 0.0177312 0)
(-0.000281999 0.0176838 0)
(-0.000415321 0.017606 0)
(-0.000540983 0.0174996 0)
(-0.000659276 0.017366 0)
(-0.000770488 0.017207 0)
(-0.000874905 0.0170242 0)
(-0.000972807 0.0168189 0)
(-0.00106447 0.0165925 0)
(-0.00115018 0.0163466 0)
(-0.00123019 0.0160822 0)
(-0.00130477 0.0158007 0)
(-0.00137418 0.0155033 0)
(-0.00143868 0.015191 0)
(-0.0014985 0.014865 0)
(-0.0015539 0.0145262 0)
(-0.00160511 0.0141756 0)
(-0.00165235 0.013814 0)
(-0.00169585 0.0134424 0)
(-0.00173582 0.0130616 0)
(-0.00177248 0.0126723 0)
(-0.00180603 0.0122752 0)
(-0.00183666 0.011871 0)
(-0.00186456 0.0114603 0)
(-0.00188991 0.0110437 0)
(-0.00191289 0.0106217 0)
(-0.00193366 0.010195 0)
(-0.00195239 0.00976381 0)
(-0.00196923 0.00932871 0)
(-0.00198432 0.00889009 0)
(-0.0019978 0.0084483 0)
(-0.00200981 0.00800369 0)
(-0.00202047 0.00755657 0)
(-0.0020299 0.00710724 0)
(-0.00203821 0.00665594 0)
(-0.00204549 0.00620291 0)
(-0.00205186 0.00574838 0)
(-0.00205739 0.00529253 0)
(-0.00206218 0.00483555 0)
(-0.00206628 0.00437758 0)
(-0.00206979 0.00391876 0)
(-0.00207275 0.00345924 0)
(-0.00207522 0.00299912 0)
(-0.00207725 0.0025385 0)
(-0.00207887 0.00207747 0)
(-0.00208014 0.00161613 0)
(-0.00208106 0.00115455 0)
(-0.00208166 0.000692794 0)
(-0.00208196 0.000230942 0)
(0.0259835 -0.0758327 0)
(0.0252579 -0.0711859 0)
(0.0245227 -0.0666715 0)
(0.0237803 -0.0622911 0)
(0.0230328 -0.058046 0)
(0.0222828 -0.0539367 0)
(0.0215317 -0.0499636 0)
(0.0207813 -0.0461268 0)
(0.0200338 -0.0424259 0)
(0.0192902 -0.0388603 0)
(0.0185522 -0.0354291 0)
(0.0178212 -0.0321311 0)
(0.0170982 -0.028965 0)
(0.0163844 -0.0259293 0)
(0.0156807 -0.0230221 0)
(0.0149882 -0.0202416 0)
(0.0143076 -0.0175857 0)
(0.0136397 -0.015052 0)
(0.012985 -0.0126383 0)
(0.0123442 -0.0103422 0)
(0.0117176 -0.00816092 0)
(0.0111059 -0.00609199 0)
(0.0105093 -0.00413263 0)
(0.00992814 -0.00228009 0)
(0.00936269 -0.000531529 0)
(0.00881311 0.00111591 0)
(0.00827954 0.00266513 0)
(0.00776206 0.00411904 0)
(0.00726072 0.00548056 0)
(0.0067755 0.00675262 0)
(0.00630638 0.00793815 0)
(0.00585329 0.00904005 0)
(0.00541611 0.0100612 0)
(0.00499472 0.0110046 0)
(0.00458894 0.0118729 0)
(0.00419859 0.012669 0)
(0.00382346 0.0133958 0)
(0.00346331 0.0140559 0)
(0.00311789 0.014652 0)
(0.00278692 0.0151868 0)
(0.00247013 0.0156629 0)
(0.00216721 0.0160827 0)
(0.00187784 0.0164489 0)
(0.00160172 0.0167639 0)
(0.00133849 0.0170299 0)
(0.00108783 0.0172494 0)
(0.000849394 0.0174245 0)
(0.000622821 0.0175574 0)
(0.000407761 0.0176504 0)
(0.000203856 0.0177054 0)
(1.07476e-05 0.0177243 0)
(-0.000171926 0.0177093 0)
(-0.000344524 0.017662 0)
(-0.000507406 0.0175843 0)
(-0.00066093 0.0174779 0)
(-0.00080545 0.0173446 0)
(-0.00094132 0.0171858 0)
(-0.00106889 0.0170031 0)
(-0.0011885 0.0167981 0)
(-0.00130049 0.016572 0)
(-0.0014052 0.0163264 0)
(-0.00150295 0.0160624 0)
(-0.00159407 0.0157812 0)
(-0.00167887 0.0154842 0)
(-0.00175766 0.0151723 0)
(-0.00183075 0.0148466 0)
(-0.00189843 0.0145082 0)
(-0.00196099 0.014158 0)
(-0.0020187 0.0137969 0)
(-0.00207185 0.0134258 0)
(-0.00212069 0.0130455 0)
(-0.00216548 0.0126566 0)
(-0.00220646 0.01226 0)
(-0.00224388 0.0118563 0)
(-0.00227796 0.0114461 0)
(-0.00230894 0.01103 0)
(-0.00233701 0.0106086 0)
(-0.00236239 0.0101824 0)
(-0.00238527 0.00975174 0)
(-0.00240584 0.00931719 0)
(-0.00242428 0.0088791 0)
(-0.00244075 0.00843786 0)
(-0.00245543 0.0079938 0)
(-0.00246845 0.00754724 0)
(-0.00247997 0.00709845 0)
(-0.00249011 0.00664771 0)
(-0.00249902 0.00619525 0)
(-0.0025068 0.00574128 0)
(-0.00251356 0.00528599 0)
(-0.0025194 0.00482957 0)
(-0.00252442 0.00437217 0)
(-0.0025287 0.00391392 0)
(-0.00253232 0.00345497 0)
(-0.00253533 0.00299541 0)
(-0.00253781 0.00253536 0)
(-0.0025398 0.0020749 0)
(-0.00254134 0.00161413 0)
(-0.00254247 0.00115312 0)
(-0.00254321 0.000691938 0)
(-0.00254357 0.000230657 0)
(0.0306926 -0.0757203 0)
(0.0298354 -0.0710802 0)
(0.0289671 -0.0665725 0)
(0.0280901 -0.0621986 0)
(0.0272071 -0.0579598 0)
(0.0263212 -0.0538566 0)
(0.0254339 -0.0498895 0)
(0.0245476 -0.0460584 0)
(0.0236646 -0.0423629 0)
(0.0227863 -0.0388026 0)
(0.0219145 -0.0353765 0)
(0.021051 -0.0320834 0)
(0.020197 -0.028922 0)
(0.0193538 -0.0258908 0)
(0.0185226 -0.022988 0)
(0.0177046 -0.0202116 0)
(0.0169006 -0.0175596 0)
(0.0161117 -0.0150297 0)
(0.0153383 -0.0126196 0)
(0.0145813 -0.0103268 0)
(0.0138413 -0.0081488 0)
(0.0131187 -0.00608293 0)
(0.0124139 -0.00412649 0)
(0.0117275 -0.00227669 0)
(0.0110595 -0.000530726 0)
(0.0104104 0.00111427 0)
(0.00978008 0.00266119 0)
(0.00916882 0.00411294 0)
(0.00857661 0.00547244 0)
(0.00800346 0.00674262 0)
(0.00744932 0.00792638 0)
(0.00691411 0.00902665 0)
(0.0063977 0.0100463 0)
(0.00589993 0.0109882 0)
(0.00542061 0.0118553 0)
(0.00495952 0.0126503 0)
(0.0045164 0.0133759 0)
(0.00409098 0.014035 0)
(0.00368295 0.0146303 0)
(0.00329201 0.0151643 0)
(0.0029178 0.0156396 0)
(0.00255998 0.0160589 0)
(0.00221817 0.0164245 0)
(0.001892 0.016739 0)
(0.00158107 0.0170046 0)
(0.00128499 0.0172238 0)
(0.00100333 0.0173986 0)
(0.000735698 0.0175314 0)
(0.000481662 0.0176242 0)
(0.000240802 0.0176791 0)
(1.26955e-05 0.017698 0)
(-0.000203085 0.017683 0)
(-0.000406963 0.0176358 0)
(-0.000599365 0.0175582 0)
(-0.000780713 0.017452 0)
(-0.000951426 0.0173188 0)
(-0.00111192 0.0171603 0)
(-0.00126261 0.0169779 0)
(-0.00140389 0.0167732 0)
(-0.00153618 0.0165475 0)
(-0.00165987 0.0163021 0)
(-0.00177533 0.0160385 0)
(-0.00188297 0.0157578 0)
(-0.00198314 0.0154612 0)
(-0.00207621 0.0151498 0)
(-0.00216255 0.0148246 0)
(-0.00224249 0.0144867 0)
(-0.00231639 0.014137 0)
(-0.00238456 0.0137765 0)
(-0.00244734 0.0134059 0)
(-0.00250503 0.0130261 0)
(-0.00255793 0.0126378 0)
(-0.00260635 0.0122418 0)
(-0.00265055 0.0118387 0)
(-0.00269081 0.0114291 0)
(-0.0027274 0.0110137 0)
(-0.00276056 0.0105929 0)
(-0.00279054 0.0101673 0)
(-0.00281757 0.00973727 0)
(-0.00284187 0.00930336 0)
(-0.00286364 0.00886593 0)
(-0.0028831 0.00842534 0)
(-0.00290044 0.00798194 0)
(-0.00291582 0.00753604 0)
(-0.00292942 0.00708792 0)
(-0.00294141 0.00663785 0)
(-0.00295193 0.00618606 0)
(-0.00296111 0.00573276 0)
(-0.0029691 0.00527815 0)
(-0.002976 0.0048224 0)
(-0.00298193 0.00436568 0)
(-0.00298699 0.00390812 0)
(-0.00299126 0.00344984 0)
(-0.00299482 0.00299097 0)
(-0.00299775 0.0025316 0)
(-0.0030001 0.00207183 0)
(-0.00300192 0.00161174 0)
(-0.00300325 0.00115141 0)
(-0.00300412 0.000690911 0)
(-0.00300455 0.000230315 0)
(0.0353942 -0.0755891 0)
(0.0344056 -0.070957 0)
(0.0334043 -0.0664571 0)
(0.032393 -0.0620909 0)
(0.0313748 -0.0578593 0)
(0.0303531 -0.0537633 0)
(0.0293299 -0.049803 0)
(0.0283078 -0.0459786 0)
(0.0272895 -0.0422895 0)
(0.0262767 -0.0387354 0)
(0.0252714 -0.0353152 0)
(0.0242756 -0.0320278 0)
(0.0232908 -0.0288719 0)
(0.0223184 -0.0258459 0)
(0.0213599 -0.0229481 0)
(0.0204166 -0.0201766 0)
(0.0194895 -0.0175291 0)
(0.0185797 -0.0150036 0)
(0.0176879 -0.0125977 0)
(0.0168149 -0.0103089 0)
(0.0159615 -0.00813468 0)
(0.0151282 -0.00607239 0)
(0.0143155 -0.00411934 0)
(0.0135239 -0.00227275 0)
(0.0127537 -0.000529803 0)
(0.012005 0.00111235 0)
(0.0112782 0.00265659 0)
(0.0105733 0.00410582 0)
(0.00989039 0.00546297 0)
(0.00922944 0.00673094 0)
(0.00859042 0.00791265 0)
(0.00797322 0.00901102 0)
(0.00737771 0.0100289 0)
(0.00680369 0.0109692 0)
(0.00625095 0.0118348 0)
(0.00571923 0.0126283 0)
(0.00520823 0.0133528 0)
(0.00471764 0.0140107 0)
(0.00424711 0.0146049 0)
(0.00379628 0.015138 0)
(0.00336475 0.0156125 0)
(0.00295212 0.0160311 0)
(0.00255796 0.0163961 0)
(0.00218182 0.01671 0)
(0.00182327 0.0169752 0)
(0.00148182 0.0171939 0)
(0.00115702 0.0173685 0)
(0.000848393 0.017501 0)
(0.000555443 0.0175937 0)
(0.000277689 0.0176485 0)
(1.46399e-05 0.0176674 0)
(-0.000234194 0.0176523 0)
(-0.000469303 0.0176052 0)
(-0.000691177 0.0175278 0)
(-0.000900304 0.0174218 0)
(-0.00109717 0.0172888 0)
(-0.00128225 0.0171305 0)
(-0.00145602 0.0169485 0)
(-0.00161894 0.0167441 0)
(-0.0017715 0.0165188 0)
(-0.00191413 0.0162739 0)
(-0.00204728 0.0160107 0)
(-0.0021714 0.0157305 0)
(-0.00228692 0.0154344 0)
(-0.00239425 0.0151235 0)
(-0.00249381 0.0147989 0)
(-0.002586 0.0144616 0)
(-0.00267122 0.0141125 0)
(-0.00274983 0.0137526 0)
(-0.00282223 0.0133827 0)
(-0.00288875 0.0130035 0)
(-0.00294976 0.0126159 0)
(-0.00300559 0.0122206 0)
(-0.00305656 0.0118182 0)
(-0.00310299 0.0114093 0)
(-0.00314518 0.0109946 0)
(-0.00318343 0.0105745 0)
(-0.003218 0.0101496 0)
(-0.00324917 0.0097204 0)
(-0.00327719 0.00928724 0)
(-0.0033023 0.00885057 0)
(-0.00332474 0.00841074 0)
(-0.00334473 0.00796811 0)
(-0.00336247 0.00752298 0)
(-0.00337816 0.00707564 0)
(-0.00339198 0.00662635 0)
(-0.00340411 0.00617534 0)
(-0.0034147 0.00572283 0)
(-0.00342391 0.00526901 0)
(-0.00343187 0.00481405 0)
(-0.00343871 0.00435811 0)
(-0.00344454 0.00390134 0)
(-0.00344947 0.00344386 0)
(-0.00345358 0.00298578 0)
(-0.00345695 0.00252721 0)
(-0.00345966 0.00206824 0)
(-0.00346176 0.00160894 0)
(-0.00346329 0.00114941 0)
(-0.0034643 0.000689714 0)
(-0.0034648 0.000229915 0)
(0.040087 -0.0754393 0)
(0.0389674 -0.0708164 0)
(0.0378333 -0.0663254 0)
(0.0366879 -0.0619678 0)
(0.0355347 -0.0577447 0)
(0.0343775 -0.0536567 0)
(0.0332187 -0.0497043 0)
(0.0320611 -0.0458874 0)
(0.0309078 -0.0422057 0)
(0.0297606 -0.0386586 0)
(0.0286221 -0.0352452 0)
(0.0274943 -0.0319643 0)
(0.0263789 -0.0288147 0)
(0.0252776 -0.0257947 0)
(0.024192 -0.0229026 0)
(0.0231236 -0.0201366 0)
(0.0220736 -0.0174944 0)
(0.0210431 -0.0149739 0)
(0.0200331 -0.0125728 0)
(0.0190444 -0.0102885 0)
(0.0180778 -0.00811857 0)
(0.017134 -0.00606036 0)
(0.0162136 -0.00411118 0)
(0.015317 -0.00226825 0)
(0.0144446 -0.000528761 0)
(0.0135967 0.00111013 0)
(0.0127736 0.00265131 0)
(0.0119752 0.00409768 0)
(0.0112017 0.00545213 0)
(0.0104531 0.00671759 0)
(0.0097294 0.00789696 0)
(0.00903037 0.00899315 0)
(0.0083559 0.010009 0)
(0.00770577 0.0109475 0)
(0.00707974 0.0118113 0)
(0.00647752 0.0126033 0)
(0.00589877 0.0133263 0)
(0.00534314 0.0139829 0)
(0.00481023 0.014576 0)
(0.00429962 0.015108 0)
(0.00381088 0.0155816 0)
(0.00334353 0.0159993 0)
(0.00289711 0.0163636 0)
(0.0024711 0.0166769 0)
(0.00206501 0.0169415 0)
(0.00167829 0.0171598 0)
(0.00131043 0.0173341 0)
(0.000960878 0.0174663 0)
(0.000629087 0.0175588 0)
(0.000314506 0.0176135 0)
(1.65809e-05 0.0176323 0)
(-0.000265245 0.0176173 0)
(-0.000531527 0.0175703 0)
(-0.000782819 0.017493 0)
(-0.00101967 0.0173872 0)
(-0.00124264 0.0172545 0)
(-0.00145226 0.0170966 0)
(-0.00164906 0.0169149 0)
(-0.0018336 0.0167109 0)
(-0.00200637 0.016486 0)
(-0.00216791 0.0162416 0)
(-0.00231872 0.015979 0)
(-0.0024593 0.0156993 0)
(-0.00259013 0.0154038 0)
(-0.00271169 0.0150935 0)
(-0.00282446 0.0147696 0)
(-0.00292887 0.0144329 0)
(-0.00302538 0.0140846 0)
(-0.00311443 0.0137253 0)
(-0.00319642 0.0133561 0)
(-0.00327177 0.0129777 0)
(-0.00334086 0.0125909 0)
(-0.00340409 0.0121964 0)
(-0.00346182 0.0117948 0)
(-0.00351441 0.0113867 0)
(-0.0035622 0.0109728 0)
(-0.00360551 0.0105536 0)
(-0.00364466 0.0101295 0)
(-0.00367996 0.00970113 0)
(-0.0037117 0.00926883 0)
(-0.00374014 0.00883302 0)
(-0.00376556 0.00839407 0)
(-0.0037882 0.00795231 0)
(-0.00380829 0.00750807 0)
(-0.00382606 0.00706161 0)
(-0.00384171 0.00661321 0)
(-0.00385545 0.0061631 0)
(-0.00386745 0.00571148 0)
(-0.00387788 0.00525856 0)
(-0.00388689 0.00480451 0)
(-0.00389464 0.00434947 0)
(-0.00390124 0.00389361 0)
(-0.00390682 0.00343703 0)
(-0.00391148 0.00297986 0)
(-0.0039153 0.0025222 0)
(-0.00391837 0.00206414 0)
(-0.00392074 0.00160575 0)
(-0.00392248 0.00114713 0)
(-0.00392362 0.000688346 0)
(-0.00392418 0.00022946 0)
(0.0447699 -0.0752708 0)
(0.0435196 -0.0706582 0)
(0.0422529 -0.0661773 0)
(0.0409737 -0.0618294 0)
(0.0396858 -0.0576157 0)
(0.0383934 -0.0535369 0)
(0.0370992 -0.0495933 0)
(0.0358064 -0.045785 0)
(0.0345184 -0.0421115 0)
(0.0332372 -0.0385722 0)
(0.0319657 -0.0351664 0)
(0.0307061 -0.0318929 0)
(0.0294604 -0.0287503 0)
(0.0282305 -0.0257371 0)
(0.0270181 -0.0228515 0)
(0.0258248 -0.0200916 0)
(0.0246522 -0.0174553 0)
(0.0235013 -0.0149405 0)
(0.0223733 -0.0125447 0)
(0.0212691 -0.0102655 0)
(0.0201896 -0.00810044 0)
(0.0191356 -0.00604683 0)
(0.0181076 -0.004102 0)
(0.0171063 -0.00226318 0)
(0.016132 -0.000527577 0)
(0.0151851 0.00110766 0)
(0.0142658 0.0026454 0)
(0.0133741 0.00408853 0)
(0.0125103 0.00543996 0)
(0.0116743 0.00670259 0)
(0.010866 0.00787933 0)
(0.0100853 0.00897307 0)
(0.00933202 0.00998668 0)
(0.00860595 0.010923 0)
(0.00790679 0.0117849 0)
(0.00723422 0.0125752 0)
(0.00658786 0.0132965 0)
(0.00596732 0.0139517 0)
(0.00537215 0.0145434 0)
(0.0048019 0.0150742 0)
(0.00425606 0.0155468 0)
(0.00373412 0.0159636 0)
(0.00323555 0.016327 0)
(0.00275978 0.0166396 0)
(0.00230624 0.0169037 0)
(0.00187435 0.0171215 0)
(0.00146351 0.0172953 0)
(0.00107313 0.0174273 0)
(0.000702577 0.0175196 0)
(0.000351247 0.0175741 0)
(1.85178e-05 0.017593 0)
(-0.000296231 0.017578 0)
(-0.000593619 0.0175311 0)
(-0.000874267 0.017454 0)
(-0.00113879 0.0173484 0)
(-0.0013878 0.017216 0)
(-0.00162191 0.0170584 0)
(-0.00184171 0.0168771 0)
(-0.0020478 0.0166736 0)
(-0.00224076 0.0164492 0)
(-0.00242117 0.0162054 0)
(-0.00258959 0.0159433 0)
(-0.00274659 0.0156643 0)
(-0.00289271 0.0153694 0)
(-0.00302847 0.0150598 0)
(-0.00315441 0.0147366 0)
(-0.00327102 0.0144007 0)
(-0.00337881 0.0140531 0)
(-0.00347825 0.0136947 0)
(-0.00356982 0.0133263 0)
(-0.00365397 0.0129488 0)
(-0.00373114 0.0125628 0)
(-0.00380176 0.0121691 0)
(-0.00386623 0.0117684 0)
(-0.00392496 0.0113613 0)
(-0.00397833 0.0109483 0)
(-0.0040267 0.01053 0)
(-0.00407043 0.0101069 0)
(-0.00410985 0.00967947 0)
(-0.0041453 0.00924813 0)
(-0.00417706 0.00881329 0)
(-0.00420545 0.00837532 0)
(-0.00423073 0.00793455 0)
(-0.00425317 0.0074913 0)
(-0.00427301 0.00704584 0)
(-0.0042905 0.00659844 0)
(-0.00430584 0.00614933 0)
(-0.00431924 0.00569873 0)
(-0.00433089 0.00524682 0)
(-0.00434096 0.00479378 0)
(-0.00434961 0.00433976 0)
(-0.00435698 0.00388491 0)
(-0.00436321 0.00342936 0)
(-0.00436841 0.00297321 0)
(-0.00437268 0.00251657 0)
(-0.00437611 0.00205953 0)
(-0.00437876 0.00160217 0)
(-0.0043807 0.00114457 0)
(-0.00438197 0.000686809 0)
(-0.0043826 0.000228947 0)
(0.0494418 -0.0750837 0)
(0.048061 -0.0704826 0)
(0.0466621 -0.0660128 0)
(0.0452495 -0.0616757 0)
(0.0438272 -0.0574725 0)
(0.0423999 -0.0534039 0)
(0.0409706 -0.0494701 0)
(0.0395429 -0.0456712 0)
(0.0381205 -0.0420068 0)
(0.0367056 -0.0384764 0)
(0.0353014 -0.0350791 0)
(0.0339104 -0.0318137 0)
(0.0325347 -0.0286789 0)
(0.0311764 -0.0256731 0)
(0.0298375 -0.0227947 0)
(0.0285197 -0.0200417 0)
(0.0272247 -0.017412 0)
(0.0259537 -0.0149033 0)
(0.024708 -0.0125135 0)
(0.0234886 -0.01024 0)
(0.0222965 -0.00808031 0)
(0.0211325 -0.0060318 0)
(0.0199972 -0.0040918 0)
(0.0188914 -0.00225755 0)
(0.0178155 -0.00052626 0)
(0.0167697 0.00110491 0)
(0.0157544 0.00263883 0)
(0.0147698 0.00407838 0)
(0.0138158 0.00542645 0)
(0.0128925 0.00668594 0)
(0.0119999 0.00785976 0)
(0.0111377 0.00895078 0)
(0.0103058 0.00996187 0)
(0.00950401 0.0108959 0)
(0.00873189 0.0117556 0)
(0.00798913 0.0125439 0)
(0.00727532 0.0132635 0)
(0.00659002 0.013917 0)
(0.00593275 0.0145073 0)
(0.00530299 0.0150368 0)
(0.00470019 0.0155082 0)
(0.00412379 0.0159239 0)
(0.00357318 0.0162865 0)
(0.00304777 0.0165983 0)
(0.0025469 0.0168617 0)
(0.00206994 0.017079 0)
(0.00161624 0.0172524 0)
(0.00118511 0.017384 0)
(0.000775892 0.017476 0)
(0.0003879 0.0175305 0)
(2.04499e-05 0.0175493 0)
(-0.000327143 0.0175343 0)
(-0.000655565 0.0174875 0)
(-0.000965499 0.0174106 0)
(-0.00125763 0.0173053 0)
(-0.00153262 0.0171732 0)
(-0.00179116 0.017016 0)
(-0.00203389 0.0168352 0)
(-0.00226149 0.0166321 0)
(-0.00247459 0.0164083 0)
(-0.00267382 0.0161651 0)
(-0.00285983 0.0159037 0)
(-0.00303321 0.0156253 0)
(-0.00319457 0.0153312 0)
(-0.0033445 0.0150224 0)
(-0.00348358 0.0147 0)
(-0.00361236 0.0143649 0)
(-0.0037314 0.0140182 0)
(-0.00384122 0.0136607 0)
(-0.00394234 0.0132932 0)
(-0.00403527 0.0129166 0)
(-0.0041205 0.0125316 0)
(-0.00419848 0.0121389 0)
(-0.00426968 0.0117392 0)
(-0.00433454 0.011333 0)
(-0.00439348 0.0109211 0)
(-0.0044469 0.0105038 0)
(-0.00449519 0.0100818 0)
(-0.00453873 0.00965541 0)
(-0.00457787 0.00922515 0)
(-0.00461295 0.00879139 0)
(-0.0046443 0.00835451 0)
(-0.00467222 0.00791484 0)
(-0.004697 0.00747269 0)
(-0.00471892 0.00702834 0)
(-0.00473822 0.00658205 0)
(-0.00475516 0.00613405 0)
(-0.00476996 0.00568457 0)
(-0.00478283 0.00523378 0)
(-0.00479395 0.00478186 0)
(-0.0048035 0.00432898 0)
(-0.00481164 0.00387526 0)
(-0.00481852 0.00342084 0)
(-0.00482427 0.00296582 0)
(-0.00482898 0.00251031 0)
(-0.00483277 0.00205441 0)
(-0.0048357 0.00159819 0)
(-0.00483784 0.00114173 0)
(-0.00483925 0.000685103 0)
(-0.00483994 0.000228378 0)
(0.0541015 -0.0748782 0)
(0.0525905 -0.0702897 0)
(0.0510598 -0.0658321 0)
(0.049514 -0.0615069 0)
(0.0479577 -0.0573152 0)
(0.0463959 -0.0532577 0)
(0.0448319 -0.0493346 0)
(0.0432697 -0.0455461 0)
(0.0417132 -0.0418918 0)
(0.040165 -0.038371 0)
(0.0386284 -0.034983 0)
(0.0371063 -0.0317266 0)
(0.035601 -0.0286004 0)
(0.0341146 -0.0256029 0)
(0.0326495 -0.0227323 0)
(0.0312076 -0.0199868 0)
(0.0297905 -0.0173643 0)
(0.0283998 -0.0148626 0)
(0.0270367 -0.0124793 0)
(0.0257023 -0.010212 0)
(0.0243978 -0.00805819 0)
(0.0231241 -0.00601529 0)
(0.0218819 -0.0040806 0)