/*--------------------------------*- C++ -*----------------------------------*\
| =========                 |                                                 |
| \\      /  F ield         | OpenFOAM: The Open Source CFD Toolbox           |
|  \\    /   O peration     | Version:  2406                                  |
|   \\  /    A nd           | Website:  www.openfoam.com                      |
|    \\/     M anipulation  |                                                 |
\*---------------------------------------------------------------------------*/
FoamFile
{
    version     2.0;
    format      ascii;
    arch        "LSB;label=32;scalar=64";
    class       volScalarField;
    location    "160";
    object      gradTx;
}
// * * * * * * * * * * * * * * * * * * * * * * * * * * * * * * * * * * * * * //

dimensions      [0 -1 0 1 0 0 0];

internalField   nonuniform List<scalar> 
20000
(
7.36692
7.16141
6.95384
6.74271
6.53046
6.31837
6.10512
5.89214
5.68041
5.46961
5.26029
5.05302
4.84805
4.64565
4.44612
4.24974
4.05677
3.8674
3.68178
3.50008
3.32243
3.14897
2.97981
2.81503
2.6547
2.49887
2.34758
2.20086
2.05871
1.92113
1.78812
1.65965
1.53569
1.41621
1.30115
1.19047
1.08411
0.981989
0.884048
0.790206
0.700383
0.614492
0.532446
0.454153
0.379518
0.308446
0.240839
0.176596
0.115618
0.0578026
0.0030484
-0.0487469
-0.0976855
-0.143869
-0.187399
-0.228377
-0.266902
-0.303072
-0.336986
-0.36874
-0.398429
-0.426146
-0.451981
-0.476026
-0.498368
-0.519092
-0.538282
-0.556019
-0.572384
-0.587453
-0.6013
-0.614
-0.62562
-0.63623
-0.645895
-0.654677
-0.662637
-0.669833
-0.676321
-0.682154
-0.687381
-0.692053
-0.696213
-0.699905
-0.703171
-0.706048
-0.708573
-0.710778
-0.712695
-0.714352
-0.715775
-0.716989
-0.718014
-0.71887
-0.719572
-0.720136
-0.720573
-0.720893
-0.721102
-0.721205
22.1001
21.4821
20.8576
20.2267
19.5903
18.953
18.3139
17.6753
17.0398
16.4074
15.7796
15.1578
14.5429
13.9358
13.3372
12.7482
12.1693
11.6012
11.0444
10.4994
9.96647
9.44614
8.93869
8.44439
7.96344
7.49599
7.04217
6.60203
6.17561
5.76291
5.3639
4.97852
4.60668
4.24826
3.90313
3.57111
3.25205
2.94572
2.65192
2.37042
2.10097
1.84332
1.5972
1.36234
1.13846
0.925257
0.722451
0.52974
0.34682
0.173389
0.00913995
-0.146233
-0.293037
-0.431576
-0.562156
-0.685078
-0.800642
-0.909145
-1.01088
-1.10613
-1.19519
-1.27833
-1.35584
-1.42796
-1.49498
-1.55715
-1.61471
-1.66792
-1.71701
-1.76222
-1.80375
-1.84185
-1.87671
-1.90854
-1.93753
-1.96387
-1.98775
-2.00934
-2.0288
-2.04629
-2.06198
-2.07599
-2.08847
-2.09954
-2.10934
-2.11797
-2.12554
-2.13216
-2.13791
-2.14288
-2.14715
-2.15079
-2.15387
-2.15643
-2.15854
-2.16023
-2.16154
-2.1625
-2.16313
-2.16344
36.8288
35.7993
34.7567
33.7052
32.6453
31.5827
30.518
29.4542
28.3949
27.3411
26.295
25.2589
24.2342
23.2224
22.2251
21.2435
20.2789
19.3322
18.4044
17.4961
16.608
15.741
14.8954
14.0717
13.2702
12.4913
11.735
11.0016
10.291
9.60328
8.93837
8.29618
7.67654
7.07927
6.50414
5.95088
5.41919
4.90873
4.41914
3.95005
3.50104
3.0717
2.66157
2.2702
1.89712
1.54184
1.20389
0.882758
0.577942
0.288937
0.0152338
-0.243679
-0.488311
-0.719172
-0.93677
-1.14161
-1.33418
-1.51499
-1.68452
-1.84325
-1.99166
-2.1302
-2.25935
-2.37955
-2.49123
-2.59482
-2.69075
-2.77941
-2.86122
-2.93654
-3.00576
-3.06924
-3.12733
-3.18037
-3.22868
-3.27258
-3.31237
-3.34834
-3.38077
-3.40993
-3.43606
-3.45941
-3.48021
-3.49866
-3.51499
-3.52937
-3.54199
-3.55301
-3.56259
-3.57088
-3.57799
-3.58406
-3.58918
-3.59346
-3.59697
-3.59979
-3.60198
-3.60357
-3.60462
-3.60514
51.5473
50.1075
48.6482
47.1755
45.6923
44.2047
42.7146
41.2259
39.7431
38.2681
36.804
35.3537
33.9195
32.5034
31.1075
29.7336
28.3835
27.0585
25.7597
24.4884
23.2455
22.0319
20.8484
19.6955
18.5737
17.4835
16.425
15.3984
14.4038
13.4413
12.5106
11.6118
10.7445
9.90854
9.10356
8.32918
7.58499
6.87052
6.18528
5.52871
4.90025
4.29931
3.72527
3.17749
2.65531
2.15805
1.68503
1.23556
0.808919
0.404412
0.0213223
-0.341066
-0.683467
-1.00659
-1.31115
-1.59785
-1.86739
-2.12046
-2.35774
-2.57991
-2.78763
-2.98155
-3.16231
-3.33054
-3.48686
-3.63185
-3.76611
-3.89022
-4.00471
-4.11014
-4.20703
-4.29588
-4.37718
-4.45142
-4.51904
-4.58048
-4.63617
-4.68652
-4.73191
-4.77272
-4.8093
-4.84198
-4.87109
-4.89692
-4.91977
-4.9399
-4.95756
-4.97299
-4.9864
-4.99799
-5.00795
-5.01645
-5.02362
-5.02961
-5.03452
-5.03847
-5.04152
-5.04376
-5.04522
-5.04595
66.2523
64.402
62.5273
60.6343
58.7281
56.8158
54.9007
52.9874
51.0814
49.1856
47.3038
45.4398
43.5964
41.7763
39.9821
38.2164
36.4811
34.778
33.1087
31.4747
29.8772
28.3174
26.7962
25.3144
23.8727
22.4714
21.1109
19.7914
18.5131
17.2759
16.0798
14.9245
13.8098
12.7354
11.7007
10.7054
9.74892
8.83062
7.94988
7.106
6.29825
5.52587
4.78806
4.084
3.41284
2.77372
2.16575
1.58805
1.03969
0.519785
0.027403
-0.438371
-0.878456
-1.29377
-1.68522
-2.05371
-2.40015
-2.72541
-3.03039
-3.31594
-3.58292
-3.83216
-4.06449
-4.28072
-4.48163
-4.66799
-4.84056
-5.00006
-5.14722
-5.28273
-5.40726
-5.52146
-5.62596
-5.72137
-5.80828
-5.88725
-5.95883
-6.02355
-6.08189
-6.13434
-6.18135
-6.22335
-6.26076
-6.29397
-6.32334
-6.34921
-6.37191
-6.39174
-6.40898
-6.42388
-6.43668
-6.44759
-6.45681
-6.46451
-6.47083
-6.4759
-6.47983
-6.4827
-6.48458
-6.48551
80.9413
78.6807
76.3908
74.0781
71.7494
69.413
67.0732
64.7357
62.4071
60.0909
57.792
55.5147
53.2626
51.039
48.847
46.6897
44.5696
42.4889
40.4496
38.4533
36.5016
34.596
32.7375
30.9271
29.1657
27.4537
25.7916
24.1796
22.6178
21.1064
19.645
18.2336
16.8717
15.559
14.295
13.079
11.9104
10.7885
9.71252
8.68154
7.69469
6.75106
5.84967
4.9895
4.16954
3.38871
2.64594
1.94015
1.27022
0.635033
0.0334798
-0.535566
-1.07323
-1.58062
-2.05886
-2.50906
-2.93231
-3.32969
-3.70229
-4.05115
-4.37732
-4.68183
-4.96567
-5.22984
-5.47529
-5.70297
-5.9138
-6.10867
-6.28846
-6.45402
-6.60615
-6.74567
-6.87334
-6.98991
-7.09609
-7.19257
-7.28002
-7.35908
-7.43036
-7.49444
-7.55187
-7.60319
-7.6489
-7.68947
-7.72534
-7.75695
-7.78469
-7.80891
-7.82997
-7.84818
-7.86382
-7.87715
-7.88841
-7.89782
-7.90554
-7.91173
-7.91653
-7.92004
-7.92234
-7.92347
95.6106
92.9402
90.2354
87.5036
84.7529
81.993
79.2292
76.4681
73.7174
70.9814
68.2659
65.5759
62.9157
60.289
57.6998
55.1515
52.6472
50.1894
47.7804
45.4223
43.117
40.8659
38.6707
36.5322
34.4515
32.4293
30.4659
28.5618
26.717
24.9316
23.2054
21.5381
19.9295
18.3789
16.8857
15.4494
14.069
12.7438
11.4728
10.2549
9.08924
7.97459
6.90983
5.89378
4.9252
4.00286
3.12548
2.29177
1.50042
0.750123
0.0395478
-0.632629
-1.26773
-1.86708
-2.432
-2.96379
-3.46374
-3.93315
-4.37327
-4.78536
-5.17064
-5.53034
-5.86562
-6.17766
-6.4676
-6.73655
-6.98559
-7.21578
-7.42815
-7.62371
-7.80342
-7.96822
-8.11903
-8.25672
-8.38214
-8.49611
-8.59942
-8.69281
-8.777
-8.85269
-8.92053
-8.98115
-9.03514
-9.08306
-9.12545
-9.16278
-9.19554
-9.22416
-9.24904
-9.27054
-9.28901
-9.30477
-9.31807
-9.32917
-9.33829
-9.34561
-9.35128
-9.35543
-9.35814
-9.35948
110.256
107.177
104.058
100.907
97.7356
94.5528
91.3656
88.1817
85.0096
81.8545
78.723
75.621
72.5532
69.5241
66.5383
63.5997
60.7118
57.8775
55.0995
52.3802
49.7217
47.1259
44.5943
42.1283
39.7289
37.3969
35.1327
32.9369
30.8095
28.7506
26.76
24.8374
22.9823
21.1942
19.4723
17.816
16.2241
14.6959
13.2302
11.8258
10.4815
9.19615
7.96829
6.79659
5.67965
4.61603
3.60425
2.64283
1.73026
0.865027
0.0456047
-0.729537
-1.46193
-2.15309
-2.80454
-3.41778
-3.99432
-4.53563
-5.04317
-5.51839
-5.96269
-6.37748
-6.76413
-7.12397
-7.45832
-7.76846
-8.05565
-8.3211
-8.56601
-8.79152
-8.99876
-9.1888
-9.36271
-9.5215
-9.66613
-9.79756
-9.91669
-10.0244
-10.1215
-10.2088
-10.287
-10.3569
-10.4192
-10.4744
-10.5233
-10.5664
-10.6041
-10.6371
-10.6658
-10.6906
-10.7119
-10.7301
-10.7454
-10.7582
-10.7687
-10.7772
-10.7837
-10.7885
-10.7916
-10.7932
124.875
121.387
117.854
114.286
110.694
107.089
103.479
99.8734
96.2807
92.7073
89.1606
85.6473
82.1728
78.7421
75.3604
72.0322
68.7613
65.5513
62.405
59.3251
56.3141
53.3741
50.5069
47.714
44.9964
42.3552
39.7909
37.3039
34.8945
32.5626
30.308
28.1305
26.0294
24.0042
22.0541
20.1781
18.3753
16.6444
14.9843
13.3937
11.8713
10.4154
9.02478
7.69773
6.4327
5.22805
4.08212
2.99323
1.95967
0.979718
0.051651
-0.826264
-1.65576
-2.43856
-3.17638
-3.87094
-4.52392
-5.137
-5.71183
-6.25005
-6.75327
-7.22305
-7.66096
-8.06852
-8.4472
-8.79846
-9.12372
-9.42437
-9.70175
-9.95716
-10.1919
-10.4071
-10.6041
-10.7839
-10.9477
-11.0966
-11.2315
-11.3535
-11.4635
-11.5623
-11.6509
-11.7301
-11.8006
-11.8632
-11.9185
-11.9673
-12.0101
-12.0475
-12.08
-12.1081
-12.1322
-12.1528
-12.1701
-12.1846
-12.1965
-12.2061
-12.2135
-12.2189
-12.2225
-12.2242
139.463
135.568
131.622
127.637
123.625
119.599
115.568
111.541
107.528
103.537
99.5763
95.6526
91.7721
87.9407
84.1639
80.4469
76.794
73.2089
69.6951
66.2554
62.8927
59.6093
56.4071
53.2879
50.2529
47.3031
44.4392
41.6617
38.9708
36.3665
33.8486
31.4167
29.0702
26.8084
24.6304
22.5353
20.5218
18.5888
16.7348
14.9584
13.258
11.6322
10.079
8.59697
7.18416
5.83879
4.55899
3.3429
2.1886
1.09417
0.0576846
-0.922787
-1.84918
-2.72343
-3.54744
-4.32314
-5.0524
-5.7371
-6.37908
-6.98018
-7.54218
-8.06684
-8.55591
-9.01107
-9.43399
-9.82629
-10.1895
-10.5253
-10.8351
-11.1203
-11.3825
-11.6229
-11.8428
-12.0437
-12.2266
-12.3929
-12.5436
-12.6798
-12.8026
-12.913
-13.012
-13.1004
-13.1791
-13.249
-13.3109
-13.3653
-13.4131
-13.4549
-13.4911
-13.5225
-13.5495
-13.5724
-13.5918
-13.608
-13.6213
-13.632
-13.6403
-13.6463
-13.6503
-13.6522
154.016
149.715
145.357
140.957
136.526
132.08
127.628
123.18
118.749
114.342
109.967
105.634
101.349
97.1176
92.9467
88.8417
84.8076
80.8485
76.9679
73.1694
69.4557
65.8297
62.2934
58.8486
55.4969
52.2393
49.0766
46.0093
43.0376
40.1615
37.3808
34.6951
32.1037
29.6059
27.2007
24.8869
22.6634
20.5286
18.4811
16.5193
14.6416
12.846
11.1308
9.49409
7.93385
6.44808
5.03474
3.69174
2.41698
1.20835
0.0637034
-1.01908
-2.04215
-3.00763
-3.91763
-4.77427
-5.57963
-6.33578
-7.04476
-7.70858
-8.32923
-8.90864
-9.44874
-9.9514
-10.4185
-10.8517
-11.2529
-11.6237
-11.9658
-12.2808
-12.5703
-12.8358
-13.0787
-13.3005
-13.5025
-13.6861
-13.8525
-14.003
-14.1386
-14.2605
-14.3698
-14.4675
-14.5544
-14.6316
-14.6999
-14.76
-14.8128
-14.8589
-14.899
-14.9336
-14.9634
-14.9887
-15.0102
-15.0281
-15.0428
-15.0545
-15.0637
-15.0704
-15.0747
-15.0769
168.531
163.825
159.056
154.241
149.393
144.528
139.656
134.789
129.941
125.118
120.331
115.59
110.9
106.27
101.706
97.2147
92.8004
88.4681
84.2218
80.0653
76.0017
72.0339
68.1643
64.3949
60.7273
57.1627
53.7019
50.3454
47.0937
43.9465
40.9038
37.9649
35.1294
32.3962
29.7642
27.2324
24.7993
22.4633
20.2229
18.0762
16.0215
14.0567
12.1799
10.3889
8.68158
7.05578
5.50924
4.03967
2.64477
1.32223
0.0697062
-1.11513
-2.23462
-3.29108
-4.28685
-5.22422
-6.10549
-6.9329
-7.7087
-8.43508
-9.11422
-9.74825
-10.3392
-10.8893
-11.4003
-11.8744
-12.3134
-12.7191
-13.0935
-13.4382
-13.755
-14.0455
-14.3113
-14.554
-14.7751
-14.976
-15.1581
-15.3227
-15.4711
-15.6045
-15.7241
-15.8309
-15.9261
-16.0106
-16.0853
-16.1511
-16.2089
-16.2593
-16.3031
-16.341
-16.3736
-16.4014
-16.4248
-16.4444
-16.4605
-16.4734
-16.4834
-16.4907
-16.4955
-16.4978
183.005
177.894
172.716
167.488
162.223
156.94
151.65
146.365
141.1
135.863
130.666
125.517
120.425
115.397
110.441
105.564
100.77
96.0659
91.455
86.9414
82.5288
78.2203
74.0183
69.9252
65.9427
62.0719
58.3139
54.6692
51.1381
47.7207
44.4167
41.2254
38.1463
35.1784
32.3205
29.5712
26.9291
24.3925
21.9596
19.6286
17.3974
15.2639
13.2259
11.2811
9.42717
7.66174
5.98238
4.3866
2.87191
1.43578
0.0756918
-1.2109
-2.42653
-3.57373
-4.65501
-5.67289
-6.62984
-7.52831
-8.37074
-9.1595
-9.89697
-10.5854
-11.2272
-11.8245
-12.3794
-12.8942
-13.3709
-13.8115
-14.218
-14.5923
-14.9363
-15.2517
-15.5404
-15.8039
-16.044
-16.2621
-16.4599
-16.6386
-16.7998
-16.9447
-17.0745
-17.1905
-17.2939
-17.3856
-17.4667
-17.5382
-17.6009
-17.6557
-17.7033
-17.7444
-17.7798
-17.81
-17.8354
-17.8567
-17.8741
-17.8881
-17.899
-17.9069
-17.9121
-17.9147
197.434
191.92
186.334
180.693
175.013
169.314
163.606
157.905
152.225
146.575
140.968
135.413
129.919
124.495
119.149
113.887
108.715
103.64
98.6655
93.7961
89.0356
84.3874
79.8542
75.4384
71.1418
66.9658
62.9115
58.9795
55.17
51.4831
47.9186
44.4758
41.1539
37.9519
34.8687
31.9026
29.0522
26.3157
23.691
21.1762
18.7691
16.4673
14.2686
12.1705
10.1704
8.26581
6.45404
4.73245
3.09833
1.54898
0.0816586
-1.30637
-2.61784
-3.85549
-5.02203
-6.12016
-7.15255
-8.12187
-9.03071
-9.88166
-10.6773
-11.42
-12.1124
-12.7567
-13.3555
-13.9108
-14.4251
-14.9004
-15.339
-15.7428
-16.1139
-16.4542
-16.7656
-17.0499
-17.3089
-17.5443
-17.7576
-17.9505
-18.1243
-18.2806
-18.4207
-18.5459
-18.6574
-18.7563
-18.8438
-18.9209
-18.9886
-19.0477
-19.0991
-19.1435
-19.1816
-19.2141
-19.2416
-19.2645
-19.2834
-19.2985
-19.3102
-19.3187
-19.3244
-19.3271
211.814
205.898
199.905
193.853
187.76
181.645
175.522
169.406
163.312
157.251
151.235
145.276
139.382
133.563
127.827
122.181
116.633
111.189
105.852
100.628
95.5205
90.5337
85.6703
80.9328
76.3233
71.8432
67.4936
63.2752
59.1883
55.2329
51.4087
47.7151
44.1513
40.7161
37.4083
34.2262
31.1682
28.2323
25.4165
22.7185
20.1361
17.6667
15.3079
13.0569
10.9112
8.86785
6.92412
5.07713
3.324
1.6618
0.0876049
-1.40152
-2.80851
-4.1363
-5.3878
-6.56591
-7.6735
-8.71341
-9.68845
-10.6014
-11.4549
-12.2518
-12.9946
-13.6859
-14.3282
-14.924
-15.4757
-15.9857
-16.4562
-16.8894
-17.2875
-17.6526
-17.9867
-18.2918
-18.5696
-18.8221
-19.051
-19.2579
-19.4444
-19.6121
-19.7624
-19.8967
-20.0163
-20.1224
-20.2163
-20.299
-20.3716
-20.435
-20.4901
-20.5378
-20.5787
-20.6136
-20.6431
-20.6676
-20.6879
-20.7041
-20.7166
-20.7258
-20.7318
-20.7348
226.141
219.826
213.427
206.966
200.461
193.932
187.395
180.865
174.359
167.887
161.465
155.102
148.81
142.597
136.473
130.446
124.523
118.71
113.012
107.434
101.982
96.6576
91.4653
86.4074
81.486
76.7029
72.0591
67.5553
63.1919
58.969
54.8861
50.9427
47.1378
43.4703
39.9387
36.5414
33.2765
30.142
27.1357
24.2553
21.4982
18.8617
16.3433
13.9401
11.6492
9.46769
7.39248
5.42056
3.54884
1.77421
0.0935292
-1.49632
-2.99849
-4.41609
-5.75225
-7.01005
-8.19256
-9.30281
-10.3438
-11.3185
-12.2298
-13.0805
-13.8736
-14.6116
-15.2974
-15.9335
-16.5225
-17.067
-17.5693
-18.0318
-18.4569
-18.8467
-19.2034
-19.5291
-19.8257
-20.0953
-20.3396
-20.5605
-20.7597
-20.9387
-21.0991
-21.2425
-21.3702
-21.4836
-21.5838
-21.6721
-21.7496
-21.8173
-21.8761
-21.927
-21.9707
-22.0079
-22.0394
-22.0657
-22.0872
-22.1045
-22.118
-22.1278
-22.1342
-22.1374
240.413
233.699
226.897
220.028
213.112
206.171
199.222
192.28
185.363
178.483
171.655
164.891
158.201
151.597
145.086
138.679
132.381
126.201
120.144
114.215
108.418
102.758
97.2377
91.8606
86.6287
81.5436
76.6067
71.8187
67.18
62.6905
58.35
54.1577
50.1127
46.2137
42.4592
38.8475
35.3766
32.0443
28.8483
25.786
22.8549
20.0521
17.3748
14.8199
12.3844
10.0652
7.85902
5.76265
3.77281
1.88617
0.09943
-1.59076
-3.18773
-4.6948
-6.11528
-7.45246
-8.7096
-9.88992
-10.9966
-12.0328
-13.0016
-13.9061
-14.7491
-15.5338
-16.2628
-16.9391
-17.5653
-18.1441
-18.6781
-19.1698
-19.6217
-20.0361
-20.4153
-20.7616
-21.0769
-21.3635
-21.6233
-21.8581
-22.0698
-22.2601
-22.4307
-22.5831
-22.7189
-22.8394
-22.946
-23.0398
-23.1222
-23.1942
-23.2567
-23.3108
-23.3573
-23.3969
-23.4303
-23.4582
-23.4812
-23.4996
-23.5138
-23.5242
-23.5311
-23.5344
254.626
247.515
240.31
233.035
225.711
218.36
210.999
203.647
196.321
189.034
181.802
174.639
167.554
160.559
153.663
146.877
140.208
133.662
127.247
120.967
114.827
108.832
102.986
97.2911
91.7499
86.3643
81.1355
76.0644
71.1515
66.3966
61.7994
57.3593
53.0752
48.9457
44.9693
41.1441
37.468
33.9387
30.5537
27.3104
24.206
21.2375
18.4019
15.696
13.1165
10.6602
8.32362
6.10332
3.99584
1.99768
0.105306
-1.6848
-3.37618
-4.97234
-6.4768
-7.89303
-9.22448
-10.4746
-11.6467
-12.7442
-13.7702
-14.7281
-15.6211
-16.4521
-17.2242
-17.9405
-18.6037
-19.2167
-19.7823
-20.3031
-20.7817
-21.2206
-21.6222
-21.9889
-22.3229
-22.6265
-22.9016
-23.1503
-23.3745
-23.5761
-23.7568
-23.9182
-24.062
-24.1896
-24.3025
-24.4019
-24.4891
-24.5654
-24.6316
-24.6889
-24.7381
-24.78
-24.8154
-24.845
-24.8693
-24.8888
-24.9039
-24.9149
-24.9222
-24.9257
268.776
261.269
253.664
245.985
238.253
230.494
222.724
214.963
207.23
199.539
191.905
184.343
176.865
169.481
162.202
155.039
147.999
141.09
134.318
127.689
121.208
114.88
108.709
102.698
96.8485
91.1636
85.6442
80.2914
75.1054
70.0863
65.2337
60.5468
56.0246
51.6657
47.4683
43.4305
39.5501
35.8247
32.2516
28.8281
25.5512
22.4177
19.4245
16.5682
13.8454
11.2526
8.78617
6.44248
4.21789
2.10869
0.111156
-1.77843
-3.5638
-5.24866
-6.83672
-8.33165
-9.7371
-11.0567
-12.2939
-13.4524
-14.5354
-15.5466
-16.4891
-17.3663
-18.1814
-18.9374
-19.6375
-20.2846
-20.8816
-21.4314
-21.9366
-22.3998
-22.8238
-23.2109
-23.5634
-23.8838
-24.1742
-24.4368
-24.6734
-24.8862
-25.0769
-25.2473
-25.3991
-25.5338
-25.653
-25.7579
-25.85
-25.9305
-26.0004
-26.0608
-26.1128
-26.1571
-26.1945
-26.2257
-26.2513
-26.2719
-26.2878
-26.2995
-26.3071
-26.3109
282.859
274.959
266.956
258.874
250.737
242.571
234.395
226.227
218.089
209.994
201.961
194.003
186.132
178.362
170.702
163.163
155.754
148.483
141.356
134.38
127.559
120.9
114.405
108.079
101.923
95.9404
90.1319
84.4985
79.0408
73.7587
68.6518
63.7194
58.9602
54.3729
49.9555
45.7062
41.6224
37.7018
33.9415
30.3386
26.89
23.5924
20.4423
17.4364
14.5709
11.8422
9.24654
6.78006
4.4389
2.21918
0.116978
-1.87162
-3.75053
-5.52368
-7.19495
-8.76822
-10.2473
-11.636
-12.9381
-14.1572
-15.2971
-16.3612
-17.3531
-18.2763
-19.1341
-19.9297
-20.6665
-21.3475
-21.9758
-22.5543
-23.086
-23.5736
-24.0197
-24.4271
-24.7981
-25.1353
-25.4409
-25.7172
-25.9663
-26.1902
-26.3909
-26.5703
-26.73
-26.8718
-26.9971
-27.1076
-27.2045
-27.2892
-27.3628
-27.4264
-27.481
-27.5276
-27.567
-27.5998
-27.6268
-27.6485
-27.6653
-27.6775
-27.6855
-27.6895
296.873
288.581
280.182
271.699
263.16
254.589
246.007
237.435
228.893
220.398
211.967
203.614
195.354
187.198
179.159
171.246
163.47
155.839
148.359
141.037
133.879
126.89
120.073
113.433
106.973
100.694
94.5972
88.6848
82.9567
77.4129
72.053
66.8762
61.8813
57.0666
52.4305
47.9706
43.6845
39.5697
35.6231
31.8417
28.2222
24.7612
21.4551
18.3002
15.2928
12.4289
9.70464
7.11595
4.65881
2.32912
0.122771
-1.96435
-3.93635
-5.79734
-7.55141
-9.20262
-10.755
-12.2125
-13.5791
-14.8586
-16.0549
-17.1718
-18.2129
-19.1818
-20.082
-20.9171
-21.6904
-22.4051
-23.0645
-23.6717
-24.2297
-24.7415
-25.2097
-25.6372
-26.0267
-26.3806
-26.7013
-26.9913
-27.2527
-27.4877
-27.6984
-27.8866
-28.0543
-28.2031
-28.3346
-28.4506
-28.5523
-28.6412
-28.7184
-28.7852
-28.8425
-28.8914
-28.9327
-28.9672
-28.9955
-29.0183
-29.0359
-29.0487
-29.0572
-29.0613
310.813
302.132
293.338
284.458
275.517
266.544
257.559
248.584
239.642
230.747
221.92
213.175
204.527
195.988
187.571
179.288
171.147
163.157
155.326
147.66
140.166
132.848
125.712
118.76
111.996
105.422
99.0393
92.8492
86.8521
81.048
75.4364
70.0165
64.787
59.7463
54.8924
50.2231
45.7358
41.4277
37.2958
33.3369
29.5474
25.9239
22.4626
19.1596
16.0109
13.0125
10.1603
7.4501
4.87757
2.43848
0.128533
-2.05659
-4.12119
-6.06957
-7.90601
-9.63475
-11.26
-12.786
-14.2167
-15.5563
-16.8088
-17.9781
-19.0681
-20.0825
-21.025
-21.8993
-22.7089
-23.4572
-24.1476
-24.7833
-25.3675
-25.9032
-26.3935
-26.8411
-27.2488
-27.6193
-27.9551
-28.2587
-28.5324
-28.7785
-28.999
-29.1961
-29.3716
-29.5274
-29.6652
-29.7865
-29.893
-29.9861
-30.0669
-30.1368
-30.1969
-30.2481
-30.2913
-30.3274
-30.3571
-30.3809
-30.3993
-30.4128
-30.4216
-30.426
324.677
315.609
306.422
297.146
287.806
278.433
269.047
259.672
250.331
241.04
231.819
222.684
213.65
204.73
195.938
187.285
178.78
170.434
162.254
154.246
146.418
138.774
131.319
124.057
116.991
110.124
103.457
96.9907
90.7261
84.6631
78.8012
73.1396
67.6768
62.4113
57.3409
52.4633
47.7759
43.2756
38.9594
34.8239
30.8654
27.0802
23.4645
20.0142
16.7251
13.593
10.6135
7.7824
5.09513
2.54725
0.134264
-2.14832
-4.30502
-6.3403
-8.25865
-10.0645
-11.7623
-13.3563
-14.8509
-16.2502
-17.5586
-18.78
-19.9186
-20.9783
-21.9628
-22.8761
-23.7218
-24.5035
-25.2247
-25.8887
-26.499
-27.0586
-27.5708
-28.0383
-28.4642
-28.8513
-29.2021
-29.5192
-29.8051
-30.0621
-30.2925
-30.4984
-30.6817
-30.8444
-30.9884
-31.1152
-31.2264
-31.3236
-31.4081
-31.4811
-31.5438
-31.5973
-31.6425
-31.6802
-31.7111
-31.736
-31.7553
-31.7693
-31.7786
-31.7831
338.46
329.008
319.431
309.76
300.025
290.253
280.469
270.696
260.958
251.273
241.66
232.138
222.72
213.422
204.256
195.235
186.37
177.67
169.142
160.795
152.634
144.665
136.894
129.324
121.958
114.799
107.849
101.108
94.5777
88.2573
82.1466
76.2446
70.5499
65.0608
59.7752
54.6905
49.8041
45.1128
40.6133
36.3022
32.1757
28.2299
24.4606
20.8638
17.4351
14.17
11.0641
8.11279
5.31143
2.65538
0.139961
-2.23953
-4.48778
-6.60947
-8.60926
-10.4918
-12.2616
-13.9233
-15.4813
-16.9401
-18.304
-19.5773
-20.7642
-21.8688
-22.8952
-23.8473
-24.7289
-25.5437
-26.2955
-26.9878
-27.624
-28.2074
-28.7412
-29.2287
-29.6726
-30.0761
-30.4418
-30.7724
-31.0704
-31.3384
-31.5785
-31.7931
-31.9843
-32.1539
-32.3039
-32.4361
-32.5521
-32.6534
-32.7414
-32.8176
-32.8829
-32.9387
-32.9858
-33.0251
-33.0574
-33.0833
-33.1034
-33.118
-33.1277
-33.1324
352.16
342.325
332.361
322.299
312.169
302.002
291.822
281.653
271.521
261.444
251.442
241.534
231.735
222.061
212.524
203.138
193.914
184.861
175.989
167.303
158.812
150.521
142.435
134.559
126.895
119.446
112.214
105.201
98.406
91.8298
85.4717
79.3308
73.4056
67.6943
62.1947
56.9043
51.82
46.9388
42.2573
37.7717
33.4781
29.3725
25.4507
21.7083
18.1408
14.7436
11.512
8.44117
5.52642
2.76286
0.145623
-2.33018
-4.66944
-6.87701
-8.95775
-10.9165
-12.7579
-14.4869
-16.108
-17.6258
-19.0449
-20.3698
-21.6047
-22.754
-23.822
-24.8126
-25.7298
-26.5777
-27.3599
-28.0802
-28.7421
-29.3491
-29.9046
-30.4118
-30.8737
-31.2935
-31.674
-32.018
-32.3281
-32.6069
-32.8568
-33.08
-33.2789
-33.4554
-33.6115
-33.749
-33.8697
-33.9751
-34.0667
-34.1459
-34.214
-34.272
-34.321
-34.3619
-34.3955
-34.4224
-34.4433
-34.4586
-34.4686
-34.4735
365.773
355.558
345.209
334.758
324.236
313.676
303.102
292.541
282.017
271.55
261.162
250.871
240.693
230.645
220.739
210.991
201.41
192.007
182.792
173.77
164.951
156.339
147.941
139.76
131.8
124.063
116.552
109.268
102.21
95.3795
88.7757
82.3974
76.2432
70.3111
64.5989
59.104
53.8232
48.7533
43.8908
39.2318
34.7722
30.508
26.4346
22.5475
18.8421
15.3135
11.957
8.76747
5.74005
2.86966
0.15125
-2.42026
-4.84994
-7.14285
-9.30402
-11.3385
-13.2511
-15.0469
-16.7306
-18.3072
-19.7811
-21.1572
-22.4399
-23.6336
-24.7428
-25.7717
-26.7245
-27.6051
-28.4176
-29.1657
-29.8532
-30.4837
-31.0606
-31.5874
-32.0672
-32.5032
-32.8984
-33.2557
-33.5778
-33.8673
-34.1269
-34.3588
-34.5653
-34.7487
-34.9108
-35.0536
-35.179
-35.2884
-35.3836
-35.4659
-35.5365
-35.5968
-35.6477
-35.6902
-35.7251
-35.7531
-35.7748
-35.7906
-35.801
-35.8061
379.296
368.703
357.971
347.134
336.223
325.273
314.308
303.357
292.443
281.589
270.817
260.146
249.592
239.172
228.9
218.791
208.856
199.106
189.55
180.195
171.049
162.119
153.41
144.927
136.673
128.65
120.861
113.307
105.989
98.9058
92.0578
85.4437
79.0619
72.9106
66.9872
61.2891
55.8131
50.5558
45.5134
40.6822
36.0578
31.6359
27.4119
23.3811
19.5387
15.8797
12.399
9.09161
5.95226
2.97575
0.156839
-2.50974
-5.02925
-7.40693
-9.648
-11.7576
-13.741
-15.6032
-17.3492
-18.984
-20.5124
-21.9394
-23.2695
-24.5074
-25.6576
-26.7245
-27.7125
-28.6257
-29.4682
-30.244
-30.9569
-31.6107
-32.2089
-32.7552
-33.2527
-33.7049
-34.1147
-34.4852
-34.8192
-35.1194
-35.3886
-35.6291
-35.8432
-36.0333
-36.2015
-36.3496
-36.4796
-36.5931
-36.6918
-36.7771
-36.8504
-36.9128
-36.9656
-37.0097
-37.0458
-37.0749
-37.0974
-37.1138
-37.1246
-37.1299
392.726
381.757
370.645
359.424
348.128
336.79
325.437
314.097
302.798
291.559
280.406
269.356
258.429
247.64
237.005
226.538
216.251
206.156
196.261
186.575
177.105
167.859
158.842
150.058
141.512
133.205
125.14
117.319
109.741
102.408
95.3172
88.4689
81.8612
75.492
69.359
63.4591
57.7892
52.3457
47.1249
42.1226
37.3344
32.756
28.3824
24.2089
20.2304
16.4419
12.838
9.4135
6.163
3.08111
0.162389
-2.59861
-5.20732
-7.66918
-9.9896
-12.1739
-14.2275
-16.1556
-17.9635
-19.6561
-21.2387
-22.7162
-24.0934
-25.3751
-26.566
-27.6707
-28.6937
-29.6392
-30.5115
-31.3148
-32.0529
-32.7299
-33.3493
-33.9149
-34.4301
-34.8982
-35.3225
-35.7061
-36.052
-36.3629
-36.6415
-36.8905
-37.1123
-37.3091
-37.4832
-37.6366
-37.7712
-37.8887
-37.9909
-38.0792
-38.1551
-38.2198
-38.2744
-38.32
-38.3575
-38.3875
-38.4108
-38.4279
-38.439
-38.4445
406.058
394.718
383.228
371.626
359.946
348.223
336.485
324.76
313.077
301.457
289.925
278.501
267.202
256.047
245.051
234.228
223.593
213.154
202.924
192.909
183.118
173.558
164.235
155.153
146.316
137.727
129.389
121.302
113.467
105.884
98.553
91.4723
84.6402
78.0549
71.7136
65.6134
59.751
54.1228
48.7247
43.5526
38.6019
33.868
29.3459
25.0308
20.9172
17.0001
13.2738
9.73307
6.37223
3.18571
0.167899
-2.68683
-5.3841
-7.92954
-10.3287
-12.5872
-14.7105
-16.7041
-18.5733
-20.3234
-21.9597
-23.4873
-24.9113
-26.2365
-27.4679
-28.6101
-29.6678
-30.6454
-31.5473
-32.3779
-33.1411
-33.841
-34.4815
-35.0663
-35.5989
-36.083
-36.5217
-36.9183
-37.2759
-37.5973
-37.8855
-38.1429
-38.3722
-38.5757
-38.7557
-38.9143
-39.0534
-39.175
-39.2806
-39.3719
-39.4504
-39.5173
-39.5738
-39.6209
-39.6597
-39.6907
-39.7148
-39.7324
-39.744
-39.7497
419.29
407.58
395.716
383.736
371.676
359.571
347.45
335.343
323.279
311.281
299.373
287.576
275.91
264.391
253.036
241.861
230.879
220.1
209.536
199.195
189.085
179.214
169.586
160.209
151.084
142.215
133.605
125.255
117.164
109.335
101.765
94.4531
87.3984
80.5984
74.0505
67.7515
61.6981
55.8865
50.3125
44.9718
39.8598
34.9716
30.3022
25.8464
21.5989
17.554
13.7064
10.0502
6.57987
3.28952
0.173368
-2.77439
-5.55956
-8.18794
-10.6653
-12.9974
-15.1899
-17.2484
-19.1785
-20.9857
-22.6753
-24.2527
-25.7231
-27.0915
-28.363
-29.5424
-30.6346
-31.644
-32.5754
-33.433
-34.2211
-34.9438
-35.6051
-36.209
-36.759
-37.2588
-37.7118
-38.1214
-38.4906
-38.8225
-39.12
-39.3859
-39.6226
-39.8328
-40.0186
-40.1824
-40.3261
-40.4516
-40.5606
-40.6549
-40.736
-40.805
-40.8634
-40.9121
-40.952
-40.9841
-41.009
-41.0272
-41.0391
-41.045
432.419
420.342
408.107
395.752
383.314
370.829
358.329
345.844
333.402
321.028
308.747
296.581
284.549
272.669
260.959
249.434
238.108
226.992
216.097
205.432
195.006
184.825
174.897
165.225
155.815
146.668
137.789
129.177
120.833
112.758
104.951
97.4106
90.135
83.1221
76.3692
69.873
63.63
57.6364
51.8879
46.3799
41.1079
36.0666
31.251
26.6557
22.2752
18.1037
14.1356
10.3649
6.7859
3.39252
0.178794
-2.86126
-5.73364
-8.44433
-10.9993
-13.4044
-15.6655
-17.7885
-19.7791
-21.6428
-23.3853
-25.0121
-26.5285
-27.9398
-29.2511
-30.4675
-31.5938
-32.6349
-33.5954
-34.4798
-35.2926
-36.0379
-36.72
-37.3427
-37.91
-38.4254
-38.8926
-39.315
-39.6958
-40.0381
-40.345
-40.6191
-40.8633
-41.08
-41.2717
-41.4406
-41.5887
-41.7182
-41.8307
-41.9279
-42.0115
-42.0827
-42.1429
-42.1931
-42.2343
-42.2674
-42.2931
-42.3118
-42.3241
-42.3302
445.441
433.001
420.397
407.67
394.857
381.997
369.12
356.258
343.442
330.695
318.044
305.512
293.118
280.881
268.818
256.946
245.279
233.828
222.605
211.619
200.878
190.391
180.163
170.201
160.507
151.085
141.938
133.067
124.472
116.154
108.112
100.344
92.8494
85.6253
78.669
71.9772
65.5462
59.3721
53.4504
47.7767
42.3458
37.1528
32.1922
27.4585
22.946
18.6489
14.5612
10.6771
6.99025
3.49468
0.184176
-2.94743
-5.90631
-8.69862
-11.3305
-13.8081
-16.1373
-18.3242
-20.3747
-22.2946
-24.0896
-25.7654
-27.3274
-28.7812
-30.132
-31.385
-32.5452
-33.6177
-34.6071
-35.5182
-36.3554
-37.1232
-37.8258
-38.4673
-39.0516
-39.5826
-40.0639
-40.499
-40.8912
-41.2439
-41.5599
-41.8423
-42.0939
-42.3171
-42.5146
-42.6885
-42.8412
-42.9745
-43.0904
-43.1906
-43.2766
-43.35
-43.412
-43.4637
-43.5062
-43.5403
-43.5667
-43.586
-43.5987
-43.6049
458.353
445.552
432.583
419.487
406.303
393.07
379.82
366.586
353.398
340.281
327.264
314.368
301.615
289.023
276.61
264.394
252.389
240.606
229.058
217.753
206.701
195.91
185.386
175.134
165.16
155.465
146.052
136.924
128.08
119.521
111.245
103.253
95.5408
88.1074
80.9494
74.0636
67.4462
61.0931
54.9998
49.1616
43.5733
38.2297
33.1253
28.2544
23.6111
19.1894
14.9833
10.9866
7.19288
3.59598
0.189513
-3.03287
-6.07752
-8.95078
-11.659
-14.2083
-16.6051
-18.8554
-20.9653
-22.9408
-24.7879
-26.5122
-28.1196
-29.6155
-31.0054
-32.2947
-33.4886
-34.5921
-35.6102
-36.5477
-37.4092
-38.1993
-38.9223
-39.5824
-40.1836
-40.73
-41.2252
-41.6729
-42.0765
-42.4394
-42.7646
-43.0552
-43.3141
-43.5438
-43.747
-43.926
-44.083
-44.2202
-44.3395
-44.4425
-44.5311
-44.6066
-44.6704
-44.7236
-44.7673
-44.8024
-44.8296
-44.8495
-44.8625
-44.8689
471.152
457.994
444.663
431.201
417.649
404.046
390.426
376.822
363.266
349.783
336.402
323.147
310.037
297.093
284.334
271.777
259.436
247.325
235.454
223.834
212.473
201.381
190.563
180.025
169.771
159.806
150.131
140.747
131.657
122.858
114.352
106.136
98.2087
90.5677
83.2098
76.1317
69.3296
62.7991
56.5356
50.5344
44.79
39.2972
34.0503
29.0434
24.2704
19.7253
15.4017
11.2933
7.39373
3.69639
0.194803
-3.11756
-6.24723
-9.20072
-11.9845
-14.6051
-17.0688
-19.3819
-21.5507
-23.5814
-25.4801
-27.2526
-28.9048
-30.4425
-31.8712
-33.1965
-34.4238
-35.5581
-36.6046
-37.5683
-38.4539
-39.266
-40.0091
-40.6877
-41.3057
-41.8673
-42.3764
-42.8366
-43.2515
-43.6245
-43.9588
-44.2575
-44.5236
-44.7597
-44.9686
-45.1526
-45.314
-45.455
-45.5776
-45.6836
-45.7746
-45.8522
-45.9178
-45.9725
-46.0174
-46.0535
-46.0814
-46.1018
-46.1152
-46.1218
483.835
470.323
456.633
442.808
428.891
414.922
400.936
386.966
373.045
359.199
345.458
331.845
318.383
305.091
291.988
279.093
266.42
253.982
241.792
229.859
218.193
206.802
195.692
184.871
174.342
164.108
154.172
144.536
135.201
126.165
117.43
108.993
100.852
93.0056
85.4497
78.1811
71.1958
64.4895
58.0575
51.8947
45.9957
40.3551
34.9669
29.8252
24.9237
20.2563
15.8163
11.5973
7.59276
3.79589
0.200045
-3.20148
-6.4154
-9.44839
-12.3071