/*--------------------------------*- C++ -*----------------------------------*\
| =========                 |                                                 |
| \\      /  F ield         | OpenFOAM: The Open Source CFD Toolbox           |
|  \\    /   O peration     | Version:  2406                                  |
|   \\  /    A nd           | Website:  www.openfoam.com                      |
|    \\/     M anipulation  |                                                 |
\*---------------------------------------------------------------------------*/
FoamFile
{
    version     2.0;
    format      ascii;
    arch        "LSB;label=32;scalar=64";
    class       volScalarField;
    location    "145";
    object      gradTy;
}
// * * * * * * * * * * * * * * * * * * * * * * * * * * * * * * * * * * * * * //

dimensions      [0 -1 0 1 0 0 0];

internalField   nonuniform List<scalar> 
20000
(
-111.338
-96.5982
-82.6181
-69.3811
-56.8713
-45.0704
-33.9604
-23.5226
-13.7357
-4.58015
3.96396
11.9178
19.3028
26.1402
32.451
38.256
43.5763
48.4327
52.8459
56.8363
60.4239
63.6284
66.4691
68.9647
71.1338
72.9942
74.5635
75.8586
76.8959
77.6914
78.2606
78.6183
78.7788
78.756
78.563
78.2127
77.7171
77.0881
76.3366
75.4732
74.5082
73.4511
72.311
71.0966
69.816
68.477
67.0867
65.6522
64.1798
62.6754
61.1449
59.5933
58.0257
56.4465
54.8599
53.2699
51.6801
50.0936
48.5135
46.9424
45.383
43.8373
42.3073
40.7948
39.3014
37.8283
36.3767
34.9476
33.5418
32.1598
30.8022
29.4694
28.1614
26.8784
25.6203
24.387
23.1782
21.9935
20.8325
19.6946
18.5793
17.4858
16.4134
15.3613
14.3285
13.3142
12.3174
11.337
10.3719
9.4212
8.4836
7.55797
6.64312
5.73785
4.8409
3.95103
3.06698
2.18745
1.31117
0.436841
-111.311
-96.5742
-82.5975
-69.3639
-56.8571
-45.0596
-33.9522
-23.5164
-13.7321
-4.57919
3.96277
11.9148
19.2981
26.1338
32.443
38.2465
43.5655
48.4207
52.8328
56.8222
60.409
63.6127
66.4527
68.9477
71.1163
72.9762
74.5451
75.8399
76.8769
77.6723
78.2413
78.5989
78.7594
78.7365
78.5436
78.1934
77.698
77.069
76.3177
75.4546
74.4898
73.433
72.2932
71.0791
69.7988
68.4601
67.0702
65.636
64.1639
62.66
61.1298
59.5786
58.0113
56.4325
54.8464
53.2568
51.6673
50.0812
48.5015
46.9308
45.3718
43.8264
42.2969
40.7848
39.2917
37.819
36.3677
34.939
33.5335
32.1519
30.7946
29.4621
28.1544
26.8718
25.614
24.381
23.1724
21.9881
20.8273
19.6898
18.5747
17.4815
16.4094
15.3575
14.325
13.3109
12.3143
11.3342
10.3694
9.41888
8.4815
7.5561
6.64148
5.73643
4.8397
3.95006
3.06622
2.18691
1.31085
0.436733
-111.256
-96.5268
-82.5565
-69.3297
-56.829
-45.0373
-33.9355
-23.5047
-13.7253
-4.57705
3.96073
11.909
19.2887
26.121
32.427
38.2276
43.5439
48.3967
52.8067
56.7942
60.3792
63.5813
66.4199
68.9137
71.0812
72.9402
74.5083
75.8024
76.839
77.6339
78.2027
78.5601
78.7205
78.6977
78.5049
78.1548
77.6596
77.031
76.2801
75.4174
74.4531
73.3968
72.2575
71.044
69.7643
68.4263
67.0371
65.6036
64.1322
62.629
61.0996
59.5492
57.9827
56.4047
54.8193
53.2305
51.6418
50.0565
48.4775
46.9077
45.3494
43.8048
42.276
40.7646
39.2723
37.8003
36.3498
34.9217
33.5169
32.136
30.7794
29.4476
28.1405
26.8585
25.6013
24.3689
23.161
21.9772
20.8171
19.6801
18.5656
17.4729
16.4013
15.3499
14.3179
13.3043
12.3082
11.3286
10.3643
9.41423
8.47732
7.55237
6.63821
5.7336
4.83732
3.94811
3.06471
2.18583
1.3102
0.436517
-111.173
-96.4557
-82.4956
-69.2784
-56.787
-45.0038
-33.9103
-23.4874
-13.7153
-4.57371
3.95782
11.9002
19.2745
26.1017
32.403
38.1993
43.5116
48.3609
52.7676
56.7521
60.3345
63.5343
66.3707
68.8627
71.0286
72.8862
74.4532
75.7463
76.7821
77.5765
78.1448
78.5019
78.6622
78.6394
78.4467
78.0969
77.6021
76.974
76.2236
75.3615
74.398
73.3424
72.204
70.9914
69.7127
68.3756
66.9875
65.555
64.0848
62.5827
61.0544
59.5051
57.9398
56.3629
54.7787
53.1911
51.6036
50.0194
48.4416
46.8729
45.3158
43.7724
42.2447
40.7344
39.2432
37.7723
36.3229
34.8959
33.4921
32.1122
30.7566
29.4257
28.1197
26.8386
25.5824
24.3509
23.1439
21.9609
20.8017
19.6655
18.5518
17.4599
16.3891
15.3385
14.3073
13.2945
12.2991
11.3202
10.3566
9.40726
8.47104
7.54678
6.63329
5.72935
4.83373
3.94518
3.06244
2.18421
1.30923
0.436194
-111.063
-96.3603
-82.4142
-69.21
-56.7309
-44.9593
-33.8768
-23.4642
-13.7017
-4.56919
3.95394
11.8885
19.2555
26.0759
32.3709
38.1615
43.4686
48.3131
52.7155
56.6961
60.2749
63.4715
66.3052
68.7947
70.9584
72.8142
74.3796
75.6715
76.7063
77.4998
78.0676
78.4244
78.5845
78.5617
78.3692
78.0198
77.5255
76.8979
76.1483
75.2871
74.3245
73.27
72.1327
70.9213
69.6438
68.3081
66.9213
65.4903
64.0215
62.5208
60.994
59.4463
57.8825
56.3073
54.7246
53.1386
51.5526
49.97
48.3938
46.8266
45.271
43.7291
42.2029
40.6942
39.2044
37.735
36.287
34.8614
33.459
32.0805
30.7263
29.3967
28.0919
26.8121
25.5571
24.3268
23.121
21.9392
20.7811
19.6461
18.5335
17.4427
16.3729
15.3234
14.2932
13.2814
12.287
11.309
10.3464
9.39796
8.46267
7.53933
6.62674
5.72369
4.82896
3.94129
3.05941
2.18206
1.30794
0.435763
-110.926
-96.2411
-82.3123
-69.1244
-56.6608
-44.9038
-33.835
-23.4353
-13.6848
-4.56352
3.94909
11.8738
19.2317
26.0437
32.3309
38.1143
43.4149
48.2534
52.6503
56.626
60.2004
63.3931
66.2233
68.7097
70.8707
72.7243
74.2877
75.578
76.6115
77.4041
77.9711
78.3275
78.4874
78.4647
78.2724
77.9234
77.4297
76.8029
76.0542
75.1941
74.2326
73.1794
72.0436
70.8336
69.5578
68.2237
66.8386
65.4094
63.9424
62.4436
60.9187
59.3729
57.811
56.2377
54.657
53.0729
51.4889
49.9083
48.334
46.7688
45.2151
43.6751
42.1508
40.6439
39.156
37.6884
36.2422
34.8183
33.4177
32.0409
30.6883
29.3604
28.0572
26.779
25.5255
24.2968
23.0924
21.9121
20.7554
19.6218
18.5106
17.4211
16.3527
15.3045
14.2755
13.265
12.2718
11.295
10.3336
9.38635
8.45222
7.53001
6.61855
5.71662
4.82299
3.93642
3.05563
2.17936
1.30632
0.435225
-110.762
-96.0982
-82.1901
-69.0218
-56.5767
-44.8372
-33.7848
-23.4005
-13.6645
-4.55671
3.94326
11.8562
19.2031
26.005
32.2829
38.0578
43.3505
48.1818
52.5722
56.542
60.1111
63.2991
66.125
68.6078
70.7656
72.6164
74.1775
75.4659
76.4978
77.2892
77.8555
78.2113
78.371
78.3482
78.1563
77.8078
77.3148
76.689
75.9413
75.0825
74.1225
73.0709
71.9367
70.7285
69.4546
68.1224
66.7394
65.3123
63.8475
62.3509
60.8283
59.2848
57.7253
56.1542
54.5759
52.9942
51.4125
49.8342
48.2623
46.6994
45.148
43.6103
42.0883
40.5836
39.0979
37.6324
36.1884
34.7667
33.3681
31.9933
30.6428
29.3168
28.0156
26.7392
25.4877
24.2607
23.0582
21.8796
20.7246
19.5927
18.4831
17.3953
16.3284
15.2817
14.2543
13.2453
12.2536
11.2783
10.3182
9.37242
8.43967
7.51884
6.60873
5.70814
4.81584
3.93058
3.0511
2.17613
1.30438
0.434579
-110.57
-95.9317
-82.0477
-68.9023
-56.4787
-44.7595
-33.7263
-23.3599
-13.6408
-4.5488
3.93644
11.8357
19.1698
25.9599
32.2269
37.9918
43.2753
48.0983
52.4811
56.4441
60.007
63.1894
66.0105
68.4889
70.643
72.4906
74.049
75.3351
76.3653
77.1553
77.7206
78.0758
78.2352
78.2125
78.0209
77.6729
77.1808
76.5561
75.8098
74.9524
73.9941
72.9442
71.812
70.606
69.3342
68.0044
66.6238
65.1991
63.7368
62.2429
60.7229
59.1821
57.6252
56.0569
54.4813
52.9023
51.3234
49.7479
48.1787
46.6185
45.0698
43.5347
42.0153
40.5133
39.0301
37.5672
36.1257
34.7064
33.3103
31.9379
30.5897
29.266
27.967
26.6929
25.4435
24.2187
23.0182
21.8417
20.6887
19.5587
18.4511
17.3652
16.3002
15.2553
14.2296
13.2223
12.2324
11.2587
10.3004
9.35618
8.42505
7.50581
6.59728
5.69825
4.80749
3.92377
3.04581
2.17236
1.30212
0.433826
-110.351
-95.7415
-81.8851
-68.7657
-56.3668
-44.6708
-33.6594
-23.3136
-13.6137
-4.53977
3.92864
11.8122
19.1318
25.9085
32.163
37.9165
43.1895
48.0029
52.3771
56.3322
59.888
63.0641
65.8796
68.3531
70.503
72.3469
73.9022
75.1858
76.2139
77.0024
77.5665
77.921
78.0801
78.0574
77.8662
77.519
77.0278
76.4043
75.6595
74.8038
73.8474
72.7996
71.6697
70.466
69.1968
67.8696
66.4917
65.0699
63.6105
62.1195
60.6025
59.0647
57.511
55.9458
54.3733
52.7974
51.2217
49.6492
48.0831
46.5261
44.9804
43.4484
41.932
40.433
38.9528
37.4928
36.0541
34.6376
33.2443
31.8746
30.529
29.208
27.9116
26.64
25.3931
24.1707
22.9726
21.7984
20.6477
19.5199
18.4145
17.3307
16.2678
15.225
14.2014
13.1961
12.2081
11.2364
10.2799
9.33763
8.40835
7.49093
6.5842
5.68695
4.79796
3.91599
3.03977
2.16805
1.29954
0.432966
-110.104
-95.5277
-81.7022
-68.6121
-56.2409
-44.571
-33.5842
-23.2615
-13.5833
-4.52963
3.91986
11.7858
19.0891
25.8506
32.0912
37.8318
43.0931
47.8958
52.2601
56.2064
59.7543
62.9233
65.7325
68.2005
70.3455
72.1853
73.7372
75.0179
76.0437
76.8304
77.3933
77.747
77.9057
77.8831
77.6923
77.3459
76.8558
76.2337
75.4905
74.6368
73.6825
72.6371
71.5096
70.3086
69.0422
67.718
66.3432
64.9246
63.4684
61.9808
60.4672
58.9328
57.3826
55.8209
54.2519
52.6795
51.1073
49.5384
47.9758
46.4222
44.88
43.3514
41.8384
40.3427
38.8658
37.409
35.9735
34.5603
33.17
31.8034
30.4609
29.1427
27.8493
26.5805
25.3363
24.1167
22.9213
21.7497
20.6016
19.4764
18.3734
17.292
16.2315
15.191
14.1697
13.1666
12.1808
11.2113
10.257
9.31678
8.38957
7.4742
6.5695
5.67425
4.78725
3.90724
3.03298
2.16321
1.29664
0.431999
-109.831
-95.2904
-81.4992
-68.4416
-56.1011
-44.4603
-33.5007
-23.2037
-13.5496
-4.51838
3.9101
11.7565
19.0416
25.7863
32.0115
37.7378
42.986
47.7767
52.1303
56.0667
59.6058
62.767
65.5692
68.031
70.1707
72.006
73.554
74.8315
75.8547
76.6395
77.201
77.5538
77.7121
77.6896
77.4993
77.1537
76.6648
76.0443
75.3029
74.4513
73.4994
72.4566
71.3319
70.1339
68.8707
67.5498
66.1784
64.7632
63.3107
61.8268
60.3169
58.7864
57.24
55.6822
54.1171
52.5486
50.9803
49.4153
47.8566
46.3068
44.7684
43.2437
41.7344
40.2424
38.7692
37.3161
35.8841
34.4744
33.0876
31.7244
30.3852
29.0703
27.7801
26.5144
25.2734
24.0568
22.8643
21.6957
20.5504
19.428
18.3277
17.2491
16.1912
15.1533
14.1345
13.1339
12.1506
11.1835
10.2315
9.29363
8.36872
7.45563
6.55317
5.66015
4.77535
3.89753
3.02545
2.15783
1.29342
0.430926
-109.53
-95.0295
-81.2761
-68.2542
-55.9475
-44.3385
-33.409
-23.1402
-13.5125
-4.50602
3.89938
11.7243
18.9895
25.7157
31.9238
37.6345
42.8683
47.6459
51.9876
55.9132
59.4426
62.5951
65.3897
67.8448
69.9786
71.8088
73.3526
74.6266
75.6471
76.4297
76.9896
77.3415
77.4994
77.4769
77.2871
76.9424
76.4549
75.8361
75.0968
74.2475
73.2981
72.2582
71.1366
69.9419
68.6821
67.3648
65.9972
64.5859
63.1374
61.6575
60.1518
58.6254
57.0833
55.5297
53.9689
52.4048
50.8407
49.28
47.7255
46.18
44.6459
43.1253
41.6202
40.1323
38.6631
37.2139
35.7859
34.38
32.997
31.6375
30.302
28.9907
27.704
26.4418
25.2042
23.9909
22.8017
21.6363
20.4941
19.3748
18.2776
17.2018
16.1468
15.1118
14.0958
13.098
12.1173
11.1528
10.2035
9.26819
8.34581
7.43522
6.53523
5.64465
4.76228
3.88686
3.01716
2.15193
1.28988
0.429746
-109.202
-94.7452
-81.0329
-68.05
-55.7801
-44.2059
-33.309
-23.071
-13.4721
-4.49255
3.8877
11.6892
18.9327
25.6388
31.8283
37.5219
42.7401
47.5034
51.832
55.746
59.2648
62.4079
65.194
67.6418
69.7693
71.594
73.1331
74.4033
75.4207
76.201
76.7593
77.1101
77.2675
77.2451
77.0558
76.7122
76.2262
75.6092
74.8721
74.0253
73.0788
72.042
70.9238
69.7326
68.4766
67.1633
65.7997
64.3927
62.9485
61.473
59.9718
58.45
56.9125
55.3636
53.8075
52.248
50.6886
49.1325
47.5827
46.0418
44.5123
42.9962
41.4956
40.0122
38.5474
37.1026
35.6788
34.2771
32.8983
31.5428
30.2113
28.904
27.6211
26.3627
25.1288
23.9191
22.7335
21.5715
20.4328
19.3168
18.2229
17.1504
16.0985
15.0666
14.0536
13.0588
12.0811
11.1195
10.173
9.24046
8.32084
7.41297
6.51568
5.62777
4.74803
3.87523
3.00814
2.14549
1.28602
0.42846
-108.847
-94.4374
-80.7697
-67.829
-55.5989
-44.0623
-33.2009
-22.996
-13.4283
-4.47797
3.87506
11.6512
18.8712
25.5555
31.7249
37.4
42.6013
47.3491
51.6637
55.5649
59.0723
62.2052
64.9823
67.4221
69.5427
71.3615
72.8956
74.1617
75.1758
75.9535
76.51
76.8596
77.0165
76.9942
76.8056
76.4631
75.9786
75.3636
74.6289
73.7849
72.8415
71.808
70.6934
69.5062
68.2542
66.9451
65.586
64.1835
62.744
61.2734
59.777
58.2602
56.7276
55.1838
53.6327
52.0783
50.524
48.973
47.4282
45.8923
44.3677
42.8566
41.3609
39.8822
38.4222
36.9821
35.563
34.1658
32.7914
31.4404
30.1132
28.8101
27.5314
26.2771
25.0472
23.8414
22.6597
21.5015
20.3665
19.2541
18.1637
17.0947
16.0462
15.0176
14.008
13.0164
12.0418
11.0834
10.1399
9.21044
8.29382
7.38889
6.49451
5.60949
4.73261
3.86265
2.99837
2.13852
1.28184
0.427068
-108.466
-94.1064
-80.4866
-67.5912
-55.4041
-43.9078
-33.0845
-22.9154
-13.3813
-4.46229
3.86147
11.6104
18.805
25.4659
31.6137
37.2689
42.452
47.1832
51.4826
55.3702
58.8653
61.9872
64.7546
67.1858
69.2989
71.1113
72.6401
73.9017
74.9123
75.6873
76.2418
76.5902
76.7466
76.7243
76.5364
76.1951
75.7123
75.0994
74.3673
73.5263
72.5862
71.5563
70.4456
69.2625
68.015
66.7105
65.3561
63.9586
62.5241
61.0586
59.5675
58.056
56.5288
54.9903
53.4447
51.8957
50.3469
48.8013
47.2619
45.7315
44.2122
42.7064
41.2159
39.7424
38.2875
36.8524
35.4383
34.0461
32.6765
31.3302
30.0076
28.7091
27.4349
26.185
24.9594
23.7579
22.5802
21.4261
20.2951
19.1866
18.1
17.0347
15.99
14.965
13.9589
12.9707
11.9996
11.0445
10.1044
9.17816
8.26475
7.363
6.47175
5.58983
4.71602
3.84911
2.98786
2.13102
1.27735
0.425572
-108.058
-93.7522
-80.1836
-67.3368
-55.1955
-43.7426
-32.96
-22.8292
-13.3309
-4.4455
3.84693
11.5667
18.7342
25.3701
31.4947
37.1286
42.2922
47.0056
51.2889
55.1618
58.6437
61.7538
64.5108
66.9329
69.0381
70.8437
72.3667
73.6236
74.6303
75.4024
75.9548
76.3019
76.4577
76.4355
76.2483
75.9083
75.4273
74.8168
74.0874
73.2495
72.3129
71.287
70.1805
69.0018
67.759
66.4594
65.1101
63.7178
62.2888
60.8288
59.3433
57.8374
56.316
54.7833
53.2435
51.7004
50.1574
48.6176
47.084
45.5593
44.0458
42.5456
41.0607
39.5928
38.1434
36.7137
35.3049
33.9179
32.5535
31.2123
29.8947
28.6011
27.3316
26.0864
24.8654
23.6684
22.4952
21.3455
20.2187
19.1143
18.0319
16.9706
15.9298
14.9087
13.9063
12.9219
11.9544
11.0029
10.0663
9.14361
8.23364
7.33528
6.44739
5.56878
4.69827
3.83462
2.97661
2.123
1.27254
0.42397
-107.623
-93.3748
-79.8609
-67.0658
-54.9734
-43.5665
-32.8273
-22.7373
-13.2773
-4.42761
3.83144
11.5201
18.6588
25.268
31.368
36.9792
42.122
46.8164
51.0824
54.9397
58.4077
61.5053
64.2512
66.6635
68.7602
70.5585
72.0754
73.3272
74.3299
75.0989
75.6491
75.9948
76.15
76.1279
75.9414
75.6027
75.1237
74.5156
73.7892
72.9547
72.0219
71
69.898
68.7241
67.4862
66.1919
64.848
63.4614
62.038
60.5839
59.1044
57.6046
56.0893
54.5628
53.0292
51.4923
49.9555
48.4219
46.8945
45.3759
43.8685
42.3744
40.8955
39.4335
37.9899
36.5659
35.1628
33.7814
32.4225
31.0866
29.7743
28.486
27.2216
25.9814
24.7653
23.5732
22.4047
21.2595
20.1373
19.0374
17.9593
16.9023
15.8657
14.8487
13.8504
12.8699
11.9063
10.9586
10.0258
9.10681
8.20049
7.30575
6.42144
5.54637
4.67936
3.81918
2.96463
2.11446
1.26742
0.422263
-107.161
-92.9744
-79.5185
-66.7782
-54.7377
-43.3797
-32.6866
-22.6398
-13.2203
-4.40863
3.81501
11.4707
18.5788
25.1596
31.2335
36.8206
41.9413
46.6156
50.8634
54.7042
58.1572
61.2416
63.9757
66.3777
68.4654
70.256
71.7663
73.0128
74.0112
74.7769
75.3247
75.6689
75.8234
75.8014
75.6157
75.2785
74.8016
74.1961
73.4728
72.6418
71.713
70.6956
69.5983
68.4294
67.1968
65.908
64.57
63.1892
61.772
60.3241
58.851
57.3576
55.8488
54.3288
52.8018
51.2715
49.7413
48.2143
46.6934
45.1814
43.6804
42.1927
40.7201
39.2644
37.827
36.4091
35.012
33.6365
32.2834
30.9533
29.6467
28.3638
27.1049
25.87
24.6591
23.4721
22.3086
21.1684
20.0509
18.9558
17.8823
16.8298
15.7977
14.785
13.791
12.8147
11.8553
10.9116
9.98283
9.06776
8.16533
7.27443
6.3939
5.52259
4.65929
3.80281
2.95192
2.10539
1.26198
0.420452
-106.673
-92.5511
-79.1564
-66.4742
-54.4884
-43.1822
-32.5378
-22.5368
-13.1601
-4.38856
3.79764
11.4185
18.4942
25.0451
31.0913
36.653
41.7504
46.4034
50.6318
54.4551
57.8924
60.9627
63.6844
66.0755
68.1536
69.9361
71.4396
72.6804
73.6742
74.4364
74.9817
75.3244
75.4782
75.4563
75.2714
74.9358
74.461
73.8583
73.1382
72.3111
71.3865
70.3737
69.2814
68.1178
66.8909
65.6079
64.2759
62.9015
61.4907
60.0494
58.583
57.0965
55.5945
54.0815
52.5614
51.038
49.5148
47.9947
46.4808
44.9756
43.4815
42.0006
40.5347
39.0856
37.6547
36.2433
34.8526
33.4834
32.1364
30.8124
29.5117
28.2346
26.9815
25.7522
24.5469
23.3652
22.207
21.072
19.9596
18.8695
17.8009
16.7532
15.7257
14.7177
13.7282
12.7564
11.8013
10.862
9.93738
9.02647
8.12815
7.2413
6.36479
5.49744
4.63807
3.78549
2.93848
2.0958
1.25624
0.418538
-106.159
-92.105
-78.7748
-66.1537
-54.2258
-42.9741
-32.3809
-22.4281
-13.0967
-4.3674
3.77934
11.3635
18.4051
24.9243
30.9414
36.4763
41.5491
46.1797
50.3877
54.1926
57.6134
60.6688
63.3774
65.7569
67.8251
69.5989
71.0952
72.33
73.319
74.0776
74.6203
74.9613
75.1143
75.0925
74.9086
74.5745
74.102
73.5022
72.7856
71.9625
71.0424
70.0344
68.9474
67.7894
66.5684
65.2916
63.9661
62.5983
61.1943
59.76
58.3006
56.8212
55.3265
53.8207
52.308
50.792
49.2761
47.7634
46.2567
44.7588
43.2719
41.7981
40.3393
38.8972
37.4732
36.0686
34.6846
33.3219
31.9815
30.6638
29.3694
28.0985
26.8514
25.6281
24.4285
23.2526
22.1
20.9704
19.8634
18.7785
17.7151
16.6724
15.6499
14.6467
13.662
12.6949
11.7444
10.8096
9.88947
8.98295
8.08896
7.20639
6.3341
5.47094
4.61571
3.76724
2.92431
2.0857
1.25018
0.41652
-105.619
-91.6361
-78.3738
-65.817
-53.9497
-42.7553
-32.2161
-22.3139
-13.03
-4.34516
3.7601
11.3056
18.3114
24.7975
30.7839
36.2906
41.3376
45.9446
50.1312
53.9167
57.3201
60.36
63.0547
65.4222
67.4798
69.2446
70.7332
71.9618
72.9458
73.7004
74.2404
74.5797
74.7319
74.7102
74.5272
74.1949
73.7248
73.128
72.4151
71.5961
70.6807
69.6779
68.5963
67.4443
66.2295
64.9592
63.6404
62.2796
60.8828
59.4557
58.0038
56.5319
55.0448
53.5467
52.0417
50.5334
49.0252
47.5202
46.0213
44.5309
43.0516
41.5853
40.1339
38.6991
37.2824
35.885
34.508
33.1523
31.8187
30.5077
29.2199
27.9555
26.7147
25.4976
24.3042
23.1342
21.9875
20.8637
19.7623
18.6829
17.6249
16.5876
15.5702
14.5721
13.5924
12.6302
11.6846
10.7546
9.83912
8.93722
8.04778
7.16971
6.30186
5.44308
4.59222
3.74806
2.90942
2.07508
1.24382
0.4144
-105.052
-91.1446
-77.9534
-65.4639
-53.6603
-42.5259
-32.0433
-22.1942
-12.9601
-4.32185
3.73994
11.245
18.2132
24.6645
30.6188
36.096
41.1159
45.6982
49.8623
53.6275
57.0126
60.0362
62.7165
65.0713
67.1178
68.8732
70.3538
71.5758
72.5545
73.3051
73.8422
74.1796
74.3311
74.3095
74.1274
73.7969
73.3293
72.7358
72.0267
71.2121
70.3016
69.3041
68.2284
67.0825
65.8742
64.6108
63.2991
61.9455
60.5562
59.1368
57.6927
56.2287
54.7496
53.2595
51.7626
50.2623
48.7622
47.2653
45.7744
44.2921
42.8207
41.3622
39.9186
38.4916
37.0824
35.6925
34.3229
32.9745
31.648
30.3441
29.0632
27.8055
26.5714
25.3608
24.1738
23.0101
21.8695
20.7517
19.6563
18.5827
17.5303
16.4986
15.4867
14.494
13.5195
12.5625
11.6219
10.6969
9.78635
8.88928
8.00462
7.13125
6.26806
5.41389
4.56758
3.72796
2.89382
2.06395
1.23714
0.412177
-104.46
-90.6306
-77.5138
-65.0948
-53.3577
-42.2861
-31.8625
-22.0691
-12.887
-4.29747
3.71886
11.1816
18.1105
24.5254
30.4461
35.8924
40.884
45.4405
49.5811
53.3251
56.6911
59.6977
62.3628
64.7043
66.7393
68.4848
69.9571
71.1721
72.1454
72.8917
73.4257
73.7613
73.9119
73.8904
73.7094
73.3807
72.9158
72.3256
71.6205
70.8105
69.9051
68.9133
67.8436
66.7042
65.5028
64.2464
62.9421
61.5962
60.2147
58.8033
57.3673
55.9116
54.4408
52.9592
51.4707
49.9789
48.4872
46.9988
45.5163
44.0423
42.5792
41.129
39.6935
38.2745
36.8733
35.4912
34.1293
32.7885
31.4695
30.173
28.8993
27.6487
26.4216
25.2178
24.0375
22.8803
21.7462
20.6347
19.5454
18.4779
17.4315
16.4055
15.3994
14.4123
13.4433
12.4916
11.5564
10.6366
9.73116
8.83915
7.95948
7.09103
6.23271
5.38336
4.54183
3.70693
2.8775
2.05231
1.23017
0.409852
-103.842
-90.0942
-77.0551
-64.7095
-53.0419
-42.0359
-31.674
-21.9385
-12.8108
-4.27204
3.69685
11.1154
18.0033
24.3802
30.2659
35.68
40.6421
45.1716
49.2877
53.0095
56.3556
59.3444
61.9938
64.3214
66.3444
68.0795
69.5431
70.7509
71.7184
72.4604
72.9912
73.3248
73.4745
73.4532
73.2732
72.9464
72.4843
71.8975
71.1966
70.3914
69.4914
68.5055
67.4421
66.3095
65.1151
63.8662
62.5696
61.2316
59.8583
58.4553
57.0278
55.5807
54.1186
52.6458
51.166
49.6831
48.2003
46.7206
45.2469
43.7816
42.3272
40.8856
39.4586
38.048
36.6551
35.2812
33.9274
32.5945
31.2833
29.9944
28.7282
27.4851
26.2652
25.0686
23.8952
22.7449
21.6175
20.5126
19.4298
18.3685
17.3283
16.3085
15.3083
14.327
13.3637
12.4177
11.488
10.5736
9.67357
8.78684
7.91237
7.04907
6.19582
5.3515
4.51495
3.685
2.86047
2.04016
1.22289
0.407427
-103.198
-89.5356
-76.5773
-64.3083
-52.7131
-41.7752
-31.4776
-21.8024
-12.7313
-4.24555
3.67394
11.0465
17.8917
24.2291
30.0783
35.4588
40.3901
44.8915
48.9821
52.6808
56.0062
58.9764
61.6094
63.9226
65.933
67.6574
69.1119
70.3123
71.2737
72.0111
72.5386
72.8701
73.0189
72.9977
72.8189
72.4942
72.0348
71.4518
70.7552
69.955
69.0605
68.0807
67.024
65.8983
64.7114
63.4702
62.1817
60.852
59.4872
58.0929
56.6742
55.2361
53.7831
52.3193
50.8488
49.3751
47.9014
46.4309
44.9663
43.5102
42.0647
40.6321
39.214
37.8121
36.4278
35.0624
33.717
32.3924
31.0893
29.8084
28.5501
27.3147
26.1023
24.9131
23.7471
22.6039
21.4835
20.3854
19.3093
18.2546
17.2209
16.2073
15.2133
14.2381
13.2809
12.3407
11.4168
10.5081
9.61359
8.73236
7.86331
7.00536
6.15741
5.31832
4.48695
3.66215
2.84273
2.02752
1.2153
0.404901
-102.528
-88.9549
-76.0807
-63.8912
-52.3712
-41.5043
-31.2734
-21.661
-12.6488
-4.21801
3.65011
10.9749
17.7756
24.0719
29.8832
35.2288
40.1281
44.6004
48.6645
52.3392
55.643
58.5939
61.2098
63.508
65.5054
67.2186
68.6637
69.8562
70.8115
71.5441
72.0682
72.3975
72.5453
72.5243
72.3466
72.024
71.5677
70.9883
70.2963
69.5013
68.6126
67.6392
66.5893
65.471
64.2917
63.0586
61.7784
60.4573
59.1014
57.7161
56.3066
54.8779
53.4343
51.98
50.519
49.0548
47.5908
46.1298
44.6747
43.228
41.7919
40.3685
38.9596
37.5668
36.1916
34.835
33.4983
32.1823
30.8877
29.6151
28.3649
27.1375
25.9331
24.7516
23.593
22.4573
21.3441
20.2532
19.1841
18.1363
17.1092
16.1022
15.1147
14.1458
13.1947
12.2607
11.3427
10.4399
9.55124
8.67573
7.81231
6.95993
6.11747
5.28383
4.45785
3.6384
2.8243
2.01437
1.20742
0.402275
-101.834
-88.3523
-75.5653
-63.4584
-52.0164
-41.2231
-31.0616
-21.5143
-12.5631
-4.18943
3.62538
10.9005
17.6552
23.9089
29.6807
34.9902
39.8563
44.2982
48.3348
51.9846
55.266
58.197
60.7951
63.0778
65.0616
66.7632
68.1985
69.383
70.3318
71.0594
71.5799
71.9071
72.0539
72.033
71.8565
71.5361
71.0828
70.5074
69.8201
69.0304
68.1478
67.1809
66.1382
65.0274
63.8561
62.6314
61.3598
60.0478
58.701
57.3251
55.9252
54.5061
53.0723
51.6279
50.1768
48.7225
47.2684
45.8173
44.3721
42.9352
41.5088
40.0951
38.6957
37.3123
35.9464
34.599
33.2714
31.9643
30.6784
29.4145
28.1728
26.9537
25.7574
24.5839
23.4332
22.3052
21.1995
20.116
19.0541
18.0134
16.9933
15.9931
15.0123
14.05
13.1054
12.1776
11.2659
10.3692
9.48654
8.61695
7.75939
6.91278
6.07603
5.24803
4.42765
3.61375
2.80516
2.00072
1.19924
0.39955
-101.114
-87.7279
-75.0312
-63.0099
-51.6488
-40.9318
-30.842
-21.3622
-12.4743
-4.15983
3.59976
10.8235
17.5304
23.7399
29.471
34.7429
39.5746
43.9851
47.9932
51.6172
54.8754
57.7857
60.3655
62.6319
64.6018
66.2914
67.7165
68.8926
69.8347
70.5572
71.074
71.3989
71.5446
71.5239
71.3486
71.0305
70.5804
70.0091
69.3266
68.5426
67.6662
66.7061
65.6707
64.5678
63.4048
62.1887
60.9262
59.6234
58.2861
56.9199
55.5299
54.1209
52.6972
51.263
49.8221
48.3782
46.9343
45.4935
44.0585
42.6317
41.2154
39.8117
38.4222
37.0486
35.6923
34.3545
33.0362
31.7384
30.4616
29.2066
27.9737
26.7632
25.5753
24.4101
23.2676
22.1475
21.0497
19.9738
18.9194
17.8861
16.8732
15.8801
14.9062
13.9507
13.0127
12.0916
11.1863
10.2959
9.41949
8.55605
7.70455
6.86392
6.03309
5.21094
4.39636
3.58821
2.78534
1.98658
1.19077
0.396726
-100.369
-87.0818
-74.4786
-62.5459
-51.2684
-40.6303
-30.6149
-21.2049
-12.3824
-4.12919
3.57325
10.7438
17.4013
23.5651
29.2539
34.487
39.2831
43.6612
47.6397
51.2371
54.4713
57.3601
59.9209
62.1707
64.126
65.8032
67.2178
68.3853
69.3204
70.0375
70.5506
70.873
71.0177
70.9971
70.8232
70.5074
70.0606
69.4935
68.816
68.0378
67.1678
66.2149
65.1871
64.0923
62.9379
61.7307
60.4775
59.1843
57.8569
56.5008
55.121
53.7223
52.3091
50.8855
49.4552
48.0219
46.5886
45.1584
43.734
42.3177
40.9119
39.5185
38.1392
36.7758
35.4295
34.1015
32.7929
31.5046
30.2373
28.9915
27.7677
26.5661
25.387
24.2304
23.0962
21.9844
20.8947
19.8267
18.7801
17.7544
16.7489
15.7632
14.7964
13.8479
12.9169
12.0025
11.1039
10.2201
9.35012
8.49304
7.64781
6.81337
5.98866
5.17256
4.36398
3.56178
2.76482
1.97195
1.182
0.393804
-99.6
-86.4142
-73.9077
-62.0664
-50.8754
-40.3189
-30.3802
-21.0424
-12.2875
-4.09754
3.54586
10.6614
17.2679
23.3844
29.0297
34.2226
38.982
43.3265
47.2745
50.8443
54.0537
56.9204
59.4616
61.6941
63.6345
65.2987
66.7025
67.861
68.789
69.5006
70.0098
70.3297
70.4733
70.4529
70.2803
69.9668
69.5235
68.9608
68.2885
67.5162
66.6529
65.7073
64.6874
63.601
62.4554
61.2575
60.0139
58.7306
57.4133
56.0676
54.6984
53.3104
51.9081
50.4954
49.0761
47.6537
46.2315
44.8122
43.3987
41.9933
40.5983
39.2155
37.8469
36.4939
35.1579
33.8401
32.5415
31.2631
30.0055
28.7692
27.5548
26.3624
25.1924
24.0446
22.9192
21.8159
20.7345
19.6747
18.6361
17.6183
16.6205
15.6423
14.683
13.7418
12.8179
11.9105
11.0188
10.1417
9.27844
8.42793
7.58918
6.76114
5.94275
5.13291
4.33053
3.53448
2.74363
1.95683
1.17294
0.390785
-98.806
-85.7253
-73.3185
-61.5716
-50.4698
-39.9975
-30.138
-20.8746
-12.1895
-4.06487
3.51759
10.5764
17.1303
23.198
28.7983
33.9498
38.6712
42.9811
46.8976
50.4389
53.6228
56.4666
58.9875
61.2023
63.1272
64.7782
66.1708
67.32
68.2406
68.9466
69.4517
69.7691
69.9115
69.8912
69.72
69.4091
68.9693
68.411
67.7441
66.978
66.1216
65.1834
64.1717
63.0939
61.9575
60.7692
59.5354
58.2624
56.9556
55.6206
54.2624
52.8855
51.4943
50.0928
48.6849
47.2738
45.8629
44.455
43.0527
41.6586
40.2746
38.9029
37.5452
36.2029
34.8776
33.5703
32.2821
31.0139
29.7663
28.5399
27.3351
26.1523
24.9915
23.8529
22.7365
21.642
20.5692
19.5179
18.4876
17.4778
16.488
15.5176
14.5659
13.6322
12.7157
11.8156
10.9309
10.0609
9.20448
8.36075
7.52868
6.70724
5.89537
5.09199
4.29601
3.5063
2.72176
1.94123
1.16359
0.38767
-97.9876
-85.0153
-72.7112
-61.0616
-50.0518
-39.6662
-29.8884
-20.7017
-12.0886
-4.03121
3.48845
10.4888
16.9884
23.0058
28.5597
33.6686
38.3509
42.6251
46.5092
50.0212
53.1786
55.9989
58.499
60.6953
62.6043
64.2416
65.6227
66.7624
67.6754
68.3755
68.8764
69.1912
69.3324
69.3123
69.1425
68.8342
68.3981
67.8444
67.183
66.4232
65.5739
64.6435
63.6402
62.5714
61.4443
60.2658
59.0423
57.7798
56.4839
55.16
53.8129
52.4474
51.0678
49.6779
48.2816
46.8823
45.4831
44.0868
42.6962
41.3135
39.941
38.5807
37.2342
35.9031
34.5887
33.2923
32.0147
30.757
29.5197
28.3035
27.1087
25.9357
24.7845
23.6554
22.5482
21.4627
20.3989
19.3562
18.3344
17.333
16.3515
15.3891
14.4453
13.5193
12.6104
11.7177
10.8404
9.97754
9.12824
8.2915
7.46632
6.65169
5.84654
5.04982
4.26042
3.47726
2.69921
1.92515
1.15395
0.384459
-97.1451
-84.2843
-72.086
-60.5366
-49.6214
-39.3251
-29.6314
-20.5237
-11.9846
-3.99655
3.45845
10.3986
16.8423
22.808
28.3142
33.3791
38.0212
42.2586
46.1093
49.5911
52.7214
55.5174
57.9959
60.1734
62.066
63.6892
65.0584
66.1884
67.0935
67.7876
68.2842
68.5962
68.7363
68.7163
68.548
68.2423
67.8099
67.261
66.6053
65.8521
65.0101
64.0877
63.0929
62.0333
60.916
59.7476
58.5346
57.283
55.9982
54.6857
53.3502
51.9964
50.6286
49.2508
47.8665
46.4792
45.092
43.7077
42.329
40.9583
39.5976
38.2489
36.914
35.5944
34.2913
33.006
31.7395
30.4925
29.2659
28.0601
26.8756
25.7127
24.5714
23.452
22.3543
21.2782
20.2235
19.1898
18.1768
17.184
16.2109
15.2568
14.3211
13.4031
12.5019
11.6169
10.7472
9.89175
9.04975
8.2202
7.40212
6.59449
5.79627
5.0064
4.22379
3.44736
2.676
1.9086
1.14403
0.381153
-96.2786
-83.5325
-71.443
-59.9966
-49.1788
-38.9743
-29.3671
-20.3406
-11.8777
-3.9609
3.4276
10.3059
16.6921
22.6046
28.0616
33.0814
37.682
41.8816
45.698
49.1487
52.2511
55.0222
57.4786
59.6367
61.5124
63.1211
64.4781
65.598
66.495
67.1829
67.6751
67.9844
68.1232
68.1034
67.9365
67.6336
67.2051
66.6611
66.0112
65.2647
64.4302
63.516
62.5302
61.48
60.3726
59.2147
58.0125
56.772
55.4987
54.1979
52.8743
51.5326
50.177
48.8114
47.4395
46.0646
44.6897
43.3178
41.9515
40.5929
39.2444
37.9078
36.5847
35.2769
33.9854
32.7116
31.4564
30.2206
29.0049
27.8098
26.6359
25.4833
24.3522
23.2428
22.1549
21.0884
20.0431
19.0186
18.0147
17.0307
16.0663
15.1207
14.1933
13.2835
12.3904
11.5133
10.6513
9.80352
8.96903
8.14688
7.3361
6.53567
5.74457
4.96174
4.18612
3.41661
2.65213
1.89158
1.13382
0.377753
-95.3883
-82.7601
-70.7824
-59.4418
-48.7241
-38.6139
-29.0956
-20.1526
-11.7679
-3.92427
3.39591
10.2106
16.5377
22.3955
27.8021
32.7755
37.3336
41.4943
45.2754
48.6942
51.7679
54.5134
56.9471
59.0852
60.9436
62.5374
63.8819
64.9914
65.8801
66.5617
67.0493
67.3557
67.4932
67.4736
67.3083
67.0082
66.5836
66.0446
65.4008
64.6612
63.8344
62.9287
61.9519
60.9115
59.8143
58.6671
57.4761
56.247
54.9855
53.6967
52.3854
51.0561
49.713
48.3601
47.0008
45.6386
44.2765
42.9173
41.5635
40.2176
38.8815
37.5572
36.2465
34.9507
33.6712
32.4091
31.1655
29.9411
28.7367
27.5527
26.3896
25.2477
24.1271
23.0279
21.95
20.8934
19.8577
18.8428
17.8481
16.8732
15.9177
14.9809
14.0621
13.1607
12.2759
11.4069
10.5528
9.71286
8.88609
8.07155
7.26826
6.47524
5.69145
4.91586
4.14741
3.38502
2.62761
1.87408
1.12334
0.37426
-94.4745
-81.9672
-70.1043
-58.8724
-48.2573
-38.244
-28.8168
-19.9595
-11.6552
-3.88668
3.36337
10.1127
16.3793
22.181
27.5358
32.4615
36.9759
41.0968
44.8417
48.2277
51.272
53.9912
56.4016
58.5192
60.3597
61.9383
63.2699
64.3688
65.249
65.924
66.407
66.7104
66.8466
66.8272
66.6635
66.3662
65.9457
65.4119
64.7743
64.0417
63.2229
62.3259
61.3584
60.328
59.2413
58.1051
56.9254
55.7082
54.4588
53.1823
51.8835
50.567
49.2368
47.8968
46.5506
45.2014
43.8523
42.5061
41.1654
39.8323
38.509
37.1974
35.8992
34.6158
33.3486
32.0986
30.8669
29.6543
28.4614
27.2887
26.1368
25.0058
23.8959
22.8073
21.7397
20.6932
19.6675
18.6622
17.6771
16.7116
15.7652
14.8373
13.9274
13.0346
12.1583
11.2976
10.4517
9.61982
8.80096
7.99422
7.19863
6.4132
5.63693
4.86877
4.10767
3.35259
2.60244
1.85613
1.11258
0.370675
-93.5373
-81.1542
-69.4089
-58.2884
-47.7786
-37.8647
-28.531
-19.7615
-11.5396
-3.84813
3.33001
10.0124
16.2168
21.961
27.2626
32.1395
36.6091
40.6892
44.3969
47.7494
50.7634
53.4556
55.8421
57.9387
59.761
61.324
62.6423
63.7303
64.6017
65.2701
65.7482
66.0487
66.1836
66.1644
66.0022
65.7079