/*--------------------------------*- C++ -*----------------------------------*\
| =========                 |                                                 |
| \\      /  F ield         | OpenFOAM: The Open Source CFD Toolbox           |
|  \\    /   O peration     | Version:  2406                                  |
|   \\  /    A nd           | Website:  www.openfoam.com                      |
|    \\/     M anipulation  |                                                 |
\*---------------------------------------------------------------------------*/
FoamFile
{
    version     2.0;
    format      ascii;
    arch        "LSB;label=32;scalar=64";
    class       volScalarField;
    location    "145";
    object      gradTx;
}
// * * * * * * * * * * * * * * * * * * * * * * * * * * * * * * * * * * * * * //

dimensions      [0 -1 0 1 0 0 0];

internalField   nonuniform List<scalar> 
20000
(
7.5638
7.18048
6.8047
6.43704
6.07814
5.72817
5.38715
5.0564
4.73599
4.42525
4.12472
3.8349
3.5558
3.28726
3.02916
2.78152
2.54433
2.31753
2.10102
1.89461
1.69814
1.51139
1.33417
1.16626
1.00744
0.857478
0.716126
0.583135
0.458247
0.341199
0.231725
0.129555
0.0344198
-0.0539515
-0.135829
-0.21148
-0.281172
-0.345168
-0.403729
-0.457109
-0.505562
-0.549333
-0.588665
-0.623794
-0.65495
-0.682358
-0.706235
-0.726794
-0.744239
-0.75877
-0.770577
-0.779847
-0.786757
-0.79148
-0.794181
-0.795018
-0.794143
-0.791702
-0.787834
-0.782671
-0.776341
-0.768965
-0.760657
-0.751527
-0.741678
-0.731209
-0.720214
-0.70878
-0.69699
-0.684924
-0.672655
-0.660254
-0.647785
-0.635311
-0.622888
-0.610572
-0.598412
-0.586456
-0.574748
-0.563329
-0.552236
-0.541506
-0.53117
-0.521259
-0.5118
-0.50282
-0.494341
-0.486385
-0.47897
-0.472116
-0.465837
-0.460147
-0.455059
-0.450584
-0.446731
-0.443508
-0.440922
-0.438978
-0.43768
-0.43703
22.6895
21.5395
20.4124
19.3097
18.2326
17.1828
16.1606
15.1683
14.2065
13.2744
12.3732
11.5039
10.6666
9.86092
9.08666
8.34382
7.63235
6.95205
6.30256
5.68339
5.09399
4.53379
4.00217
3.49849
3.02207
2.57222
2.1482
1.74926
1.37463
1.02351
0.695118
0.388634
0.103251
-0.161841
-0.407453
-0.634388
-0.843447
-1.03542
-1.21109
-1.37121
-1.51656
-1.64786
-1.76585
-1.87123
-1.96469
-2.04691
-2.11853
-2.1802
-2.23253
-2.27612
-2.31154
-2.33935
-2.36008
-2.37425
-2.38235
-2.38486
-2.38223
-2.37491
-2.36331
-2.34782
-2.32883
-2.3067
-2.28178
-2.25439
-2.22485
-2.19345
-2.16046
-2.12616
-2.0908
-2.0546
-2.0178
-1.9806
-1.9432
-1.90577
-1.86851
-1.83156
-1.79509
-1.75922
-1.7241
-1.68985
-1.65657
-1.62438
-1.59338
-1.56365
-1.53527
-1.50834
-1.4829
-1.45903
-1.43679
-1.41623
-1.39739
-1.38033
-1.36506
-1.35164
-1.34008
-1.33041
-1.32266
-1.31683
-1.31293
-1.31098
37.81
35.8937
34.015
32.1774
30.3824
28.633
26.9303
25.2765
23.6732
22.1201
20.6187
19.1702
17.7748
16.4321
15.1419
13.904
12.7185
11.5849
10.5026
9.47078
8.48861
7.55509
6.66919
5.82985
5.03596
4.28632
3.57974
2.91495
2.29067
1.70557
1.15834
0.647616
0.172057
-0.269691
-0.678976
-1.05714
-1.40551
-1.72542
-2.01814
-2.28498
-2.52718
-2.74599
-2.9426
-3.1182
-3.27394
-3.41095
-3.53031
-3.63307
-3.72028
-3.79291
-3.85193
-3.89827
-3.93282
-3.95643
-3.96993
-3.97411
-3.96974
-3.95753
-3.9382
-3.91239
-3.88075
-3.84388
-3.80235
-3.75671
-3.70748
-3.65514
-3.60018
-3.54302
-3.48409
-3.42378
-3.36245
-3.30045
-3.23813
-3.17577
-3.11367
-3.05211
-2.99132
-2.93156
-2.87303
-2.81595
-2.7605
-2.70686
-2.65519
-2.60565
-2.55837
-2.51348
-2.47109
-2.43132
-2.39426
-2.36
-2.32861
-2.30017
-2.27473
-2.25236
-2.2331
-2.21699
-2.20407
-2.19435
-2.18786
-2.18461
52.9208
50.2391
47.6095
45.0372
42.525
40.0763
37.6932
35.3784
33.1341
30.9605
28.8592
26.8319
24.8787
22.9992
21.1933
19.4608
17.8015
16.2148
14.7
13.2558
11.8811
10.5745
9.33456
8.15978
7.04859
5.99937
5.0104
4.07993
3.20614
2.38721
1.62127
0.906438
0.24082
-0.377474
-0.950332
-1.47963
-1.96723
-2.41499
-2.82471
-3.19819
-3.53719
-3.84344
-4.11862
-4.36441
-4.58239
-4.77415
-4.94121
-5.08505
-5.2071
-5.30877
-5.39138
-5.45623
-5.50458
-5.53763
-5.55652
-5.56238
-5.55626
-5.53918
-5.51211
-5.47599
-5.43171
-5.3801
-5.32197
-5.25809
-5.18918
-5.11594
-5.03901
-4.95901
-4.87652
-4.7921
-4.70626
-4.6195
-4.53226
-4.44498
-4.35806
-4.27189
-4.18682
-4.10317
-4.02125
-3.94135
-3.86375
-3.78867
-3.71635
-3.64701
-3.58083
-3.518
-3.45868
-3.40301
-3.35114
-3.30318
-3.25925
-3.21944
-3.18384
-3.15253
-3.12557
-3.10302
-3.08493
-3.07133
-3.06225
-3.0577
68.0183
64.5717
61.1923
57.886
54.657
51.5098
48.4467
45.4715
42.5869
39.7932
37.0926
34.4869
31.9764
29.5606
27.2394
25.0127
22.8801
20.8408
18.8938
17.0377
15.2707
13.5913
11.9976
10.4877
9.05949
7.71093
6.43982
5.24389
4.12083
3.06826
2.08381
1.16504
0.309523
-0.485165
-1.22145
-1.90176
-2.52847
-3.10396
-3.63057
-4.1106
-4.54631
-4.93993
-5.29363
-5.60953
-5.88971
-6.13617
-6.35089
-6.53577
-6.69265
-6.82331
-6.92949
-7.01285
-7.07499
-7.11747
-7.14175
-7.14928
-7.14141
-7.11946
-7.08467
-7.03825
-6.98133
-6.91499
-6.84028
-6.75818
-6.66961
-6.57547
-6.4766
-6.37377
-6.26775
-6.15925
-6.04892
-5.9374
-5.82527
-5.71309
-5.60138
-5.49063
-5.38128
-5.27376
-5.16848
-5.06579
-4.96604
-4.86954
-4.7766
-4.68747
-4.60241
-4.52166
-4.44541
-4.37386
-4.30719
-4.24555
-4.18908
-4.13792
-4.09216
-4.05192
-4.01727
-3.98829
-3.96504
-3.94755
-3.93588
-3.93004
83.099
78.8882
74.7599
70.7205
66.7756
62.9304
59.1883
55.5534
52.0292
48.6162
45.3169
42.1334
39.0661
36.1147
33.2789
30.5585
27.953
25.4617
23.083
20.8153
18.6566
16.6048
14.6577
12.813
11.0681
9.42059
7.86765
6.40656
5.03449
3.74856
2.54583
1.42335
0.378149
-0.592736
-1.49227
-2.32341
-3.08908
-3.79217
-4.43554
-5.022
-5.55432
-6.03521
-6.46733
-6.85327
-7.19557
-7.49668
-7.75901
-7.98488
-8.17654
-8.33617
-8.46589
-8.56774
-8.64366
-8.69555
-8.72522
-8.73441
-8.7248
-8.69798
-8.65548
-8.59877
-8.52922
-8.44818
-8.35691
-8.2566
-8.1484
-8.03338
-7.91258
-7.78696
-7.65744
-7.52487
-7.39008
-7.25384
-7.11685
-6.9798
-6.84332
-6.70801
-6.57441
-6.44306
-6.31443
-6.18897
-6.0671
-5.94921
-5.83566
-5.72677
-5.62286
-5.5242
-5.43104
-5.34363
-5.26218
-5.18687
-5.11788
-5.05537
-4.99947
-4.95031
-4.90798
-4.87257
-4.84416
-4.8228
-4.80854
-4.8014
98.1593
93.1854
88.3089
83.5375
78.8777
74.3356
69.9153
65.6217
61.4586
57.4271
53.53
49.7695
46.1462
42.6598
39.3101
36.0967
33.0191
30.0762
27.2665
24.5877
22.0378
19.6142
17.3142
15.1352
13.0741
11.1279
9.29353
7.56765
5.94691
4.42792
3.00722
1.68131
0.446682
-0.700161
-1.76273
-2.7445
-3.64893
-4.47944
-5.23941
-5.93216
-6.56096
-7.129
-7.63944
-8.09533
-8.49966
-8.85534
-9.16521
-9.43201
-9.65841
-9.84698
-10.0002
-10.1205
-10.2102
-10.2715
-10.3065
-10.3174
-10.306
-10.2744
-10.2242
-10.1572
-10.075
-9.97929
-9.87147
-9.75298
-9.62517
-9.48931
-9.34662
-9.19823
-9.04523
-8.88864
-8.72942
-8.56848
-8.40667
-8.24478
-8.08357
-7.92373
-7.76593
-7.61077
-7.45882
-7.31063
-7.16668
-7.02742
-6.89329
-6.76466
-6.64192
-6.52537
-6.41534
-6.31208
-6.21587
-6.12691
-6.04542
-5.97158
-5.90555
-5.84748
-5.79748
-5.75565
-5.72209
-5.69686
-5.68002
-5.67158
113.195
107.46
101.836
96.3339
90.9602
85.7224
80.625
75.6737
70.873
66.2239
61.7298
57.3933
53.2149
49.1945
45.3316
41.626
38.0771
34.6834
31.4432
28.3542
25.4136
22.6187
19.9664
17.4536
15.0768
12.8325
10.7171
8.72687
6.85787
5.1062
3.46787
1.93885
0.515104
-0.807414
-2.03275
-3.16491
-4.20788
-5.16561
-6.04199
-6.84086
-7.56598
-8.22104
-8.80966
-9.33538
-9.80165
-10.2118
-10.5692
-10.8768
-11.1379
-11.3554
-11.5321
-11.6708
-11.7742
-11.8449
-11.8853
-11.8978
-11.8847
-11.8482
-11.7903
-11.713
-11.6183
-11.5079
-11.3836
-11.247
-11.0996
-10.9429
-10.7783
-10.6072
-10.4308
-10.2502
-10.0666
-9.88102
-9.69441
-9.50773
-9.32182
-9.1375
-8.95552
-8.7766
-8.60138
-8.43048
-8.26448
-8.10389
-7.94921
-7.80089
-7.65934
-7.52494
-7.39805
-7.27898
-7.16802
-7.06544
-6.97147
-6.88632
-6.81017
-6.7432
-6.68554
-6.63731
-6.59861
-6.56952
-6.55009
-6.54037
128.204
121.707
115.338
109.107
103.02
97.088
91.3149
85.7071
80.2698
75.0044
69.9144
65.0029
60.2705
55.7169
51.3419
47.1451
43.1256
39.282
35.6122
32.1136
28.7831
25.6177
22.6137
19.7677
17.0757
14.5339
12.1381
9.88393
7.76713
5.78321
3.92766
2.19591
0.583399
-0.914468
-2.30226
-3.58453
-4.76579
-5.85051
-6.84309
-7.74787
-8.56913
-9.31104
-9.97771
-10.5731
-11.1012
-11.5658
-11.9705
-12.3189
-12.6146
-12.8609
-13.0611
-13.2182
-13.3353
-13.4154
-13.4611
-13.4753
-13.4605
-13.4191
-13.3536
-13.266
-13.1588
-13.0337
-12.8929
-12.7382
-12.5712
-12.3938
-12.2074
-12.0136
-11.8138
-11.6093
-11.4013
-11.1911
-10.9798
-10.7683
-10.5578
-10.349
-10.1429
-9.94026
-9.74181
-9.54826
-9.36024
-9.17836
-9.00317
-8.83518
-8.67486
-8.52265
-8.37893
-8.24408
-8.11841
-8.00223
-7.89579
-7.79935
-7.71312
-7.63726
-7.57196
-7.51733
-7.4735
-7.44055
-7.41855
-7.40753
143.18
135.925
128.812
121.852
115.055
108.43
101.982
95.7194
89.6468
83.7663
78.0818
72.5965
67.3112
62.2257
57.3396
52.6525
48.1635
43.871
39.7725
35.8651
32.1456
28.6103
25.2554
22.0769
19.0705
16.2317
13.556
11.0386
8.67447
6.4588
4.38648
2.45244
0.651549
-1.0213
-2.57121
-4.00327
-5.32253
-6.53396
-7.64249
-8.65297
-9.57016
-10.3987
-11.1433
-11.8083
-12.3981
-12.9169
-13.3689
-13.758
-14.0883
-14.3633
-14.5868
-14.7623
-14.8931
-14.9825
-15.0337
-15.0495
-15.0329
-14.9867
-14.9135
-14.8158
-14.696
-14.5563
-14.399
-14.2262
-14.0398
-13.8416
-13.6335
-13.417
-13.1939
-12.9654
-12.7332
-12.4984
-12.2624
-12.0263
-11.7911
-11.558
-11.3278
-11.1015
-10.8798
-10.6637
-10.4537
-10.2506
-10.0549
-9.8673
-9.68825
-9.51826
-9.35775
-9.20714
-9.06679
-8.93704
-8.81817
-8.71047
-8.61415
-8.52944
-8.45651
-8.3955
-8.34655
-8.30975
-8.28517
-8.27287
158.122
150.109
142.254
134.568
127.061
119.745
112.624
105.708
99.0017
92.5075
86.2299
80.1721
74.3353
68.7191
63.3231
58.147
53.1896
48.4491
43.9229
39.6077
35.5001
31.5959
27.8909
24.3807
21.0606
17.9256
14.9706
12.1905
9.57968
7.13279
4.84422
2.70835
0.719538
-1.12787
-2.83953
-4.42103
-5.87795
-7.2158
-8.44001
-9.55593
-10.5688
-11.4839
-12.3061
-13.0405
-13.6918
-14.2648
-14.7639
-15.1937
-15.5584
-15.8622
-16.109
-16.3028
-16.4473
-16.546
-16.6025
-16.62
-16.6017
-16.5506
-16.4698
-16.3618
-16.2295
-16.0753
-15.9016
-15.7108
-15.5049
-15.286
-15.0562
-14.8171
-14.5707
-14.3184
-14.062
-13.8027
-13.542
-13.2812
-13.0216
-12.7641
-12.5099
-12.2599
-12.0152
-11.7765
-11.5446
-11.3202
-11.1042
-10.897
-10.6993
-10.5115
-10.3343
-10.1679
-10.0129
-9.86964
-9.73838
-9.61943
-9.51307
-9.41951
-9.33897
-9.27159
-9.21753
-9.17689
-9.14976
-9.13617
173.024
164.257
155.661
147.25
139.036
131.03
123.239
115.671
108.332
101.226
94.3567
87.728
81.341
75.1955
69.2911
63.6271
58.2025
53.0152
48.0624
43.3406
38.8458
34.5736
30.5195
26.6785
23.0454
19.615
16.3815
13.3393
10.4825
7.80502
5.30076
2.9636
0.787349
-1.23417
-3.10714
-4.8377
-6.43192
-7.89586
-9.23544
-10.4565
-11.5649
-12.5662
-13.4659
-14.2695
-14.9822
-15.6092
-16.1554
-16.6257
-17.0247
-17.3571
-17.6272
-17.8393
-17.9973
-18.1054
-18.1672
-18.1863
-18.1663
-18.1105
-18.022
-17.9039
-17.7591
-17.5903
-17.4003
-17.1914
-16.9661
-16.7267
-16.4751
-16.2136
-15.9439
-15.6679
-15.3872
-15.1035
-14.8183
-14.533
-14.2488
-13.967
-13.6889
-13.4154
-13.1476
-12.8863
-12.6326
-12.3871
-12.1507
-11.924
-11.7076
-11.5022
-11.3082
-11.1262
-10.9566
-10.7998
-10.6562
-10.526
-10.4096
-10.3073
-10.2191
-10.1454
-10.0862
-10.0418
-10.0121
-9.99722
187.884
178.363
169.029
159.896
150.977
142.283
133.823
125.605
117.636
109.919
102.46
95.2622
88.3267
81.6534
75.2419
69.0915
63.2011
57.5683
52.1902
47.0628
42.182
37.5429
33.1406
28.9697
25.0246
21.2995
17.7884
14.4849
11.3828
8.47532
5.756
3.21811
0.854965
-1.34017
-3.37399
-5.25317
-6.98431
-8.57397
-10.0286
-11.3546
-12.5581
-13.6454
-14.6224
-15.495
-16.2689
-16.9497
-17.5428
-18.0535
-18.4869
-18.8478
-19.1411
-19.3713
-19.543
-19.6603
-19.7274
-19.7482
-19.7265
-19.6658
-19.5697
-19.4415
-19.2843
-19.101
-18.8947
-18.6679
-18.4232
-18.1632
-17.8901
-17.606
-17.3132
-17.0135
-16.7087
-16.4007
-16.0909
-15.7811
-15.4725
-15.1666
-14.8645
-14.5675
-14.2767
-13.993
-13.7175
-13.451
-13.1942
-12.948
-12.7131
-12.49
-12.2794
-12.0818
-11.8976
-11.7273
-11.5713
-11.43
-11.3036
-11.1925
-11.0968
-11.0167
-10.9525
-10.9042
-10.8719
-10.8558
202.697
192.426
182.356
172.503
162.881
153.501
144.374
135.508
126.911
118.586
110.538
102.773
95.2906
88.0911
81.1741
74.5389
68.184
62.1072
56.305
50.7734
45.5077
40.5029
35.7534
31.2537
26.9976
22.9788
19.1909
15.627
12.2802
9.14353
6.20981
3.47184
0.922369
-1.44584
-3.64001
-5.66734
-7.53497
-9.24996
-10.8193
-12.2498
-13.5482
-14.7212
-15.7753
-16.7167
-17.5516
-18.2861
-18.926
-19.4769
-19.9444
-20.3338
-20.6502
-20.8986
-21.0838
-21.2104
-21.2828
-21.3052
-21.2817
-21.2163
-21.1127
-20.9743
-20.8047
-20.607
-20.3844
-20.1397
-19.8758
-19.5952
-19.3006
-18.9941
-18.6782
-18.3549
-18.0261
-17.6937
-17.3596
-17.0253
-16.6924
-16.3623
-16.0365
-15.7161
-15.4023
-15.0963
-14.799
-14.5115
-14.2345
-13.9689
-13.7154
-13.4748
-13.2475
-13.0343
-12.8356
-12.6519
-12.4837
-12.3312
-12.1948
-12.0749
-11.9717
-11.8853
-11.816
-11.7639
-11.7291
-11.7117
217.46
206.441
195.638
185.067
174.744
164.681
154.889
145.377
136.154
127.223
118.589
110.258
102.231
94.5071
87.0864
79.9679
73.1502
66.6307
60.406
54.4715
48.8222
43.4529
38.3575
33.53
28.9639
24.6525
20.5886
16.7651
13.1746
9.80949
6.66209
3.7247
0.989545
-1.55114
-3.90513
-6.08012
-8.08378
-9.92368
-11.6073
-13.142
-14.535
-15.7935
-16.9243
-17.9342
-18.83
-19.6179
-20.3044
-20.8955
-21.397
-21.8148
-22.1543
-22.4208
-22.6194
-22.7552
-22.8329
-22.8569
-22.8318
-22.7616
-22.6504
-22.502
-22.32
-22.1079
-21.869
-21.6065
-21.3234
-21.0224
-20.7063
-20.3776
-20.0386
-19.6917
-19.339
-18.9824
-18.6239
-18.2653
-17.9082
-17.5541
-17.2045
-16.8607
-16.5241
-16.1958
-15.8769
-15.5684
-15.2712
-14.9863
-14.7144
-14.4562
-14.2124
-13.9837
-13.7705
-13.5734
-13.3929
-13.2293
-13.083
-12.9544
-12.8436
-12.7509
-12.6766
-12.6207
-12.5834
-12.5647
232.17
220.405
208.871
197.586
186.564
175.821
165.366
155.211
145.364
135.828
126.611
117.716
109.146
100.9
92.9771
85.3771
78.0983
71.1379
64.492
58.1561
52.1247
46.3921
40.9521
35.7981
30.9231
26.32
21.9813
17.8992
14.0658
10.473
7.11273
3.97664
1.05648
-1.65607
-4.16928
-6.4914
-8.63059
-10.5949
-12.3924
-14.031
-15.5182
-16.8618
-18.0691
-19.1473
-20.1037
-20.945
-21.6779
-22.3089
-22.8444
-23.2904
-23.6528
-23.9374
-24.1495
-24.2944
-24.3773
-24.403
-24.3762
-24.3012
-24.1825
-24.024
-23.8298
-23.6033
-23.3483
-23.0681
-22.7658
-22.4444
-22.1069
-21.756
-21.3941
-21.0237
-20.6471
-20.2665
-19.8837
-19.5008
-19.1195
-18.7415
-18.3682
-18.0012
-17.6419
-17.2913
-16.9509
-16.6215
-16.3042
-16
-15.7097
-15.434
-15.1738
-14.9295
-14.702
-14.4916
-14.2988
-14.1242
-13.968
-13.8306
-13.7124
-13.6135
-13.5341
-13.4744
-13.4346
-13.4146
246.822
234.315
222.053
210.055
198.338
186.917
175.802
165.006
154.538
144.401
134.602
125.146
116.034
107.268
98.8449
90.7653
83.0271
75.6274
68.5621
61.8263
55.4143
49.3199
43.5366
38.0573
32.8747
27.9811
23.3685
19.0288
14.9535
11.134
7.56161
4.22761
1.12315
-1.76059
-4.43241
-6.90108
-9.17527
-11.2636
-13.1745
-14.9165
-16.4976
-17.9259
-19.2094
-20.3557
-21.3724
-22.2668
-23.046
-23.7168
-24.2861
-24.7603
-25.1456
-25.448
-25.6736
-25.8277
-25.9158
-25.9431
-25.9146
-25.8349
-25.7087
-25.5402
-25.3337
-25.0929
-24.8218
-24.5239
-24.2025
-23.8609
-23.5021
-23.129
-22.7443
-22.3505
-21.9502
-21.5455
-21.1386
-20.7315
-20.3261
-19.9242
-19.5274
-19.1373
-18.7552
-18.3826
-18.0206
-17.6705
-17.3332
-17.0098
-16.7011
-16.4081
-16.1314
-15.8718
-15.6298
-15.4061
-15.2012
-15.0156
-14.8495
-14.7035
-14.5778
-14.4726
-14.3882
-14.3248
-14.2824
-14.2612
261.413
248.167
235.18
222.473
210.063
197.967
186.195
174.761
163.673
152.937
142.559
132.544
122.894
113.609
104.688
96.1311
87.9355
80.0983
72.6154
65.4813
58.6903
52.2356
46.1103
40.3071
34.8181
29.6352
24.75
20.1537
15.8375
11.7922
8.00862
4.47752
1.18954
-1.86468
-4.69445
-7.30905
-9.71769
-11.9295
-13.9534
-15.7983
-17.4729
-18.9856
-20.345
-21.5591
-22.6359
-23.5831
-24.4084
-25.1189
-25.7218
-26.224
-26.6321
-26.9525
-27.1913
-27.3545
-27.4479
-27.4768
-27.4466
-27.3622
-27.2285
-27.0501
-26.8313
-26.5764
-26.2892
-25.9737
-25.6333
-25.2715
-24.8915
-24.4963
-24.0888
-23.6718
-23.2478
-22.8192
-22.3882
-21.9571
-21.5278
-21.1021
-20.6818
-20.2686
-19.864
-19.4693
-19.086
-18.7151
-18.3579
-18.0153
-17.6884
-17.3781
-17.085
-16.81
-16.5538
-16.3169
-16.0999
-15.9032
-15.7274
-15.5727
-15.4396
-15.3282
-15.2388
-15.1716
-15.1268
-15.1043
275.94
261.958
248.249
234.836
221.737
208.968
196.542
184.472
172.769
161.436
150.481
139.909
129.723
119.922
110.506
101.473
92.8221
84.5495
76.6507
69.1202
61.9517
55.1383
48.6727
42.547
36.753
31.2821
26.1253
21.2736
16.7176
12.4475
8.45366
4.72634
1.25564
-1.9683
-4.95532
-7.71522
-10.2577
-12.5924
-14.7288
-16.6762
-18.4438
-20.0407
-21.4756
-22.7572
-23.8938
-24.8937
-25.7648
-26.5148
-27.1512
-27.6813
-28.1121
-28.4502
-28.7023
-28.8746
-28.9732
-29.0037
-28.9718
-28.8827
-28.7416
-28.5533
-28.3223
-28.0532
-27.7501
-27.4171
-27.0578
-26.6758
-26.2747
-25.8576
-25.4275
-24.9873
-24.5397
-24.0873
-23.6324
-23.1773
-22.7241
-22.2748
-21.8311
-21.395
-20.9678
-20.5512
-20.1466
-19.7551
-19.378
-19.0165
-18.6714
-18.3438
-18.0344
-17.7442
-17.4737
-17.2236
-16.9946
-16.787
-16.6014
-16.4381
-16.2975
-16.18
-16.0856
-16.0147
-15.9674
-15.9436
290.399
275.684
261.257
247.141
233.355
219.917
206.841
194.139
181.822
169.895
158.366
147.24
136.521
126.206
116.296
106.79
97.6859
88.9797
80.6671
72.742
65.1979
58.0275
51.2231
44.7764
38.6787
32.9212
27.4943
22.3883
17.5935
13.0997
8.89661
4.97399
1.32143
-2.07144
-5.21498
-8.11949
-10.7952
-13.2522
-15.5005
-17.55
-19.4103
-21.0908
-22.6009
-23.9496
-25.1458
-26.1981
-27.1148
-27.9041
-28.5739
-29.1318
-29.5851
-29.941
-30.2063
-30.3876
-30.4913
-30.5234
-30.4899
-30.3961
-30.2476
-30.0494
-29.8064
-29.5232
-29.2042
-28.8537
-28.4755
-28.0736
-27.6515
-27.2125
-26.7598
-26.2966
-25.8255
-25.3494
-24.8707
-24.3917
-23.9148
-23.4419
-22.9751
-22.516
-22.0665
-21.6281
-21.2022
-20.7902
-20.3934
-20.0129
-19.6497
-19.305
-18.9794
-18.674
-18.3893
-18.1261
-17.885
-17.6666
-17.4713
-17.2994
-17.1515
-17.0278
-16.9285
-16.8539
-16.804
-16.7791
304.786
289.342
274.2
259.385
244.916
230.813
217.088
203.757
190.83
178.312
166.212
154.535
143.284
132.459
122.058
112.081
102.526
93.3881
84.6635
76.3458
68.428
60.9023
53.7608
46.9947
40.595
34.5522
28.8564
23.4975
18.4651
13.7487
9.33737
5.2204
1.38689
-2.17407
-5.47335
-8.52176
-11.33
-13.9088
-16.2685
-18.4195
-20.3719
-22.1357
-23.7206
-25.1361
-26.3916
-27.496
-28.4581
-29.2865
-29.9895
-30.575
-31.0508
-31.4243
-31.7028
-31.8931
-32.0019
-32.0357
-32.0004
-31.902
-31.7462
-31.5381
-31.2831
-30.9858
-30.6511
-30.2831
-29.8863
-29.4644
-29.0214
-28.5606
-28.0856
-27.5994
-27.105
-26.6053
-26.1028
-25.6002
-25.0996
-24.6033
-24.1133
-23.6315
-23.1598
-22.6996
-22.2526
-21.8202
-21.4037
-21.0044
-20.6232
-20.2614
-19.9197
-19.5991
-19.3004
-19.0241
-18.7711
-18.5418
-18.3368
-18.1565
-18.0012
-17.8714
-17.7672
-17.6888
-17.6365
-17.6103
319.098
302.929
287.076
271.565
256.417
241.651
227.282
213.325
199.79
186.685
174.017
161.792
150.012
138.678
127.789
117.344
107.34
97.7733
88.6391
79.9308
71.6412
63.7621
56.2852
49.2014
42.5012
36.1746
30.2114
24.6009
19.3322
14.3943
9.77582
5.46554
1.45201
-2.27616
-5.73036
-8.92192
-11.8621
-14.5619
-17.0324
-19.2844
-21.3285
-23.1751
-24.8345
-26.3165
-27.6309
-28.7871
-29.7944
-30.6618
-31.3977
-32.0107
-32.5089
-32.8999
-33.1915
-33.3907
-33.5047
-33.54
-33.5031
-33.4001
-33.2369
-33.0191
-32.752
-32.4408
-32.0903
-31.7052
-31.2897
-30.848
-30.3841
-29.9018
-29.4044
-28.8954
-28.3778
-27.8546
-27.3285
-26.8023
-26.2782
-25.7586
-25.2456
-24.7412
-24.2473
-23.7655
-23.2976
-22.8449
-22.4088
-21.9907
-21.5917
-21.2128
-20.8551
-20.5194
-20.2066
-19.9175
-19.6526
-19.4125
-19.1979
-19.0091
-18.8465
-18.7106
-18.6015
-18.5195
-18.4647
-18.4373
333.331
316.441
299.881
283.678
267.854
252.43
237.42
222.84
208.702
195.012
181.779
169.008
156.704
144.864
133.489
122.578
112.128
102.135
92.5929
83.4961
74.8367
66.6062
58.7958
51.396
44.3969
37.7882
31.559
25.6982
20.1945
15.0363
10.2119
5.70932
1.51677
-2.37769
-5.98597
-9.31988
-12.3912
-15.2114
-17.7921
-20.1446
-22.2799
-24.2088
-25.9422
-27.4903
-28.8633
-30.0712
-31.1234
-32.0294
-32.7982
-33.4386
-33.9589
-34.3674
-34.672
-34.8801
-34.9991
-35.036
-34.9974
-34.8899
-34.7194
-34.4919
-34.2129
-33.8878
-33.5217
-33.1194
-32.6853
-32.224
-31.7394
-31.2355
-30.716
-30.1842
-29.6435
-29.097
-28.5475
-27.9978
-27.4503
-26.9075
-26.3717
-25.8448
-25.3288
-24.8256
-24.3367
-23.8638
-23.4083
-22.9716
-22.5547
-22.159
-21.7853
-21.4347
-21.108
-20.8059
-20.5292
-20.2784
-20.0542
-19.857
-19.6872
-19.5451
-19.4312
-19.3455
-19.2883
-19.2597
347.482
329.875
312.612
295.721
279.226
263.146
247.499
232.3
217.562
203.291
189.496
176.183
163.356
151.014
139.156
127.782
116.888
106.47
96.5237
87.0408
78.0137
69.4339
61.2919
53.5779
46.2817
39.3924
32.8987
26.7892
21.0518
15.6746
10.6454
5.95169
1.58116
-2.47864
-6.2401
-9.71554
-12.9172
-15.8572
-18.5475
-20.9998
-23.2257
-25.2366
-27.0435
-28.6573
-30.0887
-31.3478
-32.4447
-33.3892
-34.1906
-34.8581
-35.4006
-35.8264
-36.1439
-36.3609
-36.4849
-36.5234
-36.4832
-36.371
-36.1933
-35.9562
-35.6654
-35.3265
-34.9448
-34.5254
-34.0729
-33.592
-33.0869
-32.5616
-32.02
-31.4656
-30.902
-30.3323
-29.7594
-29.1864
-28.6157
-28.0499
-27.4912
-26.942
-26.4041
-25.8795
-25.3699
-24.8769
-24.4021
-23.9468
-23.5123
-23.0997
-22.7102
-22.3447
-22.0041
-21.6891
-21.4007
-21.1393
-20.9055
-20.7
-20.523
-20.3749
-20.2561
-20.1668
-20.1072
-20.0773
361.547
343.227
325.266
307.691
290.528
273.798
257.517
241.703
226.368
211.52
197.166
183.315
169.968
157.127
144.789
132.954
121.619
110.78
100.431
90.564
81.1715
72.2444
63.7728
55.7466
48.1551
40.9869
34.2304
27.8735
21.9039
16.3091
11.0763
6.19259
1.64515
-2.57897
-6.49268
-10.1088
-13.4401
-16.4991
-19.2982
-21.8498
-24.1658
-26.2581
-28.1382
-29.8173
-31.3066
-32.6167
-33.758
-34.7407
-35.5746
-36.2691
-36.8335
-37.2766
-37.6069
-37.8327
-37.9618
-38.0018
-37.9599
-37.8433
-37.6583
-37.4116
-37.109
-36.7564
-36.3593
-35.9229
-35.4521
-34.9517
-34.4261
-33.8796
-33.316
-32.7393
-32.1528
-31.56
-30.964
-30.3678
-29.774
-29.1852
-28.604
-28.0325
-27.4729
-26.927
-26.3968
-25.8839
-25.3898
-24.9161
-24.464
-24.0347
-23.6294
-23.2491
-22.8947
-22.5671
-22.2669
-21.995
-21.7518
-21.5378
-21.3537
-21.1996
-21.076
-20.9831
-20.921
-20.89
375.524
356.495
337.839
319.585
301.759
284.382
267.472
251.046
235.119
219.696
204.788
190.401
176.539
163.201
150.386
138.094
126.321
115.063
104.313
94.0649
84.3093
75.0371
66.238
57.9016
50.0166
42.5713
35.5536
28.951
22.7506
16.9395
11.5044
6.43197
1.70874
-2.67867
-6.74367
-10.4996
-13.9596
-17.1369
-20.0442
-22.6944
-25.1
-27.2731
-29.2259
-30.9699
-32.5168
-33.8775
-35.0629
-36.0836
-36.9497
-37.6711
-38.2573
-38.7176
-39.0606
-39.2951
-39.4292
-39.4708
-39.4273
-39.3061
-39.1141
-38.8578
-38.5435
-38.1773
-37.7648
-37.3115
-36.8226
-36.3028
-35.7569
-35.1892
-34.6039
-34.0049
-33.3957
-32.78
-32.161
-31.5417
-30.9249
-30.3134
-29.7097
-29.1161
-28.5349
-27.9679
-27.4172
-26.8845
-26.3713
-25.8793
-25.4097
-24.9638
-24.5428
-24.1478
-23.7797
-23.4394
-23.1277
-22.8452
-22.5926
-22.3704
-22.1791
-22.0191
-21.8907
-21.7942
-21.7298
-21.6975
389.407
369.675
350.329
331.401
312.915
294.896
277.361
260.328
243.811
227.818
212.359
197.44
183.066
169.234
155.946
143.199
130.991
119.316
108.17
97.5425
87.4263
77.8112
68.6869
60.0422
51.8657
44.1452
36.868
30.0213
23.5917
17.5658
11.9298
6.66976
1.77191
-2.77771
-6.99299
-10.8878
-14.4757
-17.7704
-20.7853
-23.5335
-26.028
-28.2815
-30.3064
-32.1149
-33.7189
-35.13
-36.3592
-37.4177
-38.3158
-39.0639
-39.6717
-40.149
-40.5047
-40.7479
-40.8869
-40.93
-40.885
-40.7593
-40.5601
-40.2944
-39.9685
-39.5887
-39.161
-38.6909
-38.1839
-37.6449
-37.0789
-36.4902
-35.8832
-35.262
-34.6304
-33.9919
-33.35
-32.7078
-32.0682
-31.4341
-30.8081
-30.1926
-29.5898
-29.0019
-28.4308
-27.8784
-27.3463
-26.836
-26.3491
-25.8867
-25.4502
-25.0406
-24.6589
-24.306
-23.9827
-23.6898
-23.4279
-23.1975
-22.9991
-22.8332
-22.7001
-22.6
-22.5331
-22.4997
403.194
382.764
362.733
343.134
323.994
305.337
287.181
269.545
252.444
235.885
219.878
204.431
189.547
175.226
161.467
148.269
135.629
123.541
111.999
100.996
90.5217
80.5662
71.1188
62.1681
53.702
45.7081
38.1733
31.0842
24.427
18.1877
12.3521
6.9059
1.83464
-2.87606
-7.24059
-11.2733
-14.9882
-18.3996
-21.5212
-24.3667
-26.9495
-29.2828
-31.3794
-33.252
-34.9128
-36.3738
-37.6466
-38.7425
-39.6724
-40.447
-41.0764
-41.5705
-41.9388
-42.1906
-42.3346
-42.3792
-42.3325
-42.2024
-41.9962
-41.721
-41.3836
-40.9904
-40.5475
-40.0608
-39.5358
-38.9778
-38.3917
-37.7822
-37.1537
-36.5105
-35.8565
-35.1954
-34.5308
-33.8658
-33.2036
-32.5471
-31.8989
-31.2616
-30.6375
-30.0288
-29.4375
-28.8655
-28.3145
-27.7862
-27.282
-26.8033
-26.3513
-25.9272
-25.532
-25.1666
-24.8319
-24.5286
-24.2573
-24.0188
-23.8134
-23.6416
-23.5038
-23.4001
-23.3309
-23.2963
416.882
395.758
375.047
354.783
334.993
315.702
296.93
278.695
261.014
243.893
227.342
211.371
195.982
181.175
166.949
153.303
140.233
127.735
115.802
104.425
93.5948
83.3013
73.5331
64.2786
55.5251
47.2599
39.4693
32.1395
25.2563
18.8052
12.7715
7.14034
1.89692
-2.9737
-7.4864
-11.656
-15.4971
-19.0243
-22.2518
-25.1939
-27.8644
-30.2769
-32.4447
-34.3808
-36.098
-37.6086
-38.9246
-40.0577
-41.0192
-41.8201
-42.4708
-42.9817
-43.3626
-43.6229
-43.7718
-43.8179
-43.7697
-43.6351
-43.4219
-43.1374
-42.7885
-42.382
-41.9241
-41.4208
-40.878
-40.301
-39.695
-39.0648
-38.415
-37.75
-37.0738
-36.3903
-35.7031
-35.0155
-34.3308
-33.652
-32.9818
-32.3229
-31.6776
-31.0482
-30.4368
-29.8454
-29.2757
-28.7295
-28.2082
-27.7132
-27.2459
-26.8074
-26.3987
-26.0209
-25.6749
-25.3613
-25.0808
-24.8342
-24.6218
-24.4442
-24.3017
-24.1945
-24.123
-24.0872
430.467
408.654
387.269
366.345
345.909
325.99
306.606
287.777
269.519
251.84
234.751
218.259
202.368
187.079
172.389
158.298
144.803
131.898
119.575
107.828
96.6448
86.0158
75.9294
66.3732
57.3345
48.7999
40.7554
33.1868
26.0793
19.418
13.1876
7.37302
1.95873
-3.07061
-7.73036
-12.0358
-16.0021
-19.6442
-22.977
-26.0149
-28.7724
-31.2635
-33.502
-35.5012
-37.2744
-38.8342
-40.1931
-41.3631
-42.3559
-43.1829
-43.8548
-44.3824
-44.7757
-45.0445
-45.1982
-45.2458
-45.196
-45.0571
-44.8369
-44.5431
-44.1829
-43.7631
-43.2902
-42.7706
-42.2101
-41.6143
-40.9886
-40.3378
-39.6669
-38.9802
-38.2819
-37.5761
-36.8665
-36.1566
-35.4496
-34.7486
-34.0566
-33.3762
-32.7098
-32.06
-31.4287
-30.818
-30.2297
-29.6657
-29.1274
-28.6163
-28.1337
-27.6809
-27.259
-26.8689
-26.5115
-26.1877
-25.8981
-25.6435
-25.4242
-25.2408
-25.0936
-24.983
-24.9091
-24.8721
443.946
421.45
399.395
377.815
356.741
336.198
316.207
296.788
277.959
259.726
242.101
225.093
208.705
192.937
177.787
163.255
149.337
136.028
123.319
111.204
99.6709
88.7091
78.3069
68.4515
59.1298
50.3279
42.0316
34.2259
26.8959
20.026
13.6006
7.60388
2.02006
-3.16676
-7.97242
-12.4127
-16.5031
-20.2593
-23.6964
-26.8295
-29.6733
-32.2424
-34.551
-36.6128
-38.4415
-40.0501
-41.4516
-42.6582
-43.6822
-44.535
-45.228
-45.7721
-46.1777
-46.4549
-46.6134
-46.6625
-46.6112
-46.4679
-46.2408
-45.9378
-45.5663
-45.1334
-44.6457
-44.1098
-43.5318
-42.9173
-42.272
-41.6009
-40.9089
-40.2007
-39.4806
-38.7527
-38.0209
-37.2887
-36.5596
-35.8367
-35.123
-34.4212
-33.7341
-33.0638
-32.4127
-31.7829
-31.1763
-30.5946
-30.0394
-29.5123
-29.0147
-28.5477
-28.1125
-27.7102
-27.3417
-27.0077
-26.7091
-26.4464
-26.2203
-26.0311
-25.8793
-25.7652
-25.689
-25.6509
457.315
434.142
411.423
389.193
367.484
346.322
325.729
305.726
286.329
267.547
249.392
231.872
214.99
198.747
183.141
168.171
153.834
140.124
127.033
114.553
102.672
91.3806
80.665
70.5128
60.9104
51.8435
43.2973
35.2566
27.7058
20.629
14.0101
7.83286
2.08089
-3.26213
-8.21251
-12.7865
-17.0001
-20.8694
-24.41
-27.6375
-30.5669
-33.2134
-35.5915
-37.7154
-39.5991
-41.2562
-42.6999
-43.9429
-44.9976
-45.8761
-46.59
-47.1505
-47.5683
-47.8538
-48.0171
-48.0677
-48.0148
-47.8672
-47.6334
-47.3212
-46.9385
-46.4925
-45.9902
-45.4382
-44.8427
-44.2098
-43.545
-42.8537
-42.1409
-41.4113
-40.6695
-39.9197
-39.1658
-38.4116
-37.6605
-36.9159
-36.1807
-35.4578
-34.7499
-34.0595
-33.3888
-32.7401
-32.1151
-31.5159
-30.944
-30.4011
-29.8884
-29.4074
-28.9591
-28.5447
-28.165
-27.821
-27.5134
-27.2428
-27.0099
-26.815
-26.6587
-26.5411
-26.4626
-26.4234
470.571
446.727
423.349
400.475
378.136
356.361
335.171
314.588
294.629
275.303
256.621
238.593
221.222
204.508
188.45
173.046
158.293
144.186
130.716
117.873
105.649
94.0294
83.0033
72.5568
62.676
53.3463
44.5524
36.2786
28.5089
21.227
14.4162
8.05991
2.1412
-3.3567
-8.45057
-13.1571
-17.4929
-21.4744
-25.1176
-28.4386
-31.453
-34.1762
-36.6232
-38.8087
-40.747
-42.4521
-43.9376
-45.2167
-46.302
-47.206
-47.9405
-48.5172
-48.9472
-49.241
-49.409
-49.4611
-49.4067
-49.2548
-49.0141
-48.6929
-48.2991
-47.8402
-47.3233
-46.7553
-46.1426
-45.4913
-44.8072
-44.0959
-43.3624
-42.6117
-41.8484
-41.0769
-40.3012
-39.5251
-38.7522
-37.986
-37.2295
-36.4857
-35.7572
-35.0468
-34.3567
-33.6891
-33.0461
-32.4295
-31.841
-31.2823
-30.7548
-30.2598
-29.7986
-29.3721
-28.9815
-28.6275
-28.3109
-28.0325
-27.7928
-27.5923
-27.4314
-27.3105
-27.2297
-27.1893
483.712
459.201
435.171
411.658
388.695
366.312
344.53
323.373
302.856
282.99
263.787
245.256
227.399
210.219
193.712
177.878
162.714
148.212
134.366
121.165
108.599
96.6551
85.3211
74.5829
64.4262
54.8359
45.7965
37.2917
29.305
21.8198
14.8188
8.28497
2.20099
-3.45043
-8.68655
-13.5245
-17.9814
-22.074
-25.819
-29.2327
-32.3313
-35.1305
-37.6458
-39.8924
-41.8848
-43.6376
-45.1645
-46.4793
-47.5949
-48.5241
-49.2792
-49.872
-50.314
-50.616
-50.7887
-50.8422
-50.7863
-50.6302
-50.3828
-50.0526
-49.6478
-49.1761
-48.6448
-48.0609
-47.4311
-46.7616
-46.0584
-45.3272
-44.5733
-43.8016
-43.017
-42.2239
-41.4265
-40.6288
-39.8343
-39.0467
-38.2691
-37.5045
-36.7557
-36.0255
-35.3161
-34.6298
-33.9689
-33.335
-32.7302
-32.1559
-31.6136
-31.1048
-30.6307