/*--------------------------------*- C++ -*----------------------------------*\
| =========                 |                                                 |
| \\      /  F ield         | OpenFOAM: The Open Source CFD Toolbox           |
|  \\    /   O peration     | Version:  2406                                  |
|   \\  /    A nd           | Website:  www.openfoam.com                      |
|    \\/     M anipulation  |                                                 |
\*---------------------------------------------------------------------------*/
FoamFile
{
    version     2.0;
    format      ascii;
    arch        "LSB;label=32;scalar=64";
    class       volScalarField;
    location    "75";
    object      gradTx;
}
// * * * * * * * * * * * * * * * * * * * * * * * * * * * * * * * * * * * * * //

dimensions      [0 -1 0 1 0 0 0];

internalField   nonuniform List<scalar> 
20000
(
-5.55307
-5.53663
-5.49071
-5.41927
-5.32624
-5.21372
-5.08463
-4.94248
-4.78947
-4.6275
-4.45855
-4.28451
-4.10712
-3.92786
-3.74804
-3.5688
-3.39115
-3.21595
-3.04396
-2.87583
-2.71212
-2.55327
-2.39964
-2.25154
-2.10917
-1.9727
-1.84221
-1.71775
-1.59933
-1.48691
-1.38042
-1.27975
-1.18477
-1.09535
-1.01132
-0.932489
-0.858676
-0.789679
-0.725296
-0.665315
-0.609529
-0.557725
-0.509694
-0.46523
-0.424131
-0.386197
-0.351236
-0.319062
-0.289494
-0.262359
-0.237491
-0.214733
-0.193933
-0.174948
-0.157642
-0.141888
-0.127566
-0.114561
-0.102768
-0.0920866
-0.0824249
-0.0736962
-0.0658201
-0.0587221
-0.0523329
-0.0465888
-0.0414309
-0.0368049
-0.0326607
-0.0289527
-0.0256389
-0.0226807
-0.0200432
-0.0176943
-0.015605
-0.0137486
-0.0121013
-0.0106412
-0.00934864
-0.00820582
-0.00719671
-0.00630688
-0.00552335
-0.0048345
-0.00422991
-0.0037003
-0.00323738
-0.00283379
-0.00248303
-0.00217933
-0.00191767
-0.00169362
-0.00150338
-0.00134365
-0.00121165
-0.00110507
-0.001022
-0.000960971
-0.000920881
-0.000901007
-16.6576
-16.6082
-16.4711
-16.2569
-15.977
-15.6395
-15.2528
-14.8264
-14.3673
-13.8813
-13.3745
-12.8524
-12.3203
-11.7826
-11.2432
-10.7055
-10.1726
-9.64705
-9.13113
-8.62679
-8.13569
-7.65917
-7.19834
-6.75407
-6.327
-5.9176
-5.52616
-5.15283
-4.7976
-4.46036
-4.14091
-3.83892
-3.55403
-3.28579
-3.0337
-2.79724
-2.57581
-2.36884
-2.17571
-1.99578
-1.82844
-1.67304
-1.52896
-1.39558
-1.27229
-1.15849
-1.05362
-0.957106
-0.868409
-0.787011
-0.712415
-0.644145
-0.58175
-0.524799
-0.472887
-0.42563
-0.382666
-0.343654
-0.308277
-0.276237
-0.247254
-0.22107
-0.197444
-0.176152
-0.156986
-0.139755
-0.124283
-0.110405
-0.0979741
-0.086851
-0.0769103
-0.0680366
-0.0601247
-0.0530787
-0.0468111
-0.0412426
-0.036301
-0.031921
-0.0280436
-0.0246155
-0.0215884
-0.0189191
-0.0165687
-0.0145023
-0.0126887
-0.0111
-0.00971135
-0.00850069
-0.00744847
-0.00653747
-0.00575254
-0.00508046
-0.00450977
-0.00403062
-0.00363466
-0.00331493
-0.00306575
-0.00288268
-0.00276242
-0.00270281
-27.7581
-27.6756
-27.4473
-27.0906
-26.6238
-26.0614
-25.4174
-24.7069
-23.9415
-23.1316
-22.287
-21.4172
-20.5305
-19.6345
-18.7356
-17.8397
-16.9516
-16.0758
-15.216
-14.3756
-13.5573
-12.7632
-11.9953
-11.2549
-10.5433
-9.86104
-9.20876
-8.58663
-7.99468
-7.43272
-6.90037
-6.39715
-5.92241
-5.47541
-5.05534
-4.66129
-4.29232
-3.94742
-3.62558
-3.32576
-3.04689
-2.78793
-2.54784
-2.32558
-2.12013
-1.93051
-1.75575
-1.59491
-1.44711
-1.31147
-1.18716
-1.0734
-0.969423
-0.874522
-0.788016
-0.709267
-0.637671
-0.572663
-0.513711
-0.460319
-0.412023
-0.36839
-0.329019
-0.293538
-0.2616
-0.232887
-0.207104
-0.183979
-0.163263
-0.144728
-0.128163
-0.113376
-0.100191
-0.0884499
-0.0780057
-0.0687263
-0.0604917
-0.053193
-0.0467317
-0.041019
-0.0359747
-0.0315266
-0.02761
-0.0241666
-0.0211444
-0.018497
-0.0161829
-0.0141655
-0.0124121
-0.010894
-0.009586
-0.00846605
-0.00751505
-0.0067166
-0.00605678
-0.00552398
-0.00510876
-0.00480369
-0.0046033
-0.00450398
-38.852
-38.7363
-38.4166
-37.9175
-37.2639
-36.4768
-35.5757
-34.5813
-33.5099
-32.3761
-31.194
-29.9766
-28.7356
-27.4815
-26.2234
-24.9694
-23.7264
-22.5005
-21.2972
-20.1209
-18.9755
-17.864
-16.7892
-15.753
-14.7569
-13.8021
-12.8891
-12.0183
-11.1898
-10.4032
-9.65814
-8.9538
-8.28932
-7.66369
-7.07573
-6.5242
-6.00776
-5.52503
-5.07456
-4.65491
-4.26459
-3.90214
-3.5661
-3.255
-2.96745
-2.70204
-2.45744
-2.23233
-2.02545
-1.8356
-1.66162
-1.50239
-1.35686
-1.22403
-1.10295
-0.992728
-0.892519
-0.80153
-0.719018
-0.644288
-0.57669
-0.515619
-0.460514
-0.410852
-0.36615
-0.325961
-0.289874
-0.257507
-0.228512
-0.202569
-0.179384
-0.158687
-0.140233
-0.123799
-0.109181
-0.0961932
-0.0846675
-0.0744518
-0.0654083
-0.0574125
-0.0503522
-0.0441265
-0.0386445
-0.0338249
-0.0295949
-0.0258894
-0.0226505
-0.0198268
-0.0173727
-0.0152479
-0.0134171
-0.0118496
-0.0105185
-0.00940094
-0.00847742
-0.00773169
-0.00715052
-0.00672353
-0.00644306
-0.00630405
-49.9363
-49.7876
-49.3764
-48.7351
-47.895
-46.8833
-45.7253
-44.4472
-43.0699
-41.6127
-40.0933
-38.5286
-36.9336
-35.3218
-33.7048
-32.093
-30.4953
-28.9198
-27.3731
-25.8612
-24.389
-22.9605
-21.579
-20.2472
-18.9669
-17.7397
-16.5662
-15.447
-14.3821
-13.3712
-12.4135
-11.5082
-10.6542
-9.85007
-9.09437
-8.38549
-7.72172
-7.10127
-6.52229
-5.98291
-5.48124
-5.01539
-4.58347
-4.18363
-3.81403
-3.47291
-3.15852
-2.86919
-2.6033
-2.35929
-2.13566
-1.93101
-1.74396
-1.57323
-1.41761
-1.27595
-1.14715
-1.0302
-0.924148
-0.828098
-0.741214
-0.662721
-0.591894
-0.528064
-0.470609
-0.418955
-0.372572
-0.330972
-0.293705
-0.260361
-0.23056
-0.203959
-0.180241
-0.159118
-0.14033
-0.123636
-0.108823
-0.0956924
-0.0840688
-0.0737919
-0.0647174
-0.0567154
-0.0496695
-0.0434749
-0.0380381
-0.0332755
-0.0291126
-0.0254833
-0.022329
-0.019598
-0.0172449
-0.0152302
-0.0135194
-0.012083
-0.010896
-0.0099375
-0.00919053
-0.00864173
-0.00828125
-0.00810259
-61.0082
-60.8265
-60.3241
-59.5406
-58.5142
-57.2782
-55.8636
-54.302
-52.6194
-50.8389
-48.9827
-47.0711
-45.1226
-43.1534
-41.1778
-39.2086
-37.2567
-35.3319
-33.4423
-31.5952
-29.7965
-28.0513
-26.3635
-24.7364
-23.1723
-21.6729
-20.2393
-18.8719
-17.5709
-16.3358
-15.1658
-14.0598
-13.0164
-12.034
-11.1108
-10.2447
-9.43378
-8.67576
-7.96841
-7.30944
-6.69654
-6.1274
-5.59972
-5.11122
-4.65968
-4.24292
-3.85883
-3.50535
-3.1805
-2.88239
-2.60918
-2.35915
-2.13063
-1.92205
-1.73192
-1.55885
-1.40149
-1.25862
-1.12905
-1.0117
-0.905556
-0.809659
-0.723129
-0.645147
-0.574953
-0.511846
-0.455179
-0.404355
-0.358826
-0.318088
-0.28168
-0.249181
-0.220204
-0.194398
-0.171444
-0.151049
-0.132951
-0.116909
-0.102709
-0.0901531
-0.0790666
-0.0692905
-0.0606823
-0.0531142
-0.046472
-0.0406534
-0.0355675
-0.0311335
-0.0272798
-0.0239433
-0.0210685
-0.0186071
-0.0165169
-0.0147621
-0.0133119
-0.0121409
-0.0112283
-0.0105578
-0.0101174
-0.00989916
-72.065
-71.8504
-71.257
-70.3315
-69.119
-67.659
-65.9882
-64.1435
-62.1558
-60.0526
-57.86
-55.602
-53.3004
-50.9743
-48.6407
-46.3146
-44.009
-41.7352
-39.5032
-37.3213
-35.1967
-33.1352
-31.1415
-29.2195
-27.3719
-25.6008
-23.9073
-22.2922
-20.7554
-19.2965
-17.9144
-16.608
-15.3755
-14.215
-13.1244
-12.1014
-11.1435
-10.2481
-9.41256
-8.63416
-7.91019
-7.2379
-6.61458
-6.03755
-5.50418
-5.01189
-4.55818
-4.14064
-3.75692
-3.40477
-3.08206
-2.78671
-2.51677
-2.27039
-2.04581
-1.84136
-1.65549
-1.48672
-1.33367
-1.19506
-1.06968
-0.956398
-0.854186
-0.76207
-0.679155
-0.604611
-0.537673
-0.477638
-0.423858
-0.375737
-0.332731
-0.294341
-0.260113
-0.22963
-0.202515
-0.178425
-0.157046
-0.138098
-0.121323
-0.106492
-0.0933964
-0.0818485
-0.0716801
-0.0627405
-0.0548944
-0.0480213
-0.0420137
-0.0367761
-0.032224
-0.0282828
-0.024887
-0.0219794
-0.0195104
-0.0174375
-0.0157245
-0.0143413
-0.0132633
-0.0124713
-0.0119511
-0.0116933
-83.104
-82.8565
-82.1722
-81.105
-79.7068
-78.0231
-76.0964
-73.9691
-71.6768
-69.2515
-66.723
-64.1192
-61.465
-58.7826
-56.0916
-53.4092
-50.7504
-48.1283
-45.5544
-43.0383
-40.5882
-38.2109
-35.9118
-33.6954
-31.5648
-29.5223
-27.5695
-25.7069
-23.9347
-22.2523
-20.6586
-19.152
-17.7307
-16.3925
-15.1348
-13.9551
-12.8505
-11.8179
-10.8544
-9.95676
-9.12188
-8.34661
-7.62781
-6.96239
-6.34731
-5.77962
-5.25641
-4.77491
-4.33241
-3.92632
-3.55417
-3.21358
-2.90229
-2.61817
-2.35919
-2.12343
-1.90908
-1.71446
-1.53797
-1.37812
-1.23353
-1.1029
-0.985032
-0.878806
-0.783189
-0.697226
-0.620035
-0.550804
-0.488785
-0.433293
-0.383699
-0.339429
-0.299958
-0.264806
-0.233537
-0.205756
-0.181103
-0.159252
-0.139908
-0.122805
-0.107703
-0.0943863
-0.0826604
-0.0723513
-0.0633034
-0.0553774
-0.0484495
-0.0424096
-0.0371602
-0.0326153
-0.0286993
-0.0253463
-0.0224992
-0.0201087
-0.0181333
-0.0165382
-0.0152951
-0.0143818
-0.0137819
-0.0134846
-94.1226
-93.8423
-93.0672
-91.8585
-90.2748
-88.3679
-86.1858
-83.7765
-81.1802
-78.4333
-75.5696
-72.6206
-69.6145
-66.5765
-63.5287
-60.4906
-57.4792
-54.5095
-51.5943
-48.7446
-45.9696
-43.2771
-40.6733
-38.1629
-35.7498
-33.4366
-31.2248
-29.1154
-27.1082
-25.2027
-23.3976
-21.6913
-20.0816
-18.5659
-17.1415
-15.8054
-14.5543
-13.3848
-12.2935
-11.2769
-10.3313
-9.45326
-8.63916
-7.88551
-7.18888
-6.54592
-5.95334
-5.408
-4.90683
-4.4469
-4.02541
-3.63966
-3.2871
-2.96531
-2.67199
-2.40497
-2.1622
-1.94178
-1.74188
-1.56084
-1.39708
-1.24913
-1.11563
-0.995324
-0.88703
-0.78967
-0.702245
-0.623834
-0.553592
-0.490743
-0.434574
-0.384434
-0.339729
-0.299916
-0.264502
-0.233037
-0.205115
-0.180367
-0.158458
-0.139088
-0.121983
-0.106901
-0.0936203
-0.0819444
-0.0716968
-0.0627199
-0.0548735
-0.0480327
-0.0420873
-0.0369397
-0.0325046
-0.028707
-0.0254824
-0.022775
-0.0205377
-0.0187311
-0.0173231
-0.0162887
-0.0156093
-0.0152726
-105.118
-104.805
-103.939
-102.589
-100.821
-98.6909
-96.254
-93.5632
-90.6636
-87.5957
-84.3975
-81.104
-77.7468
-74.3539
-70.9501
-67.5571
-64.1939
-60.8773
-57.6215
-54.4389
-51.3398
-48.3327
-45.4247
-42.6211
-39.9261
-37.3426
-34.8725
-32.5166
-30.2749
-28.1468
-26.1309
-24.2252
-22.4275
-20.7347
-19.144
-17.6518
-16.2545
-14.9484
-13.7297
-12.5942
-11.5382
-10.5576
-9.64837
-8.80669
-8.02868
-7.31061
-6.64881
-6.03976
-5.48004
-4.96639
-4.49565
-4.06484
-3.6711
-3.31172
-2.98413
-2.68591
-2.41479
-2.16861
-1.94537
-1.74318
-1.56029
-1.39506
-1.24596
-1.1116
-0.990653
-0.881919
-0.784281
-0.69671
-0.618263
-0.548071
-0.48534
-0.429343
-0.379416
-0.334952
-0.295401
-0.260261
-0.229077
-0.201438
-0.17697
-0.155336
-0.136234
-0.119389
-0.104557
-0.0915173
-0.0800726
-0.070047
-0.0612839
-0.053644
-0.047004
-0.0412552
-0.0363018
-0.0320607
-0.0284593
-0.0254357
-0.022937
-0.0209193
-0.0193469
-0.0181917
-0.0174329
-0.0170568
-116.087
-115.742
-114.786
-113.295
-111.342
-108.99
-106.298
-103.327
-100.125
-96.7366
-93.2046
-89.5675
-85.8599
-82.113
-78.354
-74.6069
-70.8928
-67.23
-63.6345
-60.1197
-56.6972
-53.3764
-50.1649
-47.0687
-44.0925
-41.2394
-38.5115
-35.9098
-33.4342
-31.084
-28.8577
-26.7532
-24.7678
-22.8985
-21.1417
-19.4938
-17.9507
-16.5083
-15.1624
-13.9085
-12.7423
-11.6593
-10.6552
-9.72569
-8.8665
-8.07349
-7.34263
-6.67002
-6.0519
-5.48464
-4.96479
-4.48902
-4.05419
-3.6573
-3.29553
-2.9662
-2.66678
-2.39491
-2.14837
-1.92509
-1.72311
-1.54063
-1.37598
-1.2276
-1.09403
-0.973951
-0.866123
-0.769415
-0.682781
-0.605265
-0.535988
-0.474147
-0.41901
-0.369906
-0.326227
-0.28742
-0.252982
-0.222459
-0.195437
-0.171546
-0.150451
-0.131848
-0.115468
-0.101068
-0.0884286
-0.0773569
-0.0676793
-0.0592422
-0.0519092
-0.0455604
-0.0400902
-0.0354065
-0.0314293
-0.0280901
-0.0253306
-0.0231024
-0.021366
-0.0200902
-0.0192522
-0.0188369
-127.028
-126.65
-125.604
-123.972
-121.835
-119.261
-116.317
-113.065
-109.561
-105.854
-101.989
-98.0088
-93.9519
-89.8518
-85.7385
-81.6383
-77.5741
-73.5662
-69.6318
-65.7858
-62.0407
-58.4069
-54.8927
-51.5047
-48.248
-45.126
-42.1411
-39.2941
-36.5852
-34.0135
-31.5774
-29.2746
-27.1021
-25.0565
-23.1342
-21.331
-19.6425
-18.0642
-16.5914
-15.2193
-13.9432
-12.7581
-11.6594
-10.6423
-9.70213
-8.83438
-8.03464
-7.29864
-6.62227
-6.00155
-5.4327
-4.91209
-4.43628
-4.00199
-3.60612
-3.24575
-2.91812
-2.62063
-2.35085
-2.10652
-1.8855
-1.68583
-1.50567
-1.34329
-1.19714
-1.06574
-0.947753
-0.84193
-0.747131
-0.662309
-0.586503
-0.518834
-0.4585
-0.404769
-0.356974
-0.314509
-0.276826
-0.243425
-0.213857
-0.187714
-0.16463
-0.144275
-0.126351
-0.110593
-0.0967629
-0.0846477
-0.074058
-0.0648257
-0.0568017
-0.0498545
-0.0438687
-0.0387435
-0.0343915
-0.0307376
-0.0277181
-0.0252799
-0.0233798
-0.0219838
-0.0210668
-0.0206124
-137.937
-137.527
-136.391
-134.619
-132.298
-129.504
-126.306
-122.775
-118.97
-114.944
-110.748
-106.426
-102.021
-97.5685
-93.1019
-88.6495
-84.2363
-79.8842
-75.6119
-71.4356
-67.3688
-63.4229
-59.6069
-55.928
-52.3916
-49.0015
-45.7602
-42.6687
-39.7272
-36.9347
-34.2894
-31.7887
-29.4296
-27.2084
-25.121
-23.1629
-21.3294
-19.6155
-18.0163
-16.5264
-15.1406
-13.8538
-12.6607
-11.5563
-10.5354
-9.59309
-8.72467
-7.92546
-7.191
-6.51697
-5.89927
-5.33395
-4.81727
-4.34569
-3.91582
-3.5245
-3.16873
-2.84569
-2.55275
-2.28743
-2.04744
-1.83062
-1.63498
-1.45866
-1.29995
-1.15727
-1.02915
-0.914237
-0.811297
-0.71919
-0.636874
-0.563394
-0.497878
-0.439532
-0.387632
-0.34152
-0.3006
-0.264331
-0.232224
-0.203836
-0.178769
-0.156666
-0.137203
-0.120091
-0.105073
-0.0919177
-0.0804186
-0.0703933
-0.0616802
-0.0541363
-0.0476365
-0.0420711
-0.0373453
-0.0333776
-0.0300988
-0.0274512
-0.0253878
-0.0238719
-0.0228762
-0.0223828
-148.813
-148.369
-147.144
-145.233
-142.729
-139.714
-136.264
-132.455
-128.35
-124.007
-119.479
-114.817
-110.064
-105.261
-100.442
-95.6389
-90.8778
-86.1824
-81.5733
-77.0677
-72.6804
-68.4234
-64.3065
-60.3375
-56.5223
-52.8649
-49.368
-46.0328
-42.8594
-39.8467
-36.9928
-34.295
-31.7499
-29.3536
-27.1016
-24.9891
-23.0111
-21.1621
-19.4367
-17.8293
-16.3343
-14.9461
-13.6589
-12.4674
-11.366
-10.3494
-9.41255
-8.55033
-7.75796
-7.03079
-6.36438
-5.75449
-5.19708
-4.68832
-4.22456
-3.80238
-3.41856
-3.07005
-2.75401
-2.46778
-2.20886
-1.97495
-1.76388
-1.57367
-1.40245
-1.24851
-1.11029
-0.986319
-0.875263
-0.775894
-0.687088
-0.607814
-0.537133
-0.474186
-0.418194
-0.368447
-0.324301
-0.285172
-0.250533
-0.219907
-0.192865
-0.169018
-0.148021
-0.12956
-0.113358
-0.0991651
-0.0867593
-0.0759436
-0.0665435
-0.0584048
-0.0513925
-0.0453883
-0.0402899
-0.0360094
-0.032472
-0.0296157
-0.0273897
-0.0257542
-0.02468
-0.0241477
-159.651
-159.176
-157.861
-155.811
-153.125
-149.89
-146.189
-142.102
-137.698
-133.039
-128.182
-123.18
-118.081
-112.928
-107.758
-102.605
-97.4968
-92.4595
-87.5146
-82.6809
-77.974
-73.4069
-68.9902
-64.7322
-60.639
-56.7153
-52.9637
-49.3856
-45.981
-42.7489
-39.6871
-36.7929
-34.0624
-31.4916
-29.0755
-26.8092
-24.687
-22.7034
-20.8524
-19.1279
-17.524
-16.0347
-14.6538
-13.3754
-12.1938
-11.1032
-10.0981
-9.17308
-8.323
-7.54287
-6.82793
-6.17362
-5.57561
-5.02979
-4.53225
-4.07933
-3.66755
-3.29366
-2.9546
-2.64752
-2.36974
-2.11879
-1.89235
-1.68828
-1.50459
-1.33945
-1.19116
-1.05816
-0.939013
-0.832407
-0.737132
-0.652084
-0.576255
-0.508724
-0.448654
-0.395284
-0.347922
-0.305943
-0.268781
-0.235925
-0.206912
-0.181329
-0.158802
-0.138997
-0.121615
-0.106388
-0.0930787
-0.0814752
-0.0713904
-0.062659
-0.0551359
-0.0486944
-0.0432246
-0.0386323
-0.0348373
-0.0317729
-0.0293848
-0.0276302
-0.0264778
-0.0259066
-170.451
-169.943
-168.539
-166.351
-163.482
-160.029
-156.078
-151.715
-147.013
-142.038
-136.852
-131.512
-126.068
-120.566
-115.047
-109.545
-104.092
-98.7137
-93.4343
-88.2736
-83.2483
-78.3723
-73.6569
-69.1108
-64.7408
-60.5517
-56.5463
-52.7262
-49.0913
-45.6405
-42.3717
-39.2816
-36.3665
-33.6217
-31.0423
-28.6226
-26.3569
-24.2391
-22.2629
-20.4218
-18.7094
-17.1193
-15.645
-14.2802
-13.0187
-11.8543
-10.7812
-9.79358
-8.88599
-8.05309
-7.28979
-6.59122
-5.95276
-5.37002
-4.83883
-4.35527
-3.91564
-3.51645
-3.15446
-2.82661
-2.53004
-2.26212
-2.02036
-1.80248
-1.60637
-1.43006
-1.27173
-1.12974
-1.00253
-0.888714
-0.786995
-0.696194
-0.615236
-0.543136
-0.479003
-0.422023
-0.371457
-0.326639
-0.286963
-0.251884
-0.220909
-0.193595
-0.169544
-0.1484
-0.129842
-0.113585
-0.0993751
-0.0869868
-0.0762198
-0.0668977
-0.0588657
-0.0519885
-0.0461487
-0.0412457
-0.037194
-0.0339223
-0.0313726
-0.0294994
-0.028269
-0.0276592
-181.208
-180.668
-179.176
-176.849
-173.8
-170.129
-165.928
-161.289
-156.291
-151.002
-145.489
-139.811
-134.024
-128.175
-122.308
-116.459
-110.661
-104.944
-99.331
-93.8446
-88.5022
-83.3184
-78.3054
-73.4724
-68.8266
-64.3731
-60.1149
-56.0537
-52.1894
-48.5209
-45.0458
-41.7607
-38.6616
-35.7436
-33.0013
-30.429
-28.0203
-25.7688
-23.6679
-21.7106
-19.8902
-18.1997
-16.6324
-15.1814
-13.8403
-12.6024
-11.4616
-10.4117
-9.44679
-8.56132
-7.74985
-7.00719
-6.32844
-5.70892
-5.14421
-4.63013
-4.16275
-3.73838
-3.35354
-3.005
-2.68972
-2.40488
-2.14787
-1.91624
-1.70775
-1.52031
-1.35199
-1.20104
-1.0658
-0.944803
-0.836664
-0.740132
-0.654064
-0.577415
-0.509234
-0.448657
-0.394901
-0.347254
-0.305074
-0.267781
-0.234851
-0.205813
-0.180245
-0.157766
-0.138036
-0.120754
-0.105647
-0.0924769
-0.0810304
-0.07112
-0.062581
-0.0552697
-0.0490614
-0.043849
-0.0395416
-0.0360634
-0.0333528
-0.0313613
-0.0300533
-0.029405
-191.92
-191.349
-189.768
-187.304
-184.074
-180.186
-175.737
-170.824
-165.53
-159.929
-154.09
-148.077
-141.947
-135.753
-129.538
-123.343
-117.203
-111.147
-105.203
-99.3924
-93.7341
-88.244
-82.9345
-77.8159
-72.8954
-68.1786
-63.6688
-59.3674
-55.2747
-51.3893
-47.7087
-44.2295
-40.9471
-37.8566
-34.9523
-32.2279
-29.6768
-27.2922
-25.067
-22.9941
-21.066
-19.2756
-17.6156
-16.0789
-14.6585
-13.3474
-12.1391
-11.0272
-10.0053
-9.06745
-8.208
-7.42144
-6.70256
-6.04642
-5.44832
-4.90385
-4.40885
-3.95938
-3.55179
-3.18264
-2.84873
-2.54705
-2.27484
-2.02953
-1.80871
-1.61019
-1.43192
-1.27204
-1.12881
-1.00066
-0.886126
-0.783888
-0.692732
-0.611551
-0.53934
-0.475182
-0.418247
-0.367784
-0.32311
-0.283612
-0.248736
-0.217981
-0.190901
-0.167093
-0.146197
-0.127893
-0.111893
-0.0979443
-0.085821
-0.0753247
-0.0662809
-0.0585374
-0.0519621
-0.0464415
-0.0418794
-0.0381956
-0.0353247
-0.0332155
-0.0318302
-0.0311436
-202.585
-201.982
-200.314
-197.712
-194.304
-190.199
-185.503
-180.317
-174.729
-168.816
-162.653
-156.305
-149.836
-143.297
-136.737
-130.198
-123.716
-117.324
-111.049
-104.916
-98.943
-93.1477
-87.5432
-82.1401
-76.9463
-71.9673
-67.2069
-62.6665
-58.3464
-54.245
-50.3599
-46.6873
-43.2226
-39.9604
-36.8946
-34.0188
-31.326
-28.8089
-26.46
-24.2719
-22.2367
-20.3468
-18.5945
-16.9724
-15.473
-14.0891
-12.8137
-11.6399
-10.5613
-9.57133
-8.66412
-7.83386
-7.07503
-6.38242
-5.75109
-5.17637
-4.65385
-4.17941
-3.74917
-3.35951
-3.00703
-2.6886
-2.40126
-2.14231
-1.90922
-1.69967
-1.5115
-1.34273
-1.19154
-1.05627
-0.93537
-0.827451
-0.731229
-0.645537
-0.569312
-0.501589
-0.44149
-0.388222
-0.341066
-0.299374
-0.262559
-0.230095
-0.20151
-0.176379
-0.154322
-0.135
-0.118112
-0.103388
-0.0905905
-0.0795109
-0.0699645
-0.0617907
-0.05485
-0.0490225
-0.0442069
-0.0403184
-0.037288
-0.0350616
-0.0335992
-0.0328745
-213.2
-212.566
-210.81
-208.072
-204.485
-200.165
-195.223
-189.765
-183.884
-177.662
-171.175
-164.496
-157.687
-150.805
-143.902
-137.02
-130.199
-123.472
-116.868
-110.413
-104.127
-98.0285
-92.1304
-86.4441
-80.9781
-75.7383
-70.7284
-65.9501
-61.4036
-57.0874
-52.9987
-49.1336
-45.4874
-42.0542
-38.8278
-35.8013
-32.9674
-30.3184
-27.8465
-25.5437
-23.4018
-21.4129
-19.5689
-17.8617
-16.2838
-14.8274
-13.4851
-12.2499
-11.1146
-10.0729
-9.11811
-8.24434
-7.44575
-6.71685
-6.05244
-5.4476
-4.89771
-4.39841
-3.94563
-3.53554
-3.1646
-2.82948
-2.52709
-2.25457
-2.00926
-1.78873
-1.5907
-1.41309
-1.25398
-1.11161
-0.984383
-0.870809
-0.769545
-0.679363
-0.599144
-0.527872
-0.464625
-0.408566
-0.358939
-0.315061
-0.276317
-0.242153
-0.21207
-0.185621
-0.162409
-0.142075
-0.124301
-0.108805
-0.0953377
-0.0836775
-0.0736309
-0.0650288
-0.0577243
-0.0515915
-0.0465236
-0.0424313
-0.0392421
-0.036899
-0.03536
-0.0345973
-223.763
-223.097
-221.254
-218.381
-214.615
-210.082
-204.895
-199.167
-192.994
-186.463
-179.656
-172.645
-165.499
-158.277
-151.031
-143.808
-136.649
-129.589
-122.658
-115.883
-109.286
-102.885
-96.6947
-90.7268
-84.99
-79.4906
-74.2324
-69.2175
-64.4457
-59.9156
-55.6244
-51.5678
-47.7409
-44.1377
-40.7514
-37.575
-34.6007
-31.8204
-29.2261
-26.8092
-24.5612
-22.4738
-20.5383
-18.7467
-17.0905
-15.562
-14.1532
-12.8568
-11.6653
-10.5719
-9.56985
-8.65279
-7.81464
-7.04963
-6.3523
-5.71749
-5.14036
-4.61632
-4.14111
-3.71071
-3.32139
-2.96966
-2.65229
-2.36627
-2.10881
-1.87735
-1.66951
-1.4831
-1.31611
-1.16669
-1.03315
-0.913953
-0.807672
-0.713022
-0.628829
-0.554026
-0.487645
-0.428808
-0.376722
-0.330671
-0.290007
-0.25415
-0.222577
-0.194818
-0.170456
-0.149114
-0.13046
-0.114196
-0.100061
-0.0878235
-0.0772792
-0.0682508
-0.0605844
-0.0541478
-0.0488287
-0.0445337
-0.0411865
-0.0387273
-0.0371121
-0.0363116
-234.27
-233.573
-231.643
-228.635
-224.693
-219.947
-214.516
-208.519
-202.057
-195.219
-188.092
-180.752
-173.27
-165.709
-158.123
-150.561
-143.066
-135.674
-128.418
-121.325
-114.418
-107.716
-101.235
-94.9871
-88.9809
-83.2232
-77.7182
-72.4677
-67.4719
-62.7291
-58.2363
-53.9893
-49.9827
-46.2103
-42.665
-39.3394
-36.2254
-33.3147
-30.5985
-28.0681
-25.7145
-23.5291
-21.5028
-19.627
-17.8931
-16.2927
-14.8178
-13.4605
-12.2131
-11.0683
-10.0192
-9.0591
-8.18159
-7.38066
-6.65059
-5.98597
-5.38174
-4.83309
-4.33556
-3.88495
-3.47735
-3.10911
-2.77683
-2.47738
-2.20784
-1.96551
-1.74791
-1.55274
-1.37791
-1.22148
-1.08167
-0.956871
-0.8456
-0.746505
-0.658358
-0.580043
-0.510544
-0.448945
-0.394413
-0.346199
-0.303626
-0.266085
-0.233029
-0.203967
-0.17846
-0.156116
-0.136586
-0.119559
-0.10476
-0.0919479
-0.0809083
-0.071456
-0.0634296
-0.0566908
-0.0511219
-0.0466252
-0.0431208
-0.0405461
-0.038855
-0.038017
-244.72
-243.991
-241.976
-238.833
-234.716
-229.757
-224.085
-217.82
-211.069
-203.927
-196.482
-188.814
-180.999
-173.1
-165.176
-157.277
-149.447
-141.726
-134.146
-126.736
-119.522
-112.521
-105.751
-99.2239
-92.9498
-86.9353
-81.1848
-75.7001
-70.4814
-65.5271
-60.8339
-56.3975
-52.2122
-48.2714
-44.5681
-41.0941
-37.8412
-34.8006
-31.9633
-29.32
-26.8615
-24.5786
-22.4619
-20.5024
-18.6912
-17.0195
-15.4788
-14.0609
-12.7578
-11.562
-10.4661
-9.46318
-8.54653
-7.70988
-6.94724
-6.25298
-5.62179
-5.04867
-4.52895
-4.05824
-3.63246
-3.24779
-2.9007
-2.58789
-2.30632
-2.05318
-1.82587
-1.622
-1.43937
-1.27596
-1.12992
-0.999554
-0.883319
-0.779804
-0.687725
-0.605916
-0.533318
-0.468971
-0.412007
-0.361642
-0.31717
-0.277954
-0.243424
-0.213066
-0.186421
-0.16308
-0.142679
-0.124892
-0.109434
-0.0960495
-0.0845176
-0.0746436
-0.0662592
-0.0592197
-0.0534025
-0.0487051
-0.0450444
-0.042355
-0.0405884
-0.039713
-255.109
-254.349
-252.248
-248.973
-244.68
-239.511
-233.598
-227.067
-220.03
-212.584
-204.823
-196.83
-188.683
-180.449
-172.188
-163.954
-155.791
-147.742
-139.841
-132.117
-124.596
-117.298
-110.24
-103.436
-96.8958
-90.626
-84.6313
-78.9138
-73.4736
-68.3089
-63.4165
-58.7917
-54.4287
-50.3207
-46.4601
-42.8387
-39.4477
-36.278
-33.3202
-30.5647
-28.0019
-25.622
-23.4155
-21.3728
-19.4847
-17.742
-16.1359
-14.6578
-13.2994
-12.0529
-10.9105
-9.86493
-8.90936
-8.03719
-7.24217
-6.51844
-5.86045
-5.26301
-4.72122
-4.23053
-3.78667
-3.38567
-3.02384
-2.69775
-2.40423
-2.14035
-1.90339
-1.69086
-1.50048
-1.33013
-1.17789
-1.04199
-0.92082
-0.81291
-0.716923
-0.631641
-0.55596
-0.488881
-0.429499
-0.376996
-0.330636
-0.289755
-0.253759
-0.222112
-0.194336
-0.170004
-0.148737
-0.130195
-0.11408
-0.100128
-0.088106
-0.0778128
-0.0690725
-0.0617341
-0.0556699
-0.0507731
-0.046957
-0.0441533
-0.0423118
-0.0413992
-265.435
-264.645
-262.459
-259.05
-254.584
-249.206
-243.053
-236.259
-228.936
-221.189
-213.114
-204.797
-196.32
-187.753
-179.158
-170.59
-162.098
-153.722
-145.501
-137.465
-129.639
-122.046
-114.702
-107.623
-100.818
-94.2943
-88.057
-82.108
-76.4476
-71.0739
-65.9835
-61.1715
-56.6319
-52.3576
-48.3407
-44.5727
-41.0445
-37.7465
-34.669
-31.8019
-29.1353
-26.6591
-24.3633
-22.2379
-20.2734
-18.4602
-16.789
-15.2511
-13.8378
-12.5407
-11.3521
-10.2642
-9.27
-8.36252
-7.53532
-6.78229
-6.09767
-5.47605
-4.91233
-4.40178
-3.93995
-3.52272
-3.14624
-2.80695
-2.50155
-2.22698
-1.98043
-1.75931
-1.56122
-1.38397
-1.22557
-1.08417
-0.958094
-0.845816
-0.745943
-0.657209
-0.578465
-0.508671
-0.446885
-0.392257
-0.34402
-0.301485
-0.264031
-0.231103
-0.202203
-0.176886
-0.154758
-0.135465
-0.118698
-0.104181
-0.0916727
-0.0809629
-0.0718687
-0.0642333
-0.0579236
-0.0528286
-0.048858
-0.0459408
-0.0440247
-0.0430752
-275.696
-274.875
-272.604
-269.064
-264.425
-258.84
-252.449
-245.391
-237.786
-229.739
-221.352
-212.714
-203.909
-195.011
-186.083
-177.184
-168.364
-159.665
-151.126
-142.778
-134.65
-126.763
-119.136
-111.783
-104.715
-97.9394
-91.4609
-85.282
-79.4028
-73.8213
-68.5341
-63.5361
-58.821
-54.3815
-50.2094
-46.2957
-42.6311
-39.2056
-36.0091
-33.0313
-30.2616
-27.6897
-25.3051
-23.0976
-21.0571
-19.1738
-17.4381
-15.8407
-14.3727
-13.0255
-11.7909
-10.661
-9.62834
-8.68578
-7.82661
-7.04448
-6.33339
-5.68773
-5.10222
-4.57193
-4.09226
-3.6589
-3.26787
-2.91546
-2.59825
-2.31307
-2.05699
-1.82732
-1.62157
-1.43747
-1.27295
-1.12608
-0.995132
-0.878514
-0.77478
-0.682615
-0.600828
-0.528335
-0.464161
-0.407421
-0.357319
-0.31314
-0.274238
-0.240037
-0.21002
-0.183725
-0.160741
-0.140702
-0.123287
-0.108209
-0.0952168
-0.084093
-0.0746472
-0.0667166
-0.060163
-0.054871
-0.0507469
-0.047717
-0.0457268
-0.0447406
-285.888
-285.037
-282.683
-279.012
-274.201
-268.409
-261.782
-254.464
-246.577
-238.233
-229.535
-220.578
-211.448
-202.221
-192.963
-183.735
-174.588
-165.568
-156.713
-148.057
-139.628
-131.45
-123.541
-115.916
-108.587
-101.56
-94.8422
-88.4349
-82.3383
-76.5506
-71.0679
-65.8851
-60.9957
-56.392
-52.0656
-48.0073
-44.2072
-40.6551
-37.3404
-34.2525
-31.3804
-28.7134
-26.2406
-23.9515
-21.8356
-19.8826
-18.0827
-16.4263
-14.9041
-13.5071
-12.2268
-11.0552
-9.98431
-9.0069
-8.11597
-7.30492
-6.56754
-5.89801
-5.29086
-4.74097
-4.24355
-3.79417
-3.38868
-3.02325
-2.69432
-2.39859
-2.13304
-1.89488
-1.68152
-1.49062
-1.32001
-1.16771
-1.03192
-0.910994
-0.803425
-0.707854
-0.623042
-0.547869
-0.481322
-0.422484
-0.370531
-0.324718
-0.284378
-0.248912
-0.217785
-0.190518
-0.166684
-0.145905
-0.127845
-0.11221
-0.0987375
-0.0872023
-0.0774073
-0.0691835
-0.0623876
-0.0569
-0.0526234
-0.0494814
-0.0474177
-0.046395
-296.011
-295.129
-292.691
-288.891
-283.91
-277.912
-271.051
-263.473
-255.307
-246.668
-237.662
-228.388
-218.935
-209.38
-199.795
-190.24
-180.77
-171.43
-162.261
-153.299
-144.572
-136.104
-127.915
-120.02
-112.431
-105.156
-98.2002
-91.566
-85.2536
-79.2609
-73.5841
-68.2178
-63.1553
-58.3886
-53.9091
-49.707
-45.7724
-42.0945
-38.6625
-35.4652
-32.4914
-29.73
-27.1697
-24.7995
-22.6087
-20.5866
-18.723
-17.0079
-15.4318
-13.9853
-12.6597
-11.4466
-10.3378
-9.32581
-8.40333
-7.56356
-6.80008
-6.10684
-5.47819
-4.90883
-4.3938
-3.92851
-3.50867
-3.13029
-2.78971
-2.48352
-2.20857
-1.96197
-1.74106
-1.5434
-1.36675
-1.20906
-1.06846
-0.943251
-0.831873
-0.732917
-0.645102
-0.567268
-0.498365
-0.437444
-0.38365
-0.336215
-0.294447
-0.257726
-0.225496
-0.197264
-0.172586
-0.151071
-0.132372
-0.116183
-0.102234
-0.0902902
-0.0801483
-0.0716334
-0.0645968
-0.0589148
-0.0544869
-0.0512336
-0.0490968
-0.0480379
-306.06
-305.148
-302.628
-298.698
-293.548
-287.347
-280.253
-272.418
-263.975
-255.042
-245.73
-236.142
-226.367
-216.489
-206.578
-196.699
-186.906
-177.25
-167.77
-158.503
-149.48
-140.725
-132.258
-124.095
-116.248
-108.726
-101.534
-94.6745
-88.1478
-81.9517
-76.0821
-70.5337
-65.2993
-60.3708
-55.7392
-51.3945
-47.3263
-43.5235
-39.975
-36.6692
-33.5945
-30.7393
-28.0921
-25.6414
-23.3762
-21.2855
-19.3586
-17.5853
-15.9557
-14.4601
-13.0895
-11.8352
-10.6888
-9.64241
-8.68861
-7.82033
-7.03093
-6.31416
-5.66417
-5.07548
-4.54297
-4.06188
-3.62778
-3.23657
-2.88442
-2.56783
-2.28355
-2.02858
-1.80017
-1.5958
-1.41315
-1.25011
-1.10474
-0.975274
-0.860115
-0.7578
-0.667004
-0.586527
-0.515284
-0.452295
-0.396676
-0.34763
-0.304444
-0.266476
-0.233152
-0.203961
-0.178445
-0.1562
-0.136867
-0.120128
-0.105705
-0.0933557
-0.0828696
-0.0740655
-0.06679
-0.0609152
-0.0563369
-0.0529732
-0.0507639
-0.049669
-316.033
-315.092
-312.49
-308.432
-303.114
-296.711
-289.385
-281.295
-272.577
-263.353
-253.738
-243.837
-233.744
-223.543
-213.31
-203.108
-192.997
-183.026
-173.237
-163.669
-154.351
-145.31
-136.567
-128.139
-120.036
-112.269
-104.843
-97.7597
-91.0203
-84.6222
-78.5614
-72.8322
-67.4272
-62.3381
-57.5556
-53.0693
-48.8685
-44.9418
-41.2777
-37.8641
-34.6892
-31.741
-29.0075
-26.477
-24.138
-21.9791
-19.9894
-18.1584
-16.4756
-14.9313
-13.5161
-12.2209
-11.0371
-9.95663
-8.97175
-8.07518
-7.26005
-6.51993
-5.84875
-5.24087
-4.69101
-4.19425
-3.746
-3.34204
-2.97842
-2.65151
-2.35796
-2.09468
-1.85883
-1.6478
-1.4592
-1.29085
-1.14074
-1.00706
-0.888145
-0.782495
-0.688741
-0.605641
-0.532077
-0.467035
-0.409603
-0.358959
-0.314365
-0.27516
-0.240751
-0.210608
-0.184261
-0.161291
-0.141327
-0.124043
-0.10915
-0.0963983
-0.0855704
-0.0764794
-0.0689668
-0.0629006
-0.058173
-0.0546997
-0.0524184
-0.0512878
-325.929
-324.958
-322.274
-318.089
-312.605
-306.001
-298.446
-290.103
-281.112
-271.599
-261.683
-251.472
-241.063
-230.543
-219.989
-209.468
-199.04
-188.756
-178.661
-168.793
-159.184
-149.86
-140.844
-132.151
-123.795
-115.784
-108.125
-100.821
-93.8703
-87.2719
-81.0213
-75.1127
-69.5385
-64.29
-59.3577
-54.731
-50.3987
-46.349
-42.5701
-39.0497
-35.7754
-32.7349
-29.9158
-27.3061
-24.8938
-22.6673
-20.6154
-18.7269
-16.9915
-15.3989
-13.9393
-12.6035
-11.3827
-10.2684
-9.25267
-8.32803
-7.48738
-6.72408
-6.03189
-5.40498
-4.8379
-4.32558
-3.8633
-3.44669
-3.07168
-2.73454
-2.4318
-2.16027
-1.91704
-1.6994
-1.50489
-1.33127
-1.17646
-1.03859
-0.915956
-0.806998
-0.710308
-0.624606
-0.548738
-0.48166
-0.422429
-0.3702
-0.32421
-0.283777
-0.24829
-0.217203
-0.190031
-0.166342
-0.145753
-0.127927
-0.112568
-0.0994171
-0.0882502
-0.0788745