/*--------------------------------*- C++ -*----------------------------------*\
| =========                 |                                                 |
| \\      /  F ield         | OpenFOAM: The Open Source CFD Toolbox           |
|  \\    /   O peration     | Version:  2406                                  |
|   \\  /    A nd           | Website:  www.openfoam.com                      |
|    \\/     M anipulation  |                                                 |
\*---------------------------------------------------------------------------*/
FoamFile
{
    version     2.0;
    format      ascii;
    arch        "LSB;label=32;scalar=64";
    class       volScalarField;
    location    "175";
    object      gradTy;
}
// * * * * * * * * * * * * * * * * * * * * * * * * * * * * * * * * * * * * * //

dimensions      [0 -1 0 1 0 0 0];

internalField   nonuniform List<scalar> 
20000
(
-214.926
-203.889
-192.956
-182.157
-171.517
-161.062
-150.813
-140.788
-131.005
-121.478
-112.22
-103.241
-94.5491
-86.1522
-78.0553
-70.2622
-62.7755
-55.5966
-48.7257
-42.1618
-35.9034
-29.9475
-24.2907
-18.9287
-13.8568
-9.06942
-4.56066
-0.324164
3.64683
7.3594
10.8209
14.0389
17.0212
19.7757
22.3104
24.6334
26.7528
28.6767
30.4133
31.9705
33.3563
34.5787
35.6453
36.5638
37.3418
37.9865
38.505
38.9044
39.1915
39.3728
39.4548
39.4435
39.3449
39.1649
38.9089
38.5822
38.1899
37.7369
37.2279
36.6671
36.059
35.4074
34.7162
33.9889
33.2289
32.4395
31.6236
30.7841
29.9234
29.0442
28.1487
27.2389
26.3169
25.3844
24.4431
23.4945
22.5399
21.5805
20.6175
19.6519
18.6845
17.716
16.7472
15.7786
14.8107
13.8438
12.8783
11.9143
10.9521
9.99165
9.03311
8.07641
7.12148
6.16823
5.2165
4.26612
3.31687
2.36853
1.42085
0.473572
-214.872
-203.839
-192.909
-182.112
-171.475
-161.022
-150.775
-140.753
-130.973
-121.448
-112.192
-103.215
-94.5259
-86.131
-78.036
-70.2448
-62.76
-55.5829
-48.7136
-42.1514
-35.8945
-29.9401
-24.2847
-18.9241
-13.8534
-9.06718
-4.55954
-0.324085
3.64593
7.35759
10.8182
14.0355
17.017
19.7708
22.3049
24.6273
26.7462
28.6697
30.4058
31.9626
33.3481
34.5701
35.6365
36.5548
37.3326
37.9771
38.4955
38.8948
39.1818
39.3631
39.445
39.4337
39.3352
39.1552
38.8993
38.5727
38.1805
37.7276
37.2187
36.6581
36.0501
35.3987
34.7076
33.9805
33.2207
32.4315
31.6158
30.7765
29.9161
29.0371
28.1417
27.2322
26.3104
25.3782
24.4371
23.4887
22.5343
21.5752
20.6124
19.647
18.6799
17.7117
16.7431
15.7747
14.807
13.8404
12.8751
11.9114
10.9494
9.98918
9.03088
8.07441
7.11973
6.16671
5.21522
4.26507
3.31605
2.36795
1.4205
0.473455
-214.766
-203.738
-192.814
-182.022
-171.39
-160.942
-150.701
-140.684
-130.908
-121.388
-112.137
-103.164
-94.4793
-86.0885
-77.9975
-70.2102
-62.729
-55.5554
-48.6896
-42.1306
-35.8768
-29.9253
-24.2727
-18.9147
-13.8466
-9.06271
-4.55729
-0.323924
3.64413
7.35396
10.8129
14.0285
17.0086
19.7611
22.2939
24.6152
26.733
28.6555
30.3908
31.9468
33.3316
34.5531
35.6189
36.5368
37.3142
37.9584
38.4765
38.8757
39.1625
39.3437
39.4255
39.4143
39.3158
39.1359
38.8801
38.5537
38.1617
37.709
37.2003
36.64
36.0323
35.3812
34.6905
33.9637
33.2043
32.4155
31.6002
30.7613
29.9013
29.0227
28.1278
27.2188
26.2974
25.3656
24.425
23.4771
22.5232
21.5645
20.6023
19.6373
18.6707
17.7029
16.7348
15.767
14.7997
13.8336
12.8687
11.9055
10.944
9.98425
9.02642
8.07043
7.11621
6.16367
5.21264
4.26296
3.31442
2.36678
1.4198
0.473221
-214.607
-203.587
-192.671
-181.887
-171.263
-160.823
-150.589
-140.58
-130.811
-121.299
-112.054
-103.088
-94.4093
-86.0248
-77.9397
-70.1581
-62.6825
-55.5142
-48.6535
-42.0994
-35.8502
-29.9032
-24.2548
-18.9007
-13.8363
-9.056
-4.55391
-0.323681
3.64144
7.34852
10.8049
14.0181
16.996
19.7465
22.2774
24.597
26.7132
28.6343
30.3683
31.9232
33.307
34.5275
35.5925
36.5097
37.2865
37.9302
38.448
38.8469
39.1335
39.3146
39.3964
39.3851
39.2867
39.1069
38.8513
38.5251
38.1334
37.6811
37.1728
36.6129
36.0056
35.355
34.6648
33.9386
33.1798
32.3915
31.5768
30.7385
29.8791
29.0012
28.107
27.1986
26.278
25.3469
24.4069
23.4597
22.5065
21.5486
20.587
19.6228
18.6568
17.6898
16.7225
15.7553
14.7888
13.8233
12.8592
11.8967
10.9358
9.97686
9.01973
8.06445
7.11094
6.1591
5.20878
4.2598
3.31196
2.36502
1.41875
0.472871
-214.396
-203.386
-192.48
-181.707
-171.094
-160.665
-150.44
-140.441
-130.682
-121.179
-111.943
-102.986
-94.3161
-85.9398
-77.8627
-70.0888
-62.6206
-55.4594
-48.6054
-42.0579
-35.8148
-29.8737
-24.2308
-18.8821
-13.8226
-9.04706
-4.54942
-0.32336
3.63784
7.34126
10.7942
14.0043
16.9792
19.727
22.2554
24.5727
26.6868
28.606
30.3383
31.8916
33.2741
34.4934
35.5574
36.4737
37.2497
37.8928
38.4101
38.8085
39.0949
39.2757
39.3574
39.3462
39.2479
39.0683
38.8129
38.487
38.0957
37.6439
37.136
36.5767
35.97
35.3201
34.6305
33.9051
33.147
32.3595
31.5456
30.7081
29.8496
28.9726
28.0793
27.1717
26.252
25.3218
24.3828
23.4365
22.4843
21.5273
20.5667
19.6034
18.6384
17.6723
16.7059
15.7397
14.7742
13.8097
12.8465
11.8849
10.925
9.96701
9.01082
8.05648
7.10392
6.15302
5.20364
4.2556
3.30869
2.36269
1.41735
0.472404
-214.131
-203.135
-192.243
-181.483
-170.883
-160.466
-150.255
-140.267
-130.52
-121.029
-111.805
-102.859
-94.1995
-85.8336
-77.7665
-70.0022
-62.5432
-55.3909
-48.5454
-42.0059
-35.7706
-29.8368
-24.2009
-18.8588
-13.8056
-9.03588
-4.54379
-0.322959
3.63335
7.33219
10.7809
13.987
16.9583
19.7026
22.2279
24.5423
26.6539
28.5707
30.3008
31.8522
33.2329
34.4508
35.5135
36.4286
37.2037
37.846
38.3626
38.7605
39.0466
39.2272
39.3088
39.2976
39.1994
39.02
38.765
38.4395
38.0487
37.5974
37.0902
36.5315
35.9256
35.2764
34.5878
33.8632
33.106
32.3195
31.5066
30.6702
29.8127
28.9368
28.0446
27.1382
26.2196
25.2905
24.3527
23.4076
22.4565
21.5007
20.5413
19.5792
18.6154
17.6505
16.6853
15.7203
14.7559
13.7926
12.8306
11.8702
10.9115
9.95469
8.99969
8.04653
7.09514
6.14542
5.19721
4.25034
3.3046
2.35977
1.41559
0.47182
-213.813
-202.834
-191.957
-181.214
-170.629
-160.228
-150.032
-140.059
-130.327
-120.849
-111.639
-102.706
-94.0598
-85.7062
-77.6511
-69.8983
-62.4504
-55.3087
-48.4734
-41.9436
-35.7175
-29.7925
-24.165
-18.8308
-13.7851
-9.02247
-4.53705
-0.322476
3.62796
7.32132
10.7649
13.9663
16.9331
19.6734
22.1949
24.5059
26.6143
28.5283
30.2558
31.805
33.1836
34.3997
35.4608
36.3746
37.1485
37.7898
38.3057
38.703
38.9886
39.169
39.2505
39.2393
39.1412
38.9621
38.7075
38.3825
37.9922
37.5416
37.0351
36.4773
35.8723
35.2241
34.5364
33.8129
33.0569
32.2716
31.4599
30.6247
29.7685
28.8938
28.0029
27.0979
26.1807
25.253
24.3166
23.3728
22.4232
21.4688
20.5108
19.5501
18.5877
17.6243
16.6605
15.6969
14.734
13.7721
12.8116
11.8526
10.8954
9.93992
8.98634
8.03459
7.08461
6.1363
5.1895
4.24403
3.2997
2.35627
1.41349
0.47112
-213.442
-202.482
-191.625
-180.9
-170.333
-159.95
-149.772
-139.816
-130.101
-120.64
-111.446
-102.528
-93.8968
-85.5577
-77.5166
-69.7772
-62.3422
-55.2129
-48.3894
-41.8709
-35.6556
-29.7409
-24.1231
-18.7982
-13.7612
-9.00684
-4.52918
-0.321914
3.62168
7.30863
10.7462
13.9421
16.9038
19.6393
22.1565
24.4634
26.5682
28.4789
30.2034
31.7499
33.1261
34.3401
35.3993
36.3115
37.0841
37.7243
38.2393
38.636
38.9211
39.1011
39.1825
39.1713
39.0734
38.8946
38.6404
38.316
37.9264
37.4765
36.971
36.4141
35.8101
35.163
34.4766
33.7543
32.9996
32.2157
31.4054
30.5716
29.7169
28.8438
27.9544
27.051
26.1353
25.2092
24.2744
23.3323
22.3843
21.4316
20.4752
19.5163
18.5555
17.5938
16.6317
15.6698
14.7085
13.7483
12.7894
11.8321
10.8765
9.9227
8.97077
8.02067
7.07234
6.12566
5.1805
4.23668
3.29398
2.35218
1.41104
0.470304
-213.019
-202.081
-191.245
-180.541
-169.996
-159.633
-149.475
-139.539
-129.843
-120.401
-111.225
-102.325
-93.7106
-85.3881
-77.3629
-69.6389
-62.2186
-55.1034
-48.2935
-41.7879
-35.585
-29.6819
-24.0753
-18.7609
-13.7339
-8.98898
-4.5202
-0.321273
3.6145
7.29415
10.7249
13.9144
16.8703
19.6003
22.1126
24.4149
26.5155
28.4224
30.1435
31.6869
33.0605
34.272
35.3292
36.2395
37.0106
37.6495
38.1635
38.5594
38.8439
39.0236
39.1048
39.0936
38.996
38.8175
38.5638
38.24
37.8512
37.4022
36.8977
36.3419
35.7391
35.0933
34.4082
33.6874
32.9342
32.1518
31.3431
30.511
29.658
28.7866
27.899
26.9973
26.0835
25.1593
24.2263
23.2861
22.3399
21.3891
20.4346
19.4776
18.5187
17.5589
16.5987
15.6387
14.6793
13.721
12.764
11.8086
10.8549
9.90302
8.95298
8.00477
7.05832
6.11352
5.17023
4.22828
3.28745
2.34752
1.40825
0.469371
-212.543
-201.63
-190.818
-180.138
-169.616
-159.277
-149.141
-139.228
-129.553
-120.132
-110.976
-102.097
-93.5014
-85.1974
-77.1901
-69.4834
-62.0797
-54.9804
-48.1856
-41.6946
-35.5055
-29.6156
-24.0215
-18.719
-13.7032
-8.9689
-4.51011
-0.320552
3.60644
7.27786
10.701
13.8834
16.8326
19.5566
22.0632
24.3604
26.4563
28.3589
30.0762
31.6162
32.9866
34.1955
35.2503
36.1586
36.9279
37.5655
38.0783
38.4733
38.7572
38.9365
39.0175
39.0063
38.9089
38.7308
38.4777
38.1546
37.7667
37.3187
36.8153
36.2608
35.6593
35.015
34.3314
33.6122
32.8607
32.08
31.2731
30.4429
29.5918
28.7223
27.8367
26.937
26.0252
25.1031
24.1722
23.2341
22.29
21.3413
20.389
19.4341
18.4774
17.5197
16.5616
15.6038
14.6465
13.6904
12.7355
11.7822
10.8307
9.88091
8.93299
7.98689
7.04255
6.09987
5.15869
4.21884
3.28011
2.34228
1.4051
0.468323
-212.015
-201.129
-190.344
-179.69
-169.195
-158.881
-148.77
-138.882
-129.231
-119.834
-110.701
-101.843
-93.269
-84.9857
-76.9983
-69.3107
-61.9254
-54.8438
-48.0659
-41.591
-35.4173
-29.542
-23.9618
-18.6725
-13.6692
-8.94661
-4.4989
-0.319752
3.59748
7.25978
10.6744
13.8489
16.7908
19.508
22.0084
24.2999
26.3906
28.2885
30.0015
31.5376
32.9047
34.1105
35.1627
36.0688
36.8362
37.4721
37.9837
38.3777
38.6609
38.8397
38.9205
38.9094
38.8122
38.6346
38.3821
38.0598
37.6728
37.226
36.7238
36.1707
35.5707
34.928
34.2461
33.5287
32.779
32.0003
31.1954
30.3672
29.5183
28.6509
27.7675
26.8701
25.9606
25.0407
24.1121
23.1763
22.2347
21.2883
20.3383
19.3858
18.4315
17.4762
16.5205
15.565
14.6102
13.6564
12.7039
11.753
10.8038
9.85636
8.91079
7.96704
7.02505
6.08471
5.14587
4.20835
3.27196
2.33646
1.40161
0.467159
-211.435
-200.578
-189.823
-179.198
-168.731
-158.446
-148.363
-138.501
-128.877
-119.505
-110.398
-101.564
-93.0137
-84.753
-76.7875
-69.121
-61.7559
-54.6936
-47.9343
-41.4771
-35.3203
-29.4612
-23.8962
-18.6214
-13.6318
-8.92212
-4.48658
-0.318873
3.58763
7.23991
10.6452
13.8109
16.7448
19.4546
21.9481
24.2334
26.3183
28.211
29.9194
31.4513
32.8146
34.0171
35.0664
35.97
36.7353
37.3695
37.8797
38.2726
38.555
38.7334
38.814
38.8029
38.7059
38.5288
38.277
37.9556
37.5697
37.124
36.6232
36.0716
35.4733
34.8323
34.1523
33.4369
32.6893
31.9127
31.11
30.2841
29.4374
28.5725
27.6915
26.7965
25.8895
24.9721
24.0461
23.1129
22.1738
21.23
20.2827
19.3327
18.381
17.4283
16.4752
15.5224
14.5702
13.619
12.6691
11.7208
10.7742
9.82937
8.88639
7.94523
7.00582
6.06805
5.13178
4.19683
3.263
2.33006
1.39777
0.46588
-210.802
-199.978
-189.255
-178.662
-168.227
-157.972
-147.919
-138.087
-128.492
-119.148
-110.067
-101.26
-92.7354
-84.4995
-76.5578
-68.9142
-61.5711
-54.53
-47.7909
-41.353
-35.2146
-29.373
-23.8247
-18.5656
-13.591
-8.89542
-4.47315
-0.317916
3.5769
7.21825
10.6133
13.7696
16.6947
19.3964
21.8824
24.1609
26.2396
28.1266
29.8298
31.3572
32.7164
33.9153
34.9615
35.8624
36.6254
37.2577
37.7663
38.1581
38.4397
38.6175
38.6978
38.6868
38.5901
38.4135
38.1624
37.842
37.4573
37.013
36.5137
35.9637
35.3672
34.7281
34.0501
33.3368
32.5915
31.8172
31.0169
30.1935
29.3494
28.487
27.6087
26.7164
25.812
24.8974
23.9742
23.0437
22.1074
21.1665
20.222
19.2749
18.326
17.3762
16.4259
15.4759
14.5266
13.5782
12.6312
11.6857
10.7419
9.79996
8.8598
7.92146
6.98486
6.04989
5.11642
4.18427
3.25324
2.32309
1.39359
0.464486
-210.118
-199.328
-188.64
-178.082
-167.68
-157.459
-147.439
-137.639
-128.075
-118.761
-109.71
-100.931
-92.4342
-84.225
-76.3092
-68.6904
-61.3712
-54.3529
-47.6357
-41.2187
-35.1003
-29.2776
-23.7473
-18.5053
-13.5468
-8.86653
-4.45862
-0.316879
3.56529
7.19482
10.5789
13.7249
16.6405
19.3334
21.8114
24.0824
26.1544
28.0353
29.733
31.2553
32.6102
33.8052
34.8479
35.7459
36.5065
37.1367
37.6437
38.0342
38.3148
38.4921
38.5722
38.5611
38.4648
38.2888
38.0385
37.7191
37.3356
36.8928
36.3951
35.8469
35.2523
34.6153
33.9396
33.2285
32.4856
31.7138
30.9162
30.0954
29.254
28.3945
27.519
26.6296
25.7282
24.8166
23.8963
22.9689
22.0356
21.0977
20.1563
19.2123
18.2665
17.3197
16.3726
15.4257
14.4794
13.5341
12.5902
11.6478
10.7071
9.76813
8.83103
7.89573
6.96217
6.03024
5.09981
4.17068
3.24267
2.31554
1.38906
0.462978
-209.381
-198.63
-187.979
-177.458
-167.092
-156.907
-146.922
-137.156
-127.626
-118.345
-109.325
-100.578
-92.1102
-83.9298
-76.0417
-68.4496
-61.1561
-54.1624
-47.4687
-41.0743
-34.9772
-29.175
-23.6641
-18.4405
-13.4993
-8.83544
-4.44298
-0.315763
3.5528
7.1696
10.5418
13.6768
16.5822
19.2656
21.7349
23.998
26.0627
27.937
29.6287
31.1458
32.4959
33.6867
34.7258
35.6206
36.3785
37.0066
37.5117
37.9009
38.1805
38.3571
38.437
38.426
38.33
38.1546
37.9052
37.5869
37.2048
36.7634
36.2675
35.7212
35.1288
34.494
33.8206
33.1121
32.3717
31.6027
30.8078
29.9899
29.1515
28.295
27.4225
26.5362
25.638
24.7296
23.8125
22.8884
21.9584
21.0238
20.0857
19.1449
18.2025
17.259
16.3152
15.3716
14.4286
13.4867
12.546
11.6069
10.6695
9.73389
8.80007
7.86805
6.93777
6.00911
5.08193
4.15606
3.2313
2.30743
1.3842
0.461355
-208.593
-197.882
-187.271
-176.79
-166.464
-156.316
-146.369
-136.64
-127.145
-117.899
-108.914
-100.199
-91.7635
-83.6139
-75.7555
-68.1919
-60.9259
-53.9585
-47.29
-40.9197
-34.8456
-29.0652
-23.575
-18.3711
-13.4485
-8.80218
-4.42626
-0.314571
3.53943
7.14262
10.5021
13.6253
16.5198
19.1931
21.6531
23.9077
25.9646
27.8319
29.5172
31.0285
32.3736
33.5599
34.5951
35.4866
36.2416
36.8673
37.3705
37.7582
38.0368
38.2128
38.2923
38.2813
38.1857
38.011
37.7625
37.4454
37.0647
36.6251
36.131
35.5868
34.9965
34.3642
33.6933
32.9874
32.2499
31.4837
30.6919
29.877
29.0418
28.1885
27.3193
26.4364
25.5415
24.6365
23.7229
22.8022
21.8757
20.9447
20.01
19.0729
18.134
17.1941
16.2538
15.3137
14.3743
13.4359
12.4988
11.5632
10.6294
9.69725
8.76695
7.83844
6.91165
5.98649
5.0628
4.14042
3.21914
2.29874
1.37899
0.459618
-207.753
-197.086
-186.517
-176.078
-165.794
-155.687
-145.78
-136.09
-126.633
-117.425
-108.475
-99.7957
-91.3941
-83.2774
-75.4505
-67.9175
-60.6806
-53.7413
-47.0997
-40.755
-34.7053
-28.9482
-23.4801
-18.2971
-13.3944
-8.76675
-4.40844
-0.313301
3.52519
7.11387
10.4599
13.5705
16.4533
19.1159
21.566
23.8114
25.8601
27.7198
29.3984
30.9037
32.2432
33.4248
34.4558
35.3437
36.0957
36.7189
37.2201
37.6062
37.8837
38.059
38.1381
38.1272
38.032
37.858
37.6105
37.2947
36.9155
36.4776
35.9856
35.4435
34.8557
34.2258
33.5577
32.8547
32.1201
31.357
30.5683
29.7568
28.9249
28.075
27.2093
26.3299
25.4387
24.5373
23.6274
22.7104
21.7877
20.8603
19.9295
18.9961
18.061
17.1248
16.1884
15.2521
14.3165
13.3818
12.4485
11.5167
10.5866
9.65822
8.73166
7.80689
6.88383
5.96239
5.04242
4.12375
3.20618
2.28949
1.37343
0.457768
-206.863
-196.24
-185.718
-175.323
-165.083
-155.02
-145.155
-135.506
-126.09
-116.921
-108.01
-99.3678
-91.0022
-82.9203
-75.127
-67.6262
-60.4204
-53.5109
-46.8977
-40.5802
-34.5565
-28.8241
-23.3795
-18.2186
-13.337
-8.72915
-4.38953
-0.311955
3.51007
7.08337
10.415
13.5123
16.3827
19.0339
21.4735
23.7093
25.7492
27.601
29.2724
30.7711
32.105
33.2815
34.3081
35.1922
35.9409
36.5614
37.0605
37.445
37.7213
37.8958
37.9746
37.9637
37.8689
37.6956
37.4492
37.1348
36.7572
36.3212
35.8312
35.2916
34.7062
34.0791
33.4138
32.7138
31.9823
31.2225
30.4372
29.6292
28.8008
27.9546
27.0927
26.217
25.3296
24.4321
23.5261
22.6131
21.6943
20.7709
19.844
18.9146
17.9835
17.0514
16.119
15.1867
14.2551
13.3244
12.3951
11.4673
10.5412
9.6168
8.69422
7.77341
6.85431
5.93682
5.0208
4.10607
3.19243
2.27967
1.36755
0.455805
-205.921
-195.347
-184.872
-174.525
-164.331
-154.314
-144.494
-134.889
-125.516
-116.389
-107.518
-98.9154
-90.5879
-82.5427
-74.7849
-67.3183
-60.1453
-53.2672
-46.6842
-40.3954
-34.3992
-28.6928
-23.273
-18.1357
-13.2762
-8.68941
-4.36954
-0.310533
3.49409
7.05112
10.3676
13.4508
16.3081
18.9472
21.3757
23.6014
25.632
27.4753
29.1391
30.631
31.9588
33.1299
34.1519
35.0319
35.7773
36.3949
36.8918
37.2745
37.5495
37.7232
37.8017
37.7909
37.6965
37.524
37.2787
36.9657
36.5899
36.1558
35.6681
35.1309
34.5482
33.9239
33.2616
32.5648
31.8367
31.0804
30.2987
29.4943
28.6697
27.8273
26.9693
26.0977
25.2143
24.3209
23.419
22.5101
21.5955
20.6763
19.7537
18.8285
17.9016
16.9738
16.0456
15.1175
14.1902
13.2638
12.3387
11.4151
10.4932
9.57301
8.65463
7.73801
6.8231
5.90979
4.99794
4.08737
3.1779
2.26929
1.36132
0.45373
-204.928
-194.405
-183.981
-173.683
-163.539
-153.57
-143.797
-134.239
-124.911
-115.828
-107
-98.4385
-90.1512
-82.1448
-74.4244
-66.9938
-59.8554
-53.0104
-46.4591
-40.2007
-34.2333
-28.5545
-23.1608
-18.0483
-13.2122
-8.64751
-4.34847
-0.309033
3.47725
7.01713
10.3176
13.3859
16.2295
18.8559
21.2727
23.4876
25.5084
27.3428
28.9986
30.4834
31.8047
32.9702
33.9872
34.8631
35.6048
36.2195
36.7139
37.0948
37.3685
37.5413
37.6195
37.6087
37.5147
37.3431
37.099
36.7875
36.4135
35.9815
35.4961
34.9615
34.3816
33.7603
33.1013
32.4078
31.6832
30.9305
30.1526
29.3521
28.5315
27.6932
26.8393
25.9718
25.0927
24.2036
23.3061
22.4016
21.4914
20.5766
19.6585
18.7377
17.8153
16.8919
15.9682
15.0447
14.1217
13.1998
12.2792
11.3601
10.4426
9.52686
8.61291
7.70071
6.79021
5.8813
4.97384
4.06767
3.16258
2.25835
1.35476
0.451542
-203.885
-193.415
-183.044
-172.799
-162.706
-152.788
-143.065
-133.556
-124.275
-115.238
-106.455
-97.9374
-89.6922
-81.7266
-74.0455
-66.6527
-59.5506
-52.7405
-46.2226
-39.996
-34.059
-28.4091
-23.0429
-17.9564
-13.145
-8.60349
-4.32633
-0.307457
3.45955
6.98141
10.2651
13.3178
16.1469
18.7599
21.1644
23.368
25.3786
27.2036
28.851
30.3282
31.6428
32.8024
33.8142
34.6856
35.4235
36.0351
36.527
36.9059
37.1782
37.3502
37.4279
37.4172
37.3238
37.153
36.9101
36.6002
36.2281
35.7984
35.3154
34.7835
34.2066
33.5885
32.9328
32.2428
31.5219
30.7731
29.9991
29.2026
28.3862
27.5522
26.7026
25.8396
24.965
24.0804
23.1874
22.2875
21.3819
20.4719
19.5584
18.6423
17.7246
16.8059
15.8869
14.9681
14.0498
13.1326
12.2167
11.3022
10.3894
9.47836
8.56906
7.6615
6.75564
5.85136
4.94852
4.04696
3.14648
2.24685
1.34786
0.449244
-202.791
-192.378
-182.062
-171.872
-161.833
-151.968
-142.298
-132.839
-123.609
-114.62
-105.884
-97.412
-89.2111
-81.2882
-73.6484
-66.2952
-59.2312
-52.4577
-45.9747
-39.7815
-33.8764
-28.2567
-22.9193
-17.8601
-13.0744
-8.55734
-4.30313
-0.305806
3.441
6.94396
10.21
13.2464
16.0603
18.6593
21.0509
23.2427
25.2424
27.0577
28.6962
30.1655
31.4731
32.6264
33.6328
34.4995
35.2335
35.8418
36.3311
36.708
36.9788
37.1499
37.2272
37.2165
37.1236
36.9537
36.7121
36.4039
36.0338
35.6063
35.126
34.5969
34.0231
33.4083
32.7561
32.0699
31.3529
30.608
29.8382
29.046
28.234
27.4044
26.5594
25.701
24.8311
23.9512
23.0631
22.168
21.2673
20.3621
19.4535
18.5423
17.6296
16.7158
15.8017
14.8878
13.9745
13.0622
12.1512
11.2416
10.3337
9.42752
8.52309
7.62041
6.7194
5.81997
4.92198
4.02525
3.1296
2.2348
1.34063
0.446834
-201.648
-191.293
-181.036
-170.903
-160.921
-151.111
-141.495
-132.09
-122.912
-113.974
-105.287
-96.8627
-88.7081
-80.8298
-73.233
-65.9213
-58.8972
-52.1618
-45.7154
-39.5571
-33.6853
-28.0974
-22.79
-17.7593
-13.0007
-8.50908
-4.27886
-0.30408
3.42159
6.9048
10.1525
13.1717
15.9697
18.554
20.9321
23.1116
25.1001
26.9051
28.5344
29.9954
31.2956
32.4424
33.4432
34.305
35.0348
35.6397
36.1262
36.5009
36.7703
36.9404
37.0172
37.0067
36.9142
36.7453
36.5051
36.1986
35.8306
35.4055
34.9279
34.4018
33.8312
33.2199
32.5714
31.889
31.176
30.4354
29.6699
28.8822
28.0747
27.2498
26.4096
25.5561
24.691
23.8162
22.933
22.043
21.1473
20.2472
19.3438
18.4378
17.5301
16.6215
15.7126
14.8038
13.8957
12.9885
12.0826
11.1782
10.2754
9.37435
8.47503
7.57743
6.68151
5.78715
4.89422
4.00255
3.11195
2.2222
1.33307
0.444314
-200.454
-190.161
-179.964
-169.892
-159.968
-150.217
-140.658
-131.308
-122.184
-113.299
-104.664
-96.2895
-88.1831
-80.3515
-72.7996
-65.5312
-58.5486
-51.8531
-45.4449
-39.323
-33.486
-27.9311
-22.6552
-17.6542
-12.9238
-8.45872
-4.25353
-0.302279
3.40134
6.86394
10.0924
13.0937
15.8752
18.4442
20.8083
22.9748
24.9515
26.7459
28.3655
29.8179
31.1104
32.2504
33.2452
34.1019
34.8275
35.4288
35.9124
36.2849
36.5527
36.7218
36.7982
36.7876
36.6957
36.5278
36.2891
35.9844
35.6185
35.196
34.7212
34.1982
33.631
33.0233
32.3786
31.7003
30.9915
30.2553
29.4943
28.7113
27.9086
27.0886
26.2533
25.4048
24.5449
23.6752
22.7973
21.9125
21.0222
20.1274
19.2293
18.3287
17.4264
16.5232
15.6196
14.7162
13.8134
12.9117
12.0111
11.1121
10.2146
9.31887
8.42487
7.53259
6.64197
5.7529
4.86526
3.97886
3.09353
2.20905
1.32518
0.441684
-199.211
-188.982
-178.848
-168.838
-158.977
-149.286
-139.786
-130.494
-121.427
-112.597
-104.015
-95.6925
-87.6363
-79.8533
-72.3483
-65.1249
-58.1856
-51.5316
-45.1631
-39.0792
-33.2783
-27.7579
-22.5147
-17.5448
-12.8436
-8.40627
-4.22716
-0.300404
3.38026
6.82139
10.0298
13.0125
15.7768
18.3299
20.6793
22.8324
24.7968
26.5801
28.1896
29.633
30.9175
32.0505
33.0391
33.8905
34.6116
35.2091
35.6897
36.06
36.326
36.4941
36.57
36.5596
36.4682
36.3014
36.0641
35.7613
35.3977
34.9778
34.5059
33.9862
33.4225
32.8186
32.1779
31.5038
30.7994
30.0677
29.3114
28.5332
27.7356
26.9206
26.0906
25.2473
24.3927
23.5284
22.6559
21.7766
20.8918
20.0026
19.11
18.215
17.3183
16.4207
15.5227
14.625
13.7278
12.8316
11.9366
11.0432
10.1513
9.2611
8.37264
7.48589
6.60078
5.71723
4.83509
3.95419
3.07435
2.19535
1.31696
0.438946
-197.919
-187.756
-177.689
-167.743
-157.946
-148.318
-138.879
-129.648
-120.639
-111.866
-103.341
-95.0718
-87.068
-79.3354
-71.879
-64.7026
-57.8083
-51.1974
-44.8702
-38.8258
-33.0625
-27.5779
-22.3687
-17.431
-12.7603
-8.35175
-4.19975
-0.298456
3.35833
6.77714
9.96475
12.9281
15.6745
18.211
20.5451
22.6843
24.636
26.4077
28.0068
29.4408
30.717
31.8426
32.8248
33.6707
34.3871
34.9807
35.4583
35.8261
36.0904
36.2574
36.3328
36.3224
36.2317
36.0659
35.8302
35.5293
35.1681
34.7509
34.2821
33.7658
33.2057
32.6057
31.9692
31.2994
30.5996
29.8727
29.1213
28.3482
27.5557
26.746
25.9213
25.0836
24.2345
23.3758
22.509
21.6354
20.7563
19.8729
18.9861
18.0969
17.206
16.3142
15.4221
14.5301
13.6388
12.7484
11.8592
10.9715
10.0854
9.20103
8.31833
7.43734
6.55797
5.68015
4.80373
3.92855
3.05441
2.18111
1.30842
0.436099
-196.579
-186.484
-176.485
-166.607
-156.876
-147.313
-137.938
-128.77
-119.822
-111.108
-102.641
-94.4278
-86.4781
-78.7979
-71.3921
-64.2642
-57.4166
-50.8506
-44.5662
-38.5628
-32.8385
-27.3911
-22.2171
-17.3129
-12.6739
-8.29517
-4.17129
-0.296435
3.33558
6.73123
9.89724
12.8406
15.5683
18.0876
20.4059
22.5306
24.4691
26.2288
27.8171
29.2414
30.5089
31.6269
32.6025
33.4426
34.1541
34.7438
35.2181
35.5834
35.8459
36.0118
36.0867
36.0764
35.9862
35.8216
35.5874
35.2886
34.9298
34.5155
34.0499
33.537
32.9808
32.3848
31.7526
31.0874
30.3923
29.6703
28.924
28.1561
27.369
26.5648
25.7457
24.9136
24.0703
23.2175
22.3565
21.4888
20.6157
19.7383
18.8575
17.9743
17.0895
16.2037
15.3176
14.4317
13.5464
12.662
11.7789
10.8972
10.0171
9.1387
8.26198
7.38695
6.51355
5.64167
4.77119
3.90193
3.03372
2.16634
1.29956
0.433145
-195.189
-185.166
-175.237
-165.429
-155.767
-146.272
-136.964
-127.86
-118.975
-110.323
-101.915
-93.7604
-85.8669
-78.241
-70.8875
-63.81
-57.0108
-50.4912
-44.2512
-38.2902
-32.6064
-27.1975
-22.0601
-17.1905
-12.5843
-8.23655
-4.14181
-0.29434
3.31201
6.68366
9.82729
12.7498
15.4582
17.9598
20.2617
22.3714
24.2962
26.0434
27.6205
29.0347
30.2933
31.4034
32.372
33.2062
33.9127
34.4982
34.9691
35.3319
35.5926
35.7572
35.8316
35.8214
35.7319
35.5684
35.3359
35.0392
34.683
34.2716
33.8092
33.3
32.7477
32.1559
31.5282
30.8677
30.1775
29.4606
28.7196
27.9571
27.1756
26.3771
25.5638
24.7376
23.9002
23.0534
22.1985
21.337
20.47
19.5988
18.7242
17.8472
16.9687
16.0892
15.2093
14.3297
13.4506
12.5725
11.6956
10.8202
9.94632
9.07411
8.20359
7.33474
6.46751
5.6018
4.73747
3.87436
3.01228
2.15103
1.29037
0.430083
-193.752
-183.803
-173.947
-164.211
-154.62
-145.194
-135.955
-126.918
-118.099
-109.511
-101.165
-93.0699
-85.2346
-77.6648
-70.3655
-63.3401
-56.591
-50.1193
-43.9253
-38.0082
-32.3663
-26.9972
-21.8977
-17.0639
-12.4917
-8.17589
-4.11131
-0.292173
3.28761
6.63443
9.75492
12.6559
15.3444
17.8275
20.1125
22.2066
24.1172
25.8516
27.4171
28.8209
30.0702
31.1721
32.1336
32.9617
33.663
34.2441
34.7116
35.0717
35.3305
35.4939
35.5678
35.5576
35.4688
35.3065
35.0757
34.7812
34.4275
34.0192
33.5602
33.0548
32.5065
31.9191
31.296
30.6404
29.9553
29.2436
28.5081
27.7513
26.9754
26.1828
25.3755
24.5554
23.7242
22.8836
22.035
21.1798
20.3193
19.4544
18.5863
17.7158
16.8437
15.9707
15.0973
14.2241
13.3516
12.4799
11.6095
10.7405
9.87307
9.00728
8.14317
7.28072
6.41988
5.56054
4.70258
3.84582
2.9901
2.13518
1.28087
0.426916
-192.266
-182.394
-172.613
-162.952
-153.434
-144.081
-134.913
-125.945
-117.194
-108.671
-100.389
-92.3564
-84.5812
-77.0694
-69.8261
-62.8545
-56.1572
-49.7351
-43.5886
-37.7169
-32.1182
-26.7902
-21.7298
-16.9331
-12.3959
-8.11322
-4.0798
-0.289935
3.26241
6.58357
9.68014
12.5589
15.2268
17.6909
19.9583
22.0364
23.9324
25.6534
27.2069
28.5999
29.8396
30.9331
31.8873
32.709
33.4049
33.9816
34.4455
34.8028
35.0596
35.2218
35.2951
35.285
35.1969
35.0358
34.8068
34.5145
34.1636
33.7584
33.303
32.8014
32.2573
31.6744
31.0561
30.4055
29.7256
29.0194
28.2896
27.5385
26.7686
25.9821
25.181
24.3671
23.5423
22.7082
21.8661
21.0175
20.1635
19.3053
18.4438
17.58
16.7146
15.8482
14.9816
14.1151
13.2492
12.3843
11.5205
10.6582
9.79738
8.93823
8.08075
7.22491
6.37067
5.51792
4.66653
3.81634
2.96717
2.11882
1.27105
0.423643
-190.734
-180.94
-171.237
-161.653
-152.211
-142.933
-133.837
-124.941
-116.259
-107.805
-99.5888
-91.6202
-83.9069
-76.455
-69.2694
-62.3535
-55.7095
-49.3387
-43.2411
-37.4162
-31.8622
-26.5767
-21.5566
-16.7981
-12.2971
-8.04854
-4.04727
-0.287625
3.2364
6.53109
9.60297
12.4588
15.1054
17.5498
19.7992
21.8607
23.7416
25.4489
26.99
28.3719
29.6018
30.6865
31.6331
32.4482
33.1386
33.7107
34.1709
34.5254
34.7801
34.941
35.0137
35.0037
34.9163
34.7565
34.5293
34.2394
33.8913
33.4893
33.0375
32.5399
32.0002
31.4219
30.8085
30.1631
29.4887
28.7881
28.064
27.319
26.5552
25.775
24.9802
24.1729
23.3547
22.5271
21.6918
20.8499
20.0027
19.1514
18.2968
17.4399
16.5813
15.7219
14.8622
14.0026
13.1436
12.2855
11.4287
10.5732
9.71928
8.86698
8.01633
7.16731
6.31988
5.47393
4.62933
3.78592
2.94352
2.10192
1.26092
0.420266
-189.154
-179.441
-169.819
-160.314
-150.951
-141.749
-132.729
-123.906
-115.296
-106.912
-98.7639
-90.8613
-83.2119
-75.8218
-68.6957
-61.837
-55.2481
-48.93
-42.883
-37.1063
-31.5982
-26.3565
-21.378
-16.659
-12.1952
-7.98188
-4.01375
-0.285244
3.20959
6.47699
9.52343
12.3556
14.9803
17.4045
19.6352
21.6797
23.5449
25.2381
26.7664
28.1369
29.3566
30.4324
31.3711
32.1795
32.8641
33.4315
33.8879
34.2394
34.4921
34.6516
34.7237
34.7138
34.6271
34.4686
34.2433
33.9558
33.6105
33.2119
32.7638
32.2703
31.7351
31.1617
30.5533
29.9132
29.2444
28.5497
27.8316
27.0927
26.3353
25.5615
24.7733
23.9727
23.1612
22.3405
21.5121
20.6772
19.8371
18.9928
18.1452
17.2954
16.444
15.5917
14.7391
13.8866
13.0347
12.1838
11.334
10.4856
9.63878
8.79353
7.94993
7.10795
6.26753
5.42859
4.59098
3.75456
2.91914
2.08452
1.25047
0.416785
-187.527
-177.898
-168.359
-158.936
-149.653
-140.53
-131.587
-122.841
-114.305
-105.993
-97.9147
-90.08
-82.4964
-75.1698
-68.105
-61.3053
-54.773
-48.5093
-42.5143
-36.7872
-31.3266
-26.1299
-21.1942
-16.5158
-12.0904
-7.91325
-3.97924
-0.282792
3.182
6.4213
9.44154
12.2493
14.8515
17.2548
19.4664
21.4932
23.3425
25.0211
26.5363
27.895
29.1042
30.1707
31.1013
31.9028
32.5816
33.144
33.5965
33.945
34.1955
34.3537
34.4251
34.4153
34.3293
34.1722
33.9489
33.6638
33.3215
32.9263
32.4821
31.9929
31.4622
30.8937
30.2906
29.656
28.993
28.3042
27.5923
26.8597
26.1088
25.3417
24.5603
23.7665
22.9621
22.1484
21.3271
20.4994
19.6665
18.8294
17.9892
17.1467
16.3026
15.4576
14.6123
13.7672
12.9226
12.079
11.2366
10.3955
9.5559
8.71792
7.88157
7.04683
6.21364
5.38191
4.55151
3.72228
2.89404
2.06659
1.23972
0.413201
-185.855
-176.311
-166.857
-157.518
-148.318
-139.277
-130.414
-121.745
-113.285
-105.047
-97.0413
-89.2765
-81.7605
-74.4993
-67.4975
-60.7585
-54.2844
-48.0766
-42.135
-36.4591
-31.0471
-25.8968
-21.0052
-16.3685
-11.9825
-7.84266
-3.94375
-0.280271
3.15361
6.36402
9.35732
12.1401
14.719
17.1009
19.2927
21.3015
23.1343
24.7979
26.2996
27.6462
28.8445
29.9016
30.8239
31.6182
32.2909
32.8484
33.2968
33.6422
33.8904
34.0472
34.1181
34.1083
34.0231
33.8674
33.646
33.3635
33.0243
32.6326
32.1924
31.7075
31.1816
30.6181
30.0204
29.3915
28.7343
28.0517
27.3462
26.6201
25.8759
25.1156
24.3412
23.5545
22.7572
21.9509
21.1369
20.3166
19.4911
18.6615
17.8288
16.9937
16.1572
15.3197
14.482
13.6444
12.8074
11.9713
11.1363
10.3027
9.47066
8.64016
7.81127
6.98397
6.15822
5.3339
4.51091
3.68907
2.86822
2.04816
1.22866
0.409515
-184.136
-174.681
-165.314
-156.062
-146.946
-137.989
-129.208
-120.619
-112.238
-104.076
-96.1439
-88.451
-81.0045
-73.8104
-66.8734
-60.1966
-53.7825
-47.632
-41.7454
-36.1219
-30.76
-25.6574
-20.8109
-16.2171
-11.8717
-7.77014
-3.90728
-0.277681
3.12445
6.30517
9.27079
12.0278
14.5829
16.9428
19.1143
21.1046
22.9203
24.5686
26.0564
27.3905
28.5778
29.6251
30.5389
31.3258
31.9923
32.5446
32.9889
33.3311
33.5771
33.7324
33.8026
33.7929
33.7085
33.5542
33.3349
33.055
32.7189
32.3308
31.8947
31.4143
30.8933
30.335
29.7428
29.1197
28.4686
27.7923
27.0933
26.374
25.6367
24.8834
24.1162
23.3367
22.5468
21.7479
20.9414
20.1287
19.3108
18.4889
17.6639
16.8366
16.0078
15.1781
14.3481
13.5182
12.6889
11.8606
11.0333
10.2075
9.38308
8.56026
7.73904
6.91939
6.10127
5.28458
4.46919
3.65496
2.8417
2.02922
1.2173
0.405729
-182.372
-173.008
-163.731
-154.567
-145.538
-136.667
-127.97
-119.464
-111.163
-103.079
-95.2229
-87.6037
-80.2285
-73.1033
-66.2327
-59.62
-53.2672
-47.1757
-41.3455
-35.7759
-30.4654
-25.4116
-20.6116
-16.0617
-11.758
-7.69571
-3.86985
-0.275022
3.09451
6.24477
9.18197
11.9126
14.4432
16.7804
18.9312
20.9024
22.7008
24.3333
25.8068
27.1281
28.304
29.3413
30.2463
31.0257
31.6858
32.2329
32.6729
33.0118