/*--------------------------------*- C++ -*----------------------------------*\
| =========                 |                                                 |
| \\      /  F ield         | OpenFOAM: The Open Source CFD Toolbox           |
|  \\    /   O peration     | Version:  2406                                  |
|   \\  /    A nd           | Website:  www.openfoam.com                      |
|    \\/     M anipulation  |                                                 |
\*---------------------------------------------------------------------------*/
FoamFile
{
    version     2.0;
    format      ascii;
    arch        "LSB;label=32;scalar=64";
    class       volVectorField;
    location    "15";
    object      flux;
}
// * * * * * * * * * * * * * * * * * * * * * * * * * * * * * * * * * * * * * //

dimensions      [0 1 -1 1 0 0 0];

internalField   nonuniform List<vector> 
20000
(
(-0.00115375 0.0250919 0)
(-0.00106529 0.0228757 0)
(-0.000982353 0.020831 0)
(-0.000904678 0.0189466 0)
(-0.000832032 0.0172125 0)
(-0.000764241 0.0156187 0)
(-0.000701056 0.0141557 0)
(-0.000642225 0.0128146 0)
(-0.000587558 0.0115869 0)
(-0.000536869 0.0104645 0)
(-0.00048988 0.00943963 0)
(-0.000446389 0.00850514 0)
(-0.000406254 0.00765416 0)
(-0.000369255 0.0068802 0)
(-0.000335164 0.00617725 0)
(-0.000303809 0.00553965 0)
(-0.000275034 0.00496209 0)
(-0.000248671 0.00443957 0)
(-0.000224544 0.00396746 0)
(-0.000202488 0.00354145 0)
(-0.000182357 0.00315756 0)
(-0.000164016 0.00281207 0)
(-0.000147334 0.00250154 0)
(-0.000132183 0.00222277 0)
(-0.000118441 0.00197283 0)
(-0.000105993 0.00174903 0)
(-9.47319e-05 0.00154889 0)
(-8.45605e-05 0.00137013 0)
(-7.53873e-05 0.00121067 0)
(-6.71268e-05 0.0010686 0)
(-5.96992e-05 0.000942177 0)
(-5.30299e-05 0.000829816 0)
(-4.70496e-05 0.00073007 0)
(-4.16942e-05 0.000641629 0)
(-3.69047e-05 0.000563304 0)
(-3.26269e-05 0.000494019 0)
(-2.88112e-05 0.000432804 0)
(-2.54122e-05 0.000378782 0)
(-2.23883e-05 0.000331162 0)
(-1.97017e-05 0.000289234 0)
(-1.73179e-05 0.00025236 0)
(-1.52055e-05 0.000219967 0)
(-1.3336e-05 0.000191542 0)
(-1.16836e-05 0.000166626 0)
(-1.02248e-05 0.00014481 0)
(-8.93852e-06 0.000125729 0)
(-7.80576e-06 0.000109058 0)
(-6.80938e-06 9.45083e-05 0)
(-5.934e-06 8.18225e-05 0)
(-5.16583e-06 7.07737e-05 0)
(-4.4925e-06 6.11605e-05 0)
(-3.90299e-06 5.28048e-05 0)
(-3.38745e-06 4.55495e-05 0)
(-2.9371e-06 3.92558e-05 0)
(-2.54412e-06 3.38018e-05 0)
(-2.20159e-06 2.908e-05 0)
(-1.90335e-06 2.4996e-05 0)
(-1.64395e-06 2.14671e-05 0)
(-1.41856e-06 1.84206e-05 0)
(-1.22294e-06 1.57931e-05 0)
(-1.05333e-06 1.35291e-05 0)
(-9.06419e-07 1.15801e-05 0)
(-7.79295e-07 9.90368e-06 0)
(-6.69404e-07 8.46309e-06 0)
(-5.74503e-07 7.22623e-06 0)
(-4.92626e-07 6.16522e-06 0)
(-4.22055e-07 5.25584e-06 0)
(-3.61285e-07 4.4771e-06 0)
(-3.09004e-07 3.81079e-06 0)
(-2.64069e-07 3.24116e-06 0)
(-2.25483e-07 2.75458e-06 0)
(-1.92378e-07 2.33928e-06 0)
(-1.64002e-07 1.98511e-06 0)
(-1.397e-07 1.68332e-06 0)
(-1.18906e-07 1.42635e-06 0)
(-1.0113e-07 1.20772e-06 0)
(-8.5946e-08 1.02185e-06 0)
(-7.2988e-08 8.63956e-07 0)
(-6.19392e-08 7.29918e-07 0)
(-5.25265e-08 6.16214e-07 0)
(-4.45148e-08 5.19825e-07 0)
(-3.77019e-08 4.38165e-07 0)
(-3.19139e-08 3.69026e-07 0)
(-2.70016e-08 3.10517e-07 0)
(-2.28371e-08 2.61026e-07 0)
(-1.93109e-08 2.19174e-07 0)
(-1.63293e-08 1.83787e-07 0)
(-1.38125e-08 1.53861e-07 0)
(-1.16924e-08 1.2854e-07 0)
(-9.9111e-09 1.07094e-07 0)
(-8.4197e-09 8.8898e-08 0)
(-7.17683e-09 7.34171e-08 0)
(-6.14775e-09 6.01923e-08 0)
(-5.30351e-09 4.88276e-08 0)
(-4.6202e-09 3.89795e-08 0)
(-4.07838e-09 3.03478e-08 0)
(-3.66253e-09 2.26669e-08 0)
(-3.36066e-09 1.56985e-08 0)
(-3.16409e-09 9.22499e-09 0)
(-3.06709e-09 3.04283e-09 0)
(-0.00346098 0.0250857 0)
(-0.0031956 0.0228701 0)
(-0.00294678 0.0208258 0)
(-0.00271382 0.018942 0)
(-0.00249594 0.0172083 0)
(-0.00229253 0.0156148 0)
(-0.00210296 0.0141522 0)
(-0.00192654 0.0128115 0)
(-0.00176256 0.0115841 0)
(-0.00161044 0.0104619 0)
(-0.0014695 0.00943733 0)
(-0.00133909 0.00850305 0)
(-0.00121868 0.00765225 0)
(-0.00110766 0.00687849 0)
(-0.00100539 0.00617573 0)
(-0.000911352 0.0055383 0)
(-0.000825046 0.00496086 0)
(-0.000745959 0.00443847 0)
(-0.000673573 0.00396647 0)
(-0.000607408 0.00354058 0)
(-0.000547023 0.00315679 0)
(-0.000492009 0.00281138 0)
(-0.000441969 0.00250092 0)
(-0.00039652 0.00222222 0)
(-0.000355295 0.00197234 0)
(-0.000317951 0.0017486 0)
(-0.000284171 0.00154851 0)
(-0.00025366 0.00136979 0)
(-0.000226143 0.00121037 0)
(-0.000201364 0.00106834 0)
(-0.000179083 0.000941946 0)
(-0.000159077 0.000829612 0)
(-0.000141138 0.00072989 0)
(-0.000125073 0.00064147 0)
(-0.000110705 0.000563164 0)
(-9.78726e-05 0.000493897 0)
(-8.64264e-05 0.000432697 0)
(-7.62301e-05 0.000378688 0)
(-6.71592e-05 0.00033108 0)
(-5.91002e-05 0.000289163 0)
(-5.19495e-05 0.000252298 0)
(-4.56128e-05 0.000219913 0)
(-4.00048e-05 0.000191494 0)
(-3.50479e-05 0.000166585 0)
(-3.06718e-05 0.000144775 0)
(-2.68133e-05 0.000125698 0)
(-2.34154e-05 0.000109031 0)
(-2.04265e-05 9.4485e-05 0)
(-1.78006e-05 8.18024e-05 0)
(-1.54962e-05 7.07563e-05 0)
(-1.34764e-05 6.11454e-05 0)
(-1.1708e-05 5.27918e-05 0)
(-1.01615e-05 4.55382e-05 0)
(-8.81057e-06 3.92462e-05 0)
(-7.63174e-06 3.37935e-05 0)
(-6.60422e-06 2.90728e-05 0)
(-5.70957e-06 2.49898e-05 0)
(-4.93143e-06 2.14618e-05 0)
(-4.25534e-06 1.84161e-05 0)
(-3.66853e-06 1.57893e-05 0)
(-3.15974e-06 1.35258e-05 0)
(-2.71904e-06 1.15772e-05 0)
(-2.33769e-06 9.90125e-06 0)
(-2.00805e-06 8.46101e-06 0)
(-1.72337e-06 7.22445e-06 0)
(-1.47776e-06 6.1637e-06 0)
(-1.26606e-06 5.25455e-06 0)
(-1.08377e-06 4.476e-06 0)
(-9.26938e-07 3.80986e-06 0)
(-7.92144e-07 3.24037e-06 0)
(-6.76393e-07 2.75391e-06 0)
(-5.77087e-07 2.33871e-06 0)
(-4.91965e-07 1.98463e-06 0)
(-4.19066e-07 1.68291e-06 0)
(-3.5669e-07 1.426e-06 0)
(-3.03365e-07 1.20743e-06 0)
(-2.57817e-07 1.0216e-06 0)
(-2.18947e-07 8.63746e-07 0)
(-1.85803e-07 7.29741e-07 0)
(-1.57567e-07 6.16065e-07 0)
(-1.33534e-07 5.19699e-07 0)
(-1.13097e-07 4.3806e-07 0)
(-9.57342e-08 3.68937e-07 0)
(-8.09985e-08 3.10443e-07 0)
(-6.8506e-08 2.60963e-07 0)
(-5.79281e-08 2.19122e-07 0)
(-4.89841e-08 1.83743e-07 0)
(-4.14342e-08 1.53824e-07 0)
(-3.50744e-08 1.2851e-07 0)
(-2.9731e-08 1.07069e-07 0)
(-2.52572e-08 8.8877e-08 0)
(-2.15288e-08 7.33999e-08 0)
(-1.84418e-08 6.01782e-08 0)
(-1.59093e-08 4.88162e-08 0)
(-1.38596e-08 3.89705e-08 0)
(-1.22342e-08 3.03409e-08 0)
(-1.09867e-08 2.26618e-08 0)
(-1.00812e-08 1.56951e-08 0)
(-9.49163e-09 9.22304e-09 0)
(-9.20074e-09 3.04222e-09 0)
(-0.00576738 0.0250733 0)
(-0.00532516 0.0228588 0)
(-0.00491045 0.0208155 0)
(-0.00452224 0.0189326 0)
(-0.00415921 0.0171998 0)
(-0.00382029 0.0156071 0)
(-0.00350436 0.0141452 0)
(-0.00321037 0.0128052 0)
(-0.00293712 0.0115784 0)
(-0.00268361 0.0104568 0)
(-0.00244875 0.00943267 0)
(-0.00223146 0.00849885 0)
(-0.00203081 0.00764847 0)
(-0.00184578 0.0068751 0)
(-0.00167536 0.00617269 0)
(-0.00151868 0.00553557 0)
(-0.00137486 0.00495841 0)
(-0.00124307 0.00443627 0)
(-0.00112243 0.00396451 0)
(-0.00101217 0.00353883 0)
(-0.000911551 0.00315523 0)
(-0.000819882 0.00281 0)
(-0.000736498 0.00249969 0)
(-0.000660761 0.00222112 0)
(-0.000592062 0.00197137 0)
(-0.00052983 0.00174773 0)
(-0.000473539 0.00154774 0)
(-0.000422695 0.00136912 0)
(-0.000376842 0.00120977 0)
(-0.000335551 0.00106781 0)
(-0.000298424 0.000941482 0)
(-0.000265086 0.000829203 0)
(-0.000235191 0.00072953 0)
(-0.00020842 0.000641153 0)
(-0.000184478 0.000562886 0)
(-0.000163094 0.000493652 0)
(-0.00014402 0.000432483 0)
(-0.000127029 0.000378501 0)
(-0.000111913 0.000330916 0)
(-9.8484e-05 0.00028902 0)
(-8.65681e-05 0.000252173 0)
(-7.60088e-05 0.000219804 0)
(-6.66637e-05 0.0001914 0)
(-5.84035e-05 0.000166503 0)
(-5.11113e-05 0.000144703 0)
(-4.46816e-05 0.000125636 0)
(-3.90192e-05 0.000108978 0)
(-3.40385e-05 9.44384e-05 0)
(-2.96627e-05 8.1762e-05 0)
(-2.58228e-05 7.07214e-05 0)
(-2.2457e-05 6.11153e-05 0)
(-1.95102e-05 5.27658e-05 0)
(-1.69331e-05 4.55158e-05 0)
(-1.46819e-05 3.92268e-05 0)
(-1.27175e-05 3.37768e-05 0)
(-1.10052e-05 2.90585e-05 0)
(-9.51439e-06 2.49775e-05 0)
(-8.2177e-06 2.14512e-05 0)
(-7.09107e-06 1.8407e-05 0)
(-6.11322e-06 1.57815e-05 0)
(-5.26537e-06 1.35192e-05 0)
(-4.53098e-06 1.15715e-05 0)
(-3.89552e-06 9.89638e-06 0)
(-3.3462e-06 8.45685e-06 0)
(-2.87181e-06 7.2209e-06 0)
(-2.46253e-06 6.16068e-06 0)
(-2.10975e-06 5.25197e-06 0)
(-1.80598e-06 4.47381e-06 0)
(-1.54464e-06 3.80799e-06 0)
(-1.32002e-06 3.23878e-06 0)
(-1.12714e-06 2.75256e-06 0)
(-9.61654e-07 2.33757e-06 0)
(-8.19807e-07 1.98366e-06 0)
(-6.98329e-07 1.68208e-06 0)
(-5.94386e-07 1.4253e-06 0)
(-5.05526e-07 1.20684e-06 0)
(-4.29625e-07 1.02111e-06 0)
(-3.64851e-07 8.63325e-07 0)
(-3.09621e-07 7.29386e-07 0)
(-2.62569e-07 6.15765e-07 0)
(-2.2252e-07 5.19446e-07 0)
(-1.88464e-07 4.37847e-07 0)
(-1.59531e-07 3.68758e-07 0)
(-1.34976e-07 3.10292e-07 0)
(-1.14158e-07 2.60837e-07 0)
(-9.65312e-08 2.19016e-07 0)
(-8.16269e-08 1.83654e-07 0)
(-6.90459e-08 1.5375e-07 0)
(-5.84478e-08 1.28448e-07 0)
(-4.95437e-08 1.07017e-07 0)
(-4.20885e-08 8.88344e-08 0)
(-3.58756e-08 7.33648e-08 0)
(-3.07314e-08 6.01495e-08 0)
(-2.65112e-08 4.8793e-08 0)
(-2.30955e-08 3.89521e-08 0)
(-2.03871e-08 3.03266e-08 0)
(-1.83083e-08 2.26512e-08 0)
(-1.67994e-08 1.56878e-08 0)
(-1.5817e-08 9.21882e-09 0)
(-1.53323e-08 3.04085e-09 0)
(-0.00807236 0.0250548 0)
(-0.00745345 0.0228419 0)
(-0.00687297 0.0208001 0)
(-0.00632953 0.0189186 0)
(-0.00582143 0.017187 0)
(-0.00534709 0.0155955 0)
(-0.00490491 0.0141347 0)
(-0.00449339 0.0127957 0)
(-0.00411095 0.0115698 0)
(-0.00375613 0.010449 0)
(-0.0034274 0.00942568 0)
(-0.00312329 0.00849255 0)
(-0.00284243 0.00764281 0)
(-0.00258344 0.00687001 0)
(-0.00234492 0.00616812 0)
(-0.00212563 0.00553147 0)
(-0.00192434 0.00495474 0)
(-0.00173986 0.00443298 0)
(-0.00157101 0.00396157 0)
(-0.00141668 0.00353621 0)
(-0.00127586 0.0031529 0)
(-0.00114755 0.00280792 0)
(-0.00103085 0.00249784 0)
(-0.00092484 0.00221947 0)
(-0.000828682 0.0019699 0)
(-0.000741578 0.00174644 0)
(-0.000662788 0.00154659 0)
(-0.000591625 0.0013681 0)
(-0.000527448 0.00120888 0)
(-0.000469656 0.00106702 0)
(-0.000417691 0.000940786 0)
(-0.000371029 0.000828589 0)
(-0.000329187 0.00072899 0)
(-0.000291717 0.000640678 0)
(-0.000258206 0.000562468 0)
(-0.000228276 0.000493286 0)
(-0.000201578 0.000432162 0)
(-0.000177797 0.00037822 0)
(-0.00015664 0.000330671 0)
(-0.000137843 0.000288806 0)
(-0.000121165 0.000251986 0)
(-0.000106386 0.000219641 0)
(-9.33061e-05 0.000191258 0)
(-8.17446e-05 0.000166379 0)
(-7.15381e-05 0.000144596 0)
(-6.25387e-05 0.000125543 0)
(-5.46134e-05 0.000108897 0)
(-4.76422e-05 9.43685e-05 0)
(-4.15175e-05 8.17015e-05 0)
(-3.6143e-05 7.06691e-05 0)
(-3.1432e-05 6.10701e-05 0)
(-2.73075e-05 5.27267e-05 0)
(-2.37005e-05 4.54821e-05 0)
(-2.05495e-05 3.91978e-05 0)
(-1.78001e-05 3.37519e-05 0)
(-1.54035e-05 2.9037e-05 0)
(-1.33169e-05 2.49591e-05 0)
(-1.15019e-05 2.14354e-05 0)
(-9.92505e-06 1.83934e-05 0)
(-8.5564e-06 1.57698e-05 0)
(-7.3697e-06 1.35092e-05 0)
(-6.34181e-06 1.1563e-05 0)
(-5.45238e-06 9.88907e-06 0)
(-4.68352e-06 8.45061e-06 0)
(-4.01954e-06 7.21558e-06 0)
(-3.44669e-06 6.15614e-06 0)
(-2.95293e-06 5.24811e-06 0)
(-2.52775e-06 4.47051e-06 0)
(-2.16197e-06 3.80519e-06 0)
(-1.84758e-06 3.23639e-06 0)
(-1.5776e-06 2.75053e-06 0)
(-1.34598e-06 2.33585e-06 0)
(-1.14745e-06 1.9822e-06 0)
(-9.7742e-07 1.68085e-06 0)
(-8.31937e-07 1.42426e-06 0)
(-7.07563e-07 1.20595e-06 0)
(-6.01328e-07 1.02036e-06 0)
(-5.10667e-07 8.62694e-07 0)
(-4.33363e-07 7.28853e-07 0)
(-3.67506e-07 6.15316e-07 0)
(-3.11452e-07 5.19068e-07 0)
(-2.63785e-07 4.37528e-07 0)
(-2.23289e-07 3.6849e-07 0)
(-1.8892e-07 3.10067e-07 0)
(-1.59782e-07 2.60647e-07 0)
(-1.35111e-07 2.18857e-07 0)
(-1.1425e-07 1.83521e-07 0)
(-9.66408e-08 1.53639e-07 0)
(-8.18071e-08 1.28355e-07 0)
(-6.93443e-08 1.0694e-07 0)
(-5.89096e-08 8.87704e-08 0)
(-5.02137e-08 7.33121e-08 0)
(-4.30136e-08 6.01064e-08 0)
(-3.71068e-08 4.87581e-08 0)
(-3.2326e-08 3.89243e-08 0)
(-2.85351e-08 3.0305e-08 0)
(-2.56255e-08 2.26352e-08 0)
(-2.35136e-08 1.56768e-08 0)
(-2.21386e-08 9.21233e-09 0)
(-2.14604e-08 3.03873e-09 0)
(-0.0103753 0.02503 0)
(-0.00957985 0.0228194 0)
(-0.00883382 0.0207796 0)
(-0.00813531 0.0188999 0)
(-0.00748223 0.01717 0)
(-0.00687255 0.0155801 0)
(-0.00630424 0.0141208 0)
(-0.00577532 0.012783 0)
(-0.00528378 0.0115584 0)
(-0.00482772 0.0104387 0)
(-0.00440521 0.00941637 0)
(-0.00401433 0.00848417 0)
(-0.00365335 0.00763526 0)
(-0.00332047 0.00686323 0)
(-0.00301391 0.00616203 0)
(-0.00273206 0.005526 0)
(-0.00247335 0.00494984 0)
(-0.00223623 0.0044286 0)
(-0.0020192 0.00395766 0)
(-0.00182085 0.00353272 0)
(-0.00163985 0.00314979 0)
(-0.00147495 0.00280514 0)
(-0.00132494 0.00249537 0)
(-0.00118869 0.00221728 0)
(-0.0010651 0.00196796 0)
(-0.000953141 0.00174471 0)
(-0.000851873 0.00154507 0)
(-0.000760409 0.00136675 0)
(-0.000677923 0.00120769 0)
(-0.000603646 0.00106597 0)
(-0.000536856 0.000939857 0)
(-0.000476882 0.000827771 0)
(-0.000423103 0.000728269 0)
(-0.000374942 0.000640045 0)
(-0.00033187 0.000561912 0)
(-0.0002934 0.000492798 0)
(-0.000259087 0.000431735 0)
(-0.00022852 0.000377846 0)
(-0.000201328 0.000330344 0)
(-0.000177169 0.00028852 0)
(-0.000155733 0.000251737 0)
(-0.000136737 0.000219424 0)
(-0.000119925 0.000191069 0)
(-0.000105066 0.000166215 0)
(-9.19473e-05 0.000144453 0)
(-8.03805e-05 0.000125419 0)
(-7.01941e-05 0.00010879 0)
(-6.12341e-05 9.42753e-05 0)
(-5.33621e-05 8.16209e-05 0)
(-4.64542e-05 7.05993e-05 0)
(-4.03993e-05 6.10098e-05 0)
(-3.50981e-05 5.26747e-05 0)
(-3.0462e-05 4.54373e-05 0)
(-2.64121e-05 3.91591e-05 0)
(-2.28783e-05 3.37186e-05 0)
(-1.9798e-05 2.90084e-05 0)
(-1.7116e-05 2.49345e-05 0)
(-1.47834e-05 2.14142e-05 0)
(-1.27566e-05 1.83753e-05 0)
(-1.09975e-05 1.57543e-05 0)
(-9.47221e-06 1.34959e-05 0)
(-8.15108e-06 1.15516e-05 0)
(-7.0079e-06 9.87934e-06 0)
(-6.01969e-06 8.4423e-06 0)
(-5.16628e-06 7.20848e-06 0)
(-4.43e-06 6.15008e-06 0)
(-3.79538e-06 5.24295e-06 0)
(-3.2489e-06 4.46612e-06 0)
(-2.77876e-06 3.80145e-06 0)
(-2.37468e-06 3.23322e-06 0)
(-2.02768e-06 2.74783e-06 0)
(-1.72998e-06 2.33356e-06 0)
(-1.47481e-06 1.98026e-06 0)
(-1.25627e-06 1.6792e-06 0)
(-1.06928e-06 1.42286e-06 0)
(-9.09426e-07 1.20477e-06 0)
(-7.72883e-07 1.01936e-06 0)
(-6.56357e-07 8.61851e-07 0)
(-5.56999e-07 7.28141e-07 0)
(-4.72354e-07 6.14716e-07 0)
(-4.00308e-07 5.18562e-07 0)
(-3.39042e-07 4.37102e-07 0)
(-2.86992e-07 3.68131e-07 0)
(-2.42818e-07 3.09765e-07 0)
(-2.05368e-07 2.60394e-07 0)
(-1.73657e-07 2.18645e-07 0)
(-1.46845e-07 1.83343e-07 0)
(-1.24212e-07 1.5349e-07 0)
(-1.05147e-07 1.28231e-07 0)
(-8.91282e-08 1.06837e-07 0)
(-7.57165e-08 8.86849e-08 0)
(-6.45396e-08 7.32415e-08 0)
(-5.52854e-08 6.00487e-08 0)
(-4.76934e-08 4.87113e-08 0)
(-4.15486e-08 3.8887e-08 0)
(-3.66762e-08 3.02761e-08 0)
(-3.29366e-08 2.26136e-08 0)
(-3.02223e-08 1.56618e-08 0)
(-2.8455e-08 9.2036e-09 0)
(-2.75834e-08 3.03585e-09 0)
(-0.0126756 0.024999 0)
(-0.0117039 0.0227912 0)
(-0.0107925 0.0207539 0)
(-0.00993908 0.0188765 0)
(-0.00914119 0.0171488 0)
(-0.00839632 0.0155609 0)
(-0.00770201 0.0141033 0)
(-0.00705582 0.0127672 0)
(-0.0064553 0.0115441 0)
(-0.00589812 0.0104258 0)
(-0.00538193 0.00940474 0)
(-0.00490439 0.00847369 0)
(-0.00446337 0.00762583 0)
(-0.00405667 0.00685475 0)
(-0.00368216 0.00615441 0)
(-0.00333782 0.00551917 0)
(-0.00302174 0.00494373 0)
(-0.00273204 0.00442313 0)
(-0.00246689 0.00395277 0)
(-0.00222456 0.00352836 0)
(-0.00200343 0.00314589 0)
(-0.00180197 0.00280168 0)
(-0.00161871 0.00249228 0)
(-0.00145225 0.00221454 0)
(-0.00130125 0.00196553 0)
(-0.00116447 0.00174256 0)
(-0.00104075 0.00154316 0)
(-0.000929005 0.00136507 0)
(-0.000828232 0.0012062 0)
(-0.000737487 0.00106465 0)
(-0.000655888 0.000938696 0)
(-0.000582617 0.000826748 0)
(-0.000516914 0.000727369 0)
(-0.000458074 0.000639253 0)
(-0.000405452 0.000561217 0)
(-0.000358453 0.000492189 0)
(-0.000316531 0.000431201 0)
(-0.000279187 0.000377379 0)
(-0.000245966 0.000329936 0)
(-0.00021645 0.000288163 0)
(-0.000190261 0.000251426 0)
(-0.000167054 0.000219153 0)
(-0.000146515 0.000190833 0)
(-0.000128361 0.00016601 0)
(-0.000112334 0.000144275 0)
(-9.82024e-05 0.000125265 0)
(-8.57575e-05 0.000108655 0)
(-7.48109e-05 9.41589e-05 0)
(-6.51936e-05 8.15201e-05 0)
(-5.6754e-05 7.05122e-05 0)
(-4.93566e-05 6.09345e-05 0)
(-4.288e-05 5.26097e-05 0)
(-3.7216e-05 4.53812e-05 0)
(-3.22682e-05 3.91108e-05 0)
(-2.79508e-05 3.3677e-05 0)
(-2.41876e-05 2.89726e-05 0)
(-2.0911e-05 2.49037e-05 0)
(-1.80611e-05 2.13878e-05 0)
(-1.5585e-05 1.83526e-05 0)
(-1.34358e-05 1.57349e-05 0)
(-1.15724e-05 1.34792e-05 0)
(-9.95834e-06 1.15374e-05 0)
(-8.56169e-06 9.86717e-06 0)
(-7.35438e-06 8.4319e-06 0)
(-6.31175e-06 7.19961e-06 0)
(-5.41222e-06 6.14251e-06 0)
(-4.63689e-06 5.2365e-06 0)
(-3.96925e-06 4.46063e-06 0)
(-3.39487e-06 3.79678e-06 0)
(-2.90119e-06 3.22925e-06 0)
(-2.47726e-06 2.74446e-06 0)
(-2.11356e-06 2.33069e-06 0)
(-1.8018e-06 1.97783e-06 0)
(-1.53482e-06 1.67714e-06 0)
(-1.30637e-06 1.42112e-06 0)
(-1.11107e-06 1.2033e-06 0)
(-9.44249e-07 1.01811e-06 0)
(-8.01886e-07 8.60797e-07 0)
(-6.80498e-07 7.27251e-07 0)
(-5.77086e-07 6.13964e-07 0)
(-4.89066e-07 5.17929e-07 0)
(-4.14216e-07 4.36569e-07 0)
(-3.50626e-07 3.67683e-07 0)
(-2.96656e-07 3.09388e-07 0)
(-2.50903e-07 2.60078e-07 0)
(-2.12162e-07 2.18379e-07 0)
(-1.79405e-07 1.83121e-07 0)
(-1.51753e-07 1.53304e-07 0)
(-1.2846e-07 1.28076e-07 0)
(-1.0889e-07 1.06708e-07 0)
(-9.2505e-08 8.85777e-08 0)
(-7.88499e-08 7.31531e-08 0)
(-6.75438e-08 5.99762e-08 0)
(-5.82684e-08 4.86527e-08 0)
(-5.07613e-08 3.88402e-08 0)
(-4.48085e-08 3.02397e-08 0)
(-4.02397e-08 2.25864e-08 0)
(-3.69236e-08 1.56431e-08 0)
(-3.47646e-08 9.19257e-09 0)
(-3.36998e-08 3.03221e-09 0)
(-0.0149729 0.0249619 0)
(-0.013825 0.0227573 0)
(-0.0127484 0.0207231 0)
(-0.0117404 0.0188485 0)
(-0.0107979 0.0171234 0)
(-0.00991803 0.0155378 0)
(-0.00909788 0.0140824 0)
(-0.00833458 0.0127483 0)
(-0.00762522 0.0115269 0)
(-0.00696706 0.0104103 0)
(-0.00635732 0.00939078 0)
(-0.00579324 0.00846112 0)
(-0.00527229 0.00761452 0)
(-0.00479188 0.00684458 0)
(-0.00434949 0.00614528 0)
(-0.00394275 0.00551098 0)
(-0.00356939 0.00493639 0)
(-0.00322718 0.00441657 0)
(-0.00291397 0.00394691 0)
(-0.00262773 0.00352312 0)
(-0.00236653 0.00314123 0)
(-0.00212856 0.00279752 0)
(-0.00191209 0.00248858 0)
(-0.00171545 0.00221125 0)
(-0.00153708 0.00196261 0)
(-0.00137551 0.00173997 0)
(-0.00122936 0.00154087 0)
(-0.00109737 0.00136304 0)
(-0.000978336 0.00120441 0)
(-0.000871146 0.00106307 0)
(-0.000774759 0.000937304 0)
(-0.000688209 0.000825521 0)
(-0.000610597 0.00072629 0)
(-0.000541094 0.000638304 0)
(-0.000478935 0.000560384 0)
(-0.000423417 0.000491458 0)
(-0.000373897 0.000430561 0)
(-0.000329785 0.000376818 0)
(-0.000290543 0.000329446 0)
(-0.000255678 0.000287736 0)
(-0.000224743 0.000251053 0)
(-0.00019733 0.000218828 0)
(-0.000173069 0.00019055 0)
(-0.000151624 0.000165763 0)
(-0.000132692 0.000144061 0)
(-0.000116 0.000125079 0)
(-0.0001013 0.000108494 0)
(-8.83692e-05 9.40193e-05 0)
(-7.70089e-05 8.13992e-05 0)
(-6.70399e-05 7.04076e-05 0)
(-5.83018e-05 6.08441e-05 0)
(-5.06514e-05 5.25317e-05 0)
(-4.39609e-05 4.53139e-05 0)
(-3.81164e-05 3.90529e-05 0)
(-3.30165e-05 3.36271e-05 0)
(-2.85713e-05 2.89297e-05 0)
(-2.47008e-05 2.48668e-05 0)
(-2.13344e-05 2.13561e-05 0)
(-1.84095e-05 1.83255e-05 0)
(-1.58709e-05 1.57116e-05 0)
(-1.36697e-05 1.34593e-05 0)
(-1.17631e-05 1.15203e-05 0)
(-1.01134e-05 9.85257e-06 0)
(-8.68726e-06 8.41943e-06 0)
(-7.45567e-06 7.18896e-06 0)
(-6.39311e-06 6.13343e-06 0)
(-5.47726e-06 5.22876e-06 0)
(-4.68862e-06 4.45404e-06 0)
(-4.01015e-06 3.79117e-06 0)
(-3.427e-06 3.22448e-06 0)
(-2.92624e-06 2.74041e-06 0)
(-2.49661e-06 2.32726e-06 0)
(-2.12836e-06 1.97491e-06 0)
(-1.81298e-06 1.67467e-06 0)
(-1.54313e-06 1.41903e-06 0)
(-1.31243e-06 1.20152e-06 0)
(-1.11538e-06 1.01661e-06 0)
(-9.47219e-07 8.59531e-07 0)
(-8.03831e-07 7.26182e-07 0)
(-6.81676e-07 6.13063e-07 0)
(-5.77704e-07 5.17168e-07 0)
(-4.89288e-07 4.35928e-07 0)
(-4.14173e-07 3.67144e-07 0)
(-3.50423e-07 3.08935e-07 0)
(-2.96377e-07 2.59697e-07 0)
(-2.50614e-07 2.1806e-07 0)
(-2.1192e-07 1.82853e-07 0)
(-1.79257e-07 1.5308e-07 0)
(-1.51743e-07 1.27889e-07 0)
(-1.28626e-07 1.06552e-07 0)
(-1.09271e-07 8.84487e-08 0)
(-9.31411e-08 7.30467e-08 0)
(-7.97858e-08 5.98891e-08 0)
(-6.88294e-08 4.8582e-08 0)
(-5.99616e-08 3.87839e-08 0)
(-5.293e-08 3.01959e-08 0)
(-4.75332e-08 2.25538e-08 0)
(-4.36161e-08 1.56204e-08 0)
(-4.10658e-08 9.17928e-09 0)
(-3.98082e-08 3.02784e-09 0)
(-0.0172664 0.0249187 0)
(-0.0159427 0.0227179 0)
(-0.0147013 0.0206872 0)
(-0.0135388 0.0188159 0)
(-0.0124519 0.0170937 0)
(-0.0114373 0.0155109 0)
(-0.0104915 0.014058 0)
(-0.00961128 0.0127262 0)
(-0.00879327 0.011507 0)
(-0.00803429 0.0103923 0)
(-0.00733114 0.00937451 0)
(-0.00668066 0.00844645 0)
(-0.00607991 0.00760132 0)
(-0.00552591 0.00683272 0)
(-0.00501575 0.00613463 0)
(-0.00454671 0.00550143 0)
(-0.00411615 0.00492784 0)
(-0.00372152 0.00440892 0)
(-0.00336034 0.00394007 0)
(-0.00303024 0.00351702 0)
(-0.00272904 0.00313578 0)
(-0.00245462 0.00279267 0)
(-0.00220498 0.00248427 0)
(-0.00197822 0.00220742 0)
(-0.00177253 0.00195921 0)
(-0.00158621 0.00173696 0)
(-0.00141768 0.0015382 0)
(-0.00126547 0.00136068 0)
(-0.0011282 0.00120232 0)
(-0.00100459 0.00106123 0)
(-0.00089344 0.00093568 0)
(-0.000793631 0.000824091 0)
(-0.00070413 0.000725031 0)
(-0.00062398 0.000637198 0)
(-0.000552299 0.000559412 0)
(-0.000488276 0.000490606 0)
(-0.000431171 0.000429814 0)
(-0.000380302 0.000376165 0)
(-0.000335048 0.000328875 0)
(-0.000294843 0.000287237 0)
(-0.000259169 0.000250618 0)
(-0.000227557 0.000218449 0)
(-0.000199579 0.00019022 0)
(-0.00017485 0.000165476 0)
(-0.000153018 0.000143811 0)
(-0.000133769 0.000124862 0)
(-0.000116817 0.000108306 0)
(-0.000101906 9.38564e-05 0)
(-8.88052e-05 8.12582e-05 0)
(-7.73091e-05 7.02857e-05 0)
(-6.72325e-05 6.07388e-05 0)
(-5.84102e-05 5.24408e-05 0)
(-5.06949e-05 4.52355e-05 0)
(-4.39551e-05 3.89853e-05 0)
(-3.8074e-05 3.35689e-05 0)
(-3.29479e-05 2.88796e-05 0)
(-2.84845e-05 2.48238e-05 0)
(-2.46025e-05 2.13192e-05 0)
(-2.12295e-05 1.82938e-05 0)
(-1.8302e-05 1.56844e-05 0)
(-1.57637e-05 1.3436e-05 0)
(-1.3565e-05 1.15004e-05 0)
(-1.16626e-05 9.83554e-06 0)
(-1.0018e-05 8.40488e-06 0)
(-8.59775e-06 7.17654e-06 0)
(-7.37242e-06 6.12284e-06 0)
(-6.31629e-06 5.21973e-06 0)
(-5.40684e-06 4.44635e-06 0)
(-4.62443e-06 3.78463e-06 0)
(-3.95196e-06 3.21892e-06 0)
(-3.37449e-06 2.73568e-06 0)
(-2.87906e-06 2.32324e-06 0)
(-2.45439e-06 1.97151e-06 0)
(-2.0907e-06 1.67179e-06 0)
(-1.77951e-06 1.41658e-06 0)
(-1.51348e-06 1.19946e-06 0)
(-1.28624e-06 1.01487e-06 0)
(-1.09232e-06 8.58053e-07 0)
(-9.26966e-07 7.24934e-07 0)
(-7.861e-07 6.1201e-07 0)
(-6.662e-07 5.16281e-07 0)
(-5.6424e-07 4.35181e-07 0)
(-4.77619e-07 3.66514e-07 0)
(-4.04103e-07 3.08406e-07 0)
(-3.41778e-07 2.59252e-07 0)
(-2.89006e-07 2.17687e-07 0)
(-2.44384e-07 1.82541e-07 0)
(-2.06718e-07 1.52819e-07 0)
(-1.74988e-07 1.2767e-07 0)
(-1.4833e-07 1.0637e-07 0)
(-1.2601e-07 8.8298e-08 0)
(-1.0741e-07 7.29223e-08 0)
(-9.20084e-08 5.97872e-08 0)
(-7.93736e-08 4.84995e-08 0)
(-6.91474e-08 3.8718e-08 0)
(-6.10386e-08 3.01446e-08 0)
(-5.48151e-08 2.25155e-08 0)
(-5.02981e-08 1.5594e-08 0)
(-4.73572e-08 9.16373e-09 0)
(-4.5907e-08 3.0227e-09 0)
(-0.0195557 0.0248693 0)
(-0.0180565 0.0226729 0)
(-0.0166504 0.0206462 0)
(-0.0153339 0.0187786 0)
(-0.0141029 0.0170598 0)
(-0.0129537 0.0154801 0)
(-0.0118826 0.0140301 0)
(-0.0108856 0.012701 0)
(-0.00995914 0.0114842 0)
(-0.00909953 0.0103717 0)
(-0.00830315 0.00935593 0)
(-0.00756643 0.00842971 0)
(-0.00688603 0.00758625 0)
(-0.00625858 0.00681917 0)
(-0.00568078 0.00612247 0)
(-0.00514954 0.00549053 0)
(-0.0046619 0.00491807 0)
(-0.00421495 0.00440018 0)
(-0.00380587 0.00393226 0)
(-0.00343202 0.00351005 0)
(-0.00309087 0.00312957 0)
(-0.00278007 0.00278713 0)
(-0.00249734 0.00247934 0)
(-0.00224051 0.00220304 0)
(-0.00200754 0.00195532 0)
(-0.00179651 0.00173351 0)
(-0.00160564 0.00153515 0)
(-0.00143325 0.00135798 0)
(-0.00127778 0.00119994 0)
(-0.00113779 0.00105913 0)
(-0.0010119 0.000933825 0)
(-0.000898858 0.000822457 0)
(-0.00079749 0.000723593 0)
(-0.000706712 0.000635934 0)
(-0.000625526 0.000558303 0)
(-0.000553015 0.000489633 0)
(-0.000488338 0.000428962 0)
(-0.000430725 0.000375419 0)
(-0.000379471 0.000328223 0)
(-0.000333935 0.000286668 0)
(-0.000293531 0.000250121 0)
(-0.000257728 0.000218016 0)
(-0.000226041 0.000189843 0)
(-0.000198033 0.000165148 0)
(-0.000173307 0.000143526 0)
(-0.000151505 0.000124615 0)
(-0.000132305 0.000108091 0)
(-0.000115417 9.36704e-05 0)
(-0.00010058 8.10972e-05 0)
(-8.75593e-05 7.01464e-05 0)
(-7.61467e-05 6.06184e-05 0)
(-6.61547e-05 5.23369e-05 0)
(-5.74164e-05 4.51459e-05 0)
(-4.9783e-05 3.8908e-05 0)
(-4.31222e-05 3.35024e-05 0)
(-3.73163e-05 2.88224e-05 0)
(-3.22612e-05 2.47746e-05 0)
(-2.78645e-05 2.1277e-05 0)
(-2.40443e-05 1.82575e-05 0)
(-2.07286e-05 1.56534e-05 0)
(-1.78537e-05 1.34094e-05 0)
(-1.53636e-05 1.14776e-05 0)
(-1.32089e-05 9.81609e-06 0)
(-1.13463e-05 8.38826e-06 0)
(-9.73771e-06 7.16235e-06 0)
(-8.34992e-06 6.11074e-06 0)
(-7.15375e-06 5.20941e-06 0)
(-6.12372e-06 4.43757e-06 0)
(-5.23758e-06 3.77715e-06 0)
(-4.47594e-06 3.21256e-06 0)
(-3.82191e-06 2.73028e-06 0)
(-3.26079e-06 2.31866e-06 0)
(-2.77981e-06 1.96762e-06 0)
(-2.36791e-06 1.66849e-06 0)
(-2.01546e-06 1.41379e-06 0)
(-1.71415e-06 1.19709e-06 0)
(-1.45679e-06 1.01287e-06 0)
(-1.23715e-06 8.56364e-07 0)
(-1.04987e-06 7.23508e-07 0)
(-8.9033e-07 6.10806e-07 0)
(-7.54533e-07 5.15266e-07 0)
(-6.39054e-07 4.34326e-07 0)
(-5.40948e-07 3.65795e-07 0)
(-4.57685e-07 3.07801e-07 0)
(-3.87096e-07 2.58744e-07 0)
(-3.27326e-07 2.1726e-07 0)
(-2.76788e-07 1.82183e-07 0)
(-2.34128e-07 1.5252e-07 0)
(-1.98191e-07 1.27421e-07 0)
(-1.67998e-07 1.06163e-07 0)
(-1.42719e-07 8.81256e-08 0)
(-1.21652e-07 7.27801e-08 0)
(-1.04209e-07 5.96707e-08 0)
(-8.98986e-08 4.8405e-08 0)
(-7.83165e-08 3.86427e-08 0)
(-6.91325e-08 3.0086e-08 0)
(-6.20838e-08 2.24717e-08 0)
(-5.69679e-08 1.55637e-08 0)
(-5.36371e-08 9.14593e-09 0)
(-5.19946e-08 3.01683e-09 0)
(-0.0218402 0.0248138 0)
(-0.0201658 0.0226222 0)
(-0.0185955 0.0206001 0)
(-0.0171252 0.0187366 0)
(-0.0157504 0.0170217 0)
(-0.014467 0.0154456 0)
(-0.0132707 0.0139988 0)
(-0.0121573 0.0126726 0)
(-0.0111226 0.0114585 0)
(-0.0101625 0.0103485 0)
(-0.00927311 0.00933503 0)
(-0.00845033 0.00841088 0)
(-0.00769045 0.00756931 0)
(-0.00698969 0.00680394 0)
(-0.0063444 0.0061088 0)
(-0.00575111 0.00547827 0)
(-0.0052065 0.00490709 0)
(-0.00470733 0.00439035 0)
(-0.00425047 0.00392348 0)
(-0.00383294 0.00350221 0)
(-0.00345195 0.00312258 0)
(-0.00310484 0.00278091 0)
(-0.00278908 0.00247381 0)
(-0.00250224 0.00219812 0)
(-0.00224206 0.00195096 0)
(-0.00200638 0.00172964 0)
(-0.00179321 0.00153172 0)
(-0.00160068 0.00135495 0)
(-0.00142706 0.00119726 0)
(-0.0012707 0.00105676 0)
(-0.00113011 0.000931739 0)
(-0.00100386 0.00082062 0)
(-0.000890653 0.000721977 0)
(-0.00078927 0.000634514 0)
(-0.0006986 0.000557056 0)
(-0.000617618 0.000488539 0)
(-0.000545385 0.000428003 0)
(-0.000481041 0.000374581 0)
(-0.0004238 0.00032749 0)
(-0.000372945 0.000286027 0)
(-0.000327821 0.000249562 0)
(-0.000287835 0.000217529 0)
(-0.000252447 0.000189419 0)
(-0.000221167 0.000164779 0)
(-0.000193552 0.000143206 0)
(-0.000169204 0.000124336 0)
(-0.000147761 0.00010785 0)
(-0.0001289 9.34613e-05 0)
(-0.000112329 8.09162e-05 0)
(-9.77879e-05 6.99898e-05 0)
(-8.50421e-05 6.04831e-05 0)
(-7.38828e-05 5.22201e-05 0)
(-6.41237e-05 4.50451e-05 0)
(-5.55986e-05 3.88212e-05 0)
(-4.81597e-05 3.34276e-05 0)
(-4.16756e-05 2.87581e-05 0)
(-3.603e-05 2.47194e-05 0)
(-3.11196e-05 2.12295e-05 0)
(-2.68531e-05 1.82168e-05 0)
(-2.31501e-05 1.56185e-05 0)
(-1.99394e-05 1.33795e-05 0)
(-1.71584e-05 1.14521e-05 0)
(-1.47519e-05 9.79421e-06 0)
(-1.26717e-05 8.36957e-06 0)
(-1.08753e-05 7.1464e-06 0)
(-9.32536e-06 6.09713e-06 0)
(-7.98946e-06 5.19782e-06 0)
(-6.8391e-06 4.42769e-06 0)
(-5.84944e-06 3.76875e-06 0)
(-4.99882e-06 3.20541e-06 0)
(-4.26839e-06 2.72421e-06 0)
(-3.64172e-06 2.3135e-06 0)
(-3.10456e-06 1.96325e-06 0)
(-2.64453e-06 1.66478e-06 0)
(-2.25091e-06 1.41065e-06 0)
(-1.9144e-06 1.19444e-06 0)
(-1.62697e-06 1.01062e-06 0)
(-1.38168e-06 8.54464e-07 0)
(-1.17252e-06 7.21904e-07 0)
(-9.94342e-07 6.09453e-07 0)
(-8.42681e-07 5.14125e-07 0)
(-7.13712e-07 4.33364e-07 0)
(-6.04144e-07 3.64985e-07 0)
(-5.11154e-07 3.0712e-07 0)
(-4.32319e-07 2.58172e-07 0)
(-3.65566e-07 2.1678e-07 0)
(-3.09124e-07 1.81781e-07 0)
(-2.6148e-07 1.52183e-07 0)
(-2.21345e-07 1.2714e-07 0)
(-1.87625e-07 1.05929e-07 0)
(-1.59393e-07 8.79315e-08 0)
(-1.35865e-07 7.26198e-08 0)
(-1.16383e-07 5.95394e-08 0)
(-1.00402e-07 4.82986e-08 0)
(-8.74664e-08 3.85577e-08 0)
(-7.72096e-08 3.00199e-08 0)
(-6.93375e-08 2.24224e-08 0)
(-6.36239e-08 1.55295e-08 0)
(-5.9904e-08 9.12587e-09 0)
(-5.80697e-08 3.01022e-09 0)
(-0.0241193 0.0247521 0)
(-0.0222702 0.022566 0)
(-0.020536 0.0205489 0)
(-0.0189122 0.0186901 0)
(-0.017394 0.0169794 0)
(-0.0159766 0.0154072 0)
(-0.0146555 0.013964 0)
(-0.0134259 0.0126411 0)
(-0.0122832 0.01143 0)
(-0.011223 0.0103228 0)
(-0.0102408 0.00931184 0)
(-0.00933215 0.00838998 0)
(-0.00849297 0.0075505 0)
(-0.00771909 0.00678704 0)
(-0.00700646 0.00609362 0)
(-0.00635125 0.00546465 0)
(-0.00574981 0.00489489 0)
(-0.00519855 0.00437944 0)
(-0.00469402 0.00391373 0)
(-0.00423292 0.0034935 0)
(-0.00381217 0.00311482 0)
(-0.00342884 0.002774 0)
(-0.00308012 0.00246766 0)
(-0.00276336 0.00219266 0)
(-0.00247602 0.00194611 0)
(-0.00221575 0.00172535 0)
(-0.00198033 0.00152792 0)
(-0.00176772 0.00135158 0)
(-0.00157597 0.00119428 0)
(-0.00140331 0.00105414 0)
(-0.00124804 0.000929424 0)
(-0.00110862 0.00081858 0)
(-0.000983596 0.000720182 0)
(-0.000871633 0.000632937 0)
(-0.000771501 0.000555671 0)
(-0.000682068 0.000487325 0)
(-0.000602297 0.00042694 0)