/*--------------------------------*- C++ -*----------------------------------*\
| =========                 |                                                 |
| \\      /  F ield         | OpenFOAM: The Open Source CFD Toolbox           |
|  \\    /   O peration     | Version:  2406                                  |
|   \\  /    A nd           | Website:  www.openfoam.com                      |
|    \\/     M anipulation  |                                                 |
\*---------------------------------------------------------------------------*/
FoamFile
{
    version     2.0;
    format      ascii;
    arch        "LSB;label=32;scalar=64";
    class       volScalarField;
    location    "145";
    object      gradTx;
}
// * * * * * * * * * * * * * * * * * * * * * * * * * * * * * * * * * * * * * //

dimensions      [0 -1 0 1 0 0 0];

internalField   nonuniform List<scalar> 
20000
(
7.59135
7.26226
6.93916
6.62234
6.31171
6.00757
5.71058
5.42126
5.13871
4.86321
4.59583
4.33628
4.08414
3.83952
3.60274
3.37387
3.1528
2.93938
2.73353
2.53521
2.34439
2.161
1.98495
1.81611
1.65435
1.49952
1.3515
1.21012
1.07526
0.946743
0.824429
0.708155
0.597758
0.493073
0.393932
0.300167
0.211606
0.128081
0.0494217
-0.0245425
-0.0939797
-0.159058
-0.219943
-0.276799
-0.329789
-0.379073
-0.42481
-0.467154
-0.506257
-0.542271
-0.575341
-0.605611
-0.633221
-0.658308
-0.681006
-0.701446
-0.719753
-0.736052
-0.75046
-0.763096
-0.774071
-0.783494
-0.79147
-0.798102
-0.803488
-0.807722
-0.810895
-0.813097
-0.814411
-0.814918
-0.814697
-0.813822
-0.812364
-0.810393
-0.807973
-0.805166
-0.802032
-0.798627
-0.795005
-0.791216
-0.787309
-0.783328
-0.779317
-0.775315
-0.77136
-0.767486
-0.763728
-0.760114
-0.756673
-0.753431
-0.75041
-0.747632
-0.745115
-0.742877
-0.740931
-0.739291
-0.737967
-0.736966
-0.736296
-0.73596
22.7722
21.7851
20.8157
19.8651
18.9334
18.0218
17.1308
16.2619
15.4145
14.5888
13.7867
13.0077
12.2512
11.5176
10.8074
10.1209
9.45765
8.81738
8.19987
7.60498
7.03259
6.48249
5.95437
5.44789
4.96264
4.4982
4.05416
3.63007
3.2255
2.83999
2.47308
2.12429
1.79313
1.4791
1.1817
0.900426
0.634767
0.384213
0.148253
-0.0736213
-0.281916
-0.477134
-0.659774
-0.830329
-0.989286
-1.13713
-1.27432
-1.40135
-1.51865
-1.62668
-1.72588
-1.81668
-1.89951
-1.97476
-2.04285
-2.10416
-2.15908
-2.20797
-2.2512
-2.2891
-2.32202
-2.35029
-2.37422
-2.39411
-2.41026
-2.42297
-2.43249
-2.43909
-2.44303
-2.44455
-2.44389
-2.44126
-2.43689
-2.43098
-2.42372
-2.4153
-2.4059
-2.39568
-2.38482
-2.37345
-2.36173
-2.34979
-2.33776
-2.32575
-2.31389
-2.30227
-2.291
-2.28016
-2.26983
-2.26011
-2.25104
-2.24271
-2.23516
-2.22845
-2.22261
-2.21769
-2.21372
-2.21072
-2.20871
-2.2077
37.9478
36.3029
34.6869
33.1027
31.5502
30.0315
28.5469
27.0984
25.6864
24.311
22.9742
21.6757
20.415
19.1927
18.0095
16.8655
15.7602
14.6932
13.6641
12.6728
11.719
10.8024
9.92234
9.07834
8.26972
7.49577
6.75582
6.04912
5.37495
4.73254
4.12112
3.5399
2.98805
2.46476
1.96918
1.50046
1.05777
0.640249
0.247047
-0.122682
-0.469783
-0.795093
-1.09944
-1.38365
-1.64854
-1.8949
-2.12352
-2.33519
-2.53066
-2.71069
-2.87599
-3.02731
-3.16532
-3.29073
-3.40419
-3.50636
-3.59788
-3.67935
-3.75138
-3.81454
-3.8694
-3.9165
-3.95638
-3.98953
-4.01645
-4.03761
-4.05348
-4.06448
-4.07105
-4.07359
-4.07248
-4.06811
-4.06082
-4.05097
-4.03887
-4.02484
-4.00917
-3.99215
-3.97404
-3.95511
-3.93557
-3.91567
-3.89562
-3.87562
-3.85585
-3.83649
-3.8177
-3.79963
-3.78243
-3.76622
-3.75112
-3.73724
-3.72466
-3.71347
-3.70374
-3.69554
-3.68892
-3.68392
-3.68057
-3.67889
53.1138
50.8119
48.5501
46.3324
44.1594
42.0335
39.9558
37.9284
35.9521
34.0272
32.156
30.3383
28.5738
26.8632
25.2073
23.606
22.0589
20.5653
19.125
17.7375
16.4026
15.1196
13.8879
12.7066
11.5748
10.4915
9.45581
8.46667
7.52306
6.62392
5.76815
4.95463
4.18224
3.44981
2.75616
2.10013
1.48051
0.896128
0.345781
-0.171713
-0.657534
-1.11286
-1.53884
-1.93664
-2.30738
-2.6522
-2.9722
-3.26846
-3.54205
-3.79402
-4.0254
-4.23718
-4.43036
-4.60588
-4.76469
-4.9077
-5.03579
-5.14982
-5.25063
-5.33904
-5.41582
-5.48175
-5.53756
-5.58396
-5.62164
-5.65126
-5.67347
-5.68887
-5.69806
-5.70161
-5.70006
-5.69394
-5.68375
-5.66995
-5.65302
-5.63338
-5.61145
-5.58763
-5.56229
-5.53578
-5.50844
-5.48059
-5.45253
-5.42453
-5.39685
-5.36975
-5.34346
-5.31817
-5.2941
-5.27141
-5.25028
-5.23084
-5.21323
-5.19757
-5.18396
-5.17249
-5.16322
-5.15622
-5.15153
-5.14918
68.2663
65.308
62.4015
59.5506
56.7577
54.0252
51.3548
48.7491
46.2089
43.735
41.3298
38.9934
36.7256
34.5271
32.3988
30.3406
28.352
26.4324
24.5811
22.7979
21.0821
19.4331
17.85
16.3317
14.877
13.4846
12.1535
10.8821
9.66932
8.51366
7.41374
6.36815
5.3754
4.43401
3.54247
2.69928
1.90289
1.15178
0.444429
-0.220701
-0.845122
-1.43034
-1.97786
-2.48914
-2.96566
-3.40886
-3.82014
-4.20092
-4.55257
-4.87642
-5.17381
-5.44601
-5.6943
-5.9199
-6.12402
-6.30782
-6.47245
-6.61902
-6.74859
-6.86222
-6.96091
-7.04565
-7.11738
-7.17701
-7.22544
-7.26352
-7.29206
-7.31186
-7.32367
-7.32823
-7.32624
-7.31837
-7.30527
-7.28754
-7.26578
-7.24054
-7.21235
-7.18173
-7.14916
-7.11509
-7.07995
-7.04416
-7.00808
-6.97209
-6.93653
-6.9017
-6.8679
-6.8354
-6.80446
-6.7753
-6.74813
-6.72315
-6.70052
-6.68039
-6.6629
-6.64815
-6.63624
-6.62724
-6.62121
-6.61819
83.4017
79.7877
76.2371
72.7542
69.342
66.0037
62.7412
59.5577
56.4543
53.4319
50.4934
47.6389
44.8684
42.1825
39.5823
37.0678
34.6382
32.2929
30.0312
27.8526
25.7564
23.7418
21.8077
19.9527
18.1755
16.4745
14.8481
13.2949
11.8132
10.4013
9.05751
7.78008
6.56722
5.41711
4.32791
3.29776
2.3248
1.40716
0.542967
-0.269635
-1.0325
-1.74748
-2.41639
-3.04103
-3.62321
-4.16467
-4.66714
-5.13235
-5.56196
-5.95762
-6.32094
-6.6535
-6.95684
-7.23246
-7.48183
-7.70639
-7.90752
-8.08658
-8.24488
-8.38371
-8.50428
-8.6078
-8.69544
-8.7683
-8.82746
-8.87398
-8.90885
-8.93304
-8.94747
-8.95304
-8.95061
-8.941
-8.92499
-8.90333
-8.87674
-8.8459
-8.81147
-8.77407
-8.73427
-8.69265
-8.64972
-8.60598
-8.56191
-8.51794
-8.47449
-8.43194
-8.39065
-8.35095
-8.31314
-8.27752
-8.24433
-8.21381
-8.18616
-8.16157
-8.14019
-8.12218
-8.10762
-8.09663
-8.08927
-8.08557
98.5168
94.2478
90.0539
85.9397
81.9092
77.9658
74.1122
70.3516
66.6858
63.1157
59.6445
56.2727
53.0001
49.8275
46.7561
43.7858
40.9158
38.1454
35.4738
32.9004
30.4244
28.0447
25.7601
23.5689
21.4695
19.4602
17.5391
15.7044
13.9541
12.2864
10.699
9.1901
7.75743
6.39888
5.11228
3.89543
2.74613
1.66218
0.641372
-0.318502
-1.21963
-2.06418
-2.85432
-3.59218
-4.27986
-4.91945
-5.51299
-6.06251
-6.56998
-7.03735
-7.46652
-7.85935
-8.21766
-8.54323
-8.8378
-9.10306
-9.34064
-9.55215
-9.73914
-9.90312
-10.0456
-10.1678
-10.2714
-10.3574
-10.4273
-10.4823
-10.5234
-10.552
-10.5691
-10.5756
-10.5728
-10.5614
-10.5425
-10.5169
-10.4855
-10.4491
-10.4084
-10.3642
-10.3172
-10.2681
-10.2173
-10.1657
-10.1136
-10.0617
-10.0104
-9.9601
-9.91132
-9.86443
-9.81977
-9.77769
-9.73849
-9.70243
-9.66977
-9.64073
-9.61548
-9.5942
-9.57701
-9.56402
-9.55532
-9.55096
113.608
108.685
103.848
99.1041
94.4562
89.9088
85.4648
81.1282
76.9007
72.7839
68.781
64.8926
61.1187
57.4603
53.9184
50.493
47.1833
43.9885
40.9077
37.9401
35.0849
32.3407
29.7061
27.1792
24.7583
22.4412
20.2258
18.11
16.0917
14.1684
12.3379
10.5979
8.94572
7.37907
5.89538
4.49213
3.16679
1.9168
0.739617
-0.367291
-1.40645
-2.38038
-3.29155
-4.14243
-4.93545
-5.67302
-6.35748
-6.99118
-7.57638
-8.11534
-8.61025
-9.06325
-9.47645
-9.8519
-10.1916
-10.4975
-10.7715
-11.0154
-11.231
-11.4201
-11.5843
-11.7254
-11.8447
-11.944
-12.0246
-12.0879
-12.1354
-12.1684
-12.188
-12.1956
-12.1923
-12.1792
-12.1574
-12.1279
-12.0917
-12.0497
-12.0028
-11.9518
-11.8976
-11.8409
-11.7825
-11.7229
-11.6628
-11.603
-11.5438
-11.4858
-11.4296
-11.3755
-11.324
-11.2755
-11.2302
-11.1887
-11.151
-11.1175
-11.0884
-11.0638
-11.044
-11.0291
-11.019
-11.014
128.671
123.095
117.617
112.244
106.98
101.83
96.7964
91.8847
87.0968
82.4341
77.9005
73.4965
69.2222
65.0788
61.0673
57.1877
53.4392
49.8207
46.3315
42.9705
39.7367
36.6287
33.6448
30.7829
28.0409
25.4166
22.9075
20.5112
18.2252
16.0469
13.9738
12.003
10.1318
8.35743
6.67703
5.08773
3.58666
2.17094
0.837681
-0.41599
-1.59293
-2.69598
-3.72797
-4.69166
-5.58983
-6.42519
-7.2004
-7.91812
-8.58092
-9.19133
-9.75186
-10.2649
-10.7329
-11.1581
-11.5429
-11.8893
-12.1996
-12.4759
-12.7201
-12.9343
-13.1203
-13.28
-13.4152
-13.5276
-13.6189
-13.6906
-13.7444
-13.7818
-13.804
-13.8126
-13.8089
-13.794
-13.7693
-13.7359
-13.6949
-13.6473
-13.5942
-13.5365
-13.4751
-13.4109
-13.3447
-13.2772
-13.2092
-13.1414
-13.0743
-13.0087
-12.945
-12.8837
-12.8254
-12.7704
-12.7192
-12.6721
-12.6295
-12.5915
-12.5586
-12.5308
-12.5083
-12.4914
-12.48
-12.4743
143.702
137.475
131.357
125.356
119.477
113.725
108.104
102.619
97.2713
92.064
87.0007
82.0823
77.3087
72.6813
68.2011
63.8683
59.6819
55.6407
51.7438
47.9902
44.3787
40.9076
37.5751
34.3789
31.3167
28.3857
25.5835
22.9073
20.3542
17.9215
15.6062
13.4052
11.3154
9.33374
7.45703
5.68207
4.00565
2.42455
0.935537
-0.464586
-1.77902
-3.01093
-4.16346
-5.23974
-6.24283
-7.17577
-8.04155
-8.8431
-9.58333
-10.2651
-10.8911
-11.4641
-11.9867
-12.4616
-12.8913
-13.2782
-13.6248
-13.9333
-14.206
-14.4452
-14.653
-14.8313
-14.9823
-15.1079
-15.2098
-15.29
-15.3501
-15.3917
-15.4166
-15.4262
-15.422
-15.4055
-15.3779
-15.3405
-15.2947
-15.2416
-15.1823
-15.1178
-15.0493
-14.9775
-14.9036
-14.8282
-14.7523
-14.6765
-14.6016
-14.5283
-14.4572
-14.3888
-14.3236
-14.2623
-14.2051
-14.1525
-14.1048
-14.0625
-14.0256
-13.9946
-13.9695
-13.9506
-13.9379
-13.9315
158.698
151.821
145.065
138.438
131.945
125.593
119.385
113.327
107.422
101.671
96.0795
90.6478
85.3761
80.2658
75.3181
70.5331
65.9098
61.4469
57.1434
52.9981
49.0098
45.1765
41.4962
37.9665
34.5847
31.3479
28.2532
25.2977
22.4783
19.7917
17.2347
14.804
12.4962
10.3077
8.23519
6.27501
4.42365
2.67755
1.03316
-0.513068
-1.96466
-3.32513
-4.59793
-5.78652
-6.89429
-7.92458
-8.88071
-9.76591
-10.5834
-11.3362
-12.0276
-12.6604
-13.2376
-13.762
-14.2365
-14.6638
-15.0465
-15.3873
-15.6885
-15.9526
-16.1821
-16.379
-16.5458
-16.6844
-16.797
-16.8855
-16.9519
-16.9979
-17.0254
-17.036
-17.0313
-17.0131
-16.9826
-16.9414
-16.8908
-16.8321
-16.7666
-16.6954
-16.6197
-16.5405
-16.4588
-16.3756
-16.2917
-16.2081
-16.1254
-16.0444
-15.9658
-15.8903
-15.8184
-15.7506
-15.6874
-15.6293
-15.5767
-15.5299
-15.4893
-15.455
-15.4273
-15.4064
-15.3924
-15.3853
173.654
166.129
158.737
151.485
144.38
137.429
130.636
124.008
117.546
111.253
105.135
99.1909
93.4224
87.8305
82.4166
77.1805
72.1215
67.238
62.5289
57.993
53.6287
49.4342
45.4071
41.5447
37.8441
34.3023
30.916
27.6819
24.5967
21.657
18.859
16.1992
13.6739
11.2792
9.01132
6.86641
4.84056
2.9299
1.13053
-0.561423
-2.14982
-3.63851
-5.03127
-6.33188
-7.54405
-8.67144
-9.71768
-10.6863
-11.5808
-12.4046
-13.1611
-13.8536
-14.4851
-15.059
-15.5783
-16.0458
-16.4646
-16.8374
-17.167
-17.4561
-17.7071
-17.9227
-18.1052
-18.2569
-18.3801
-18.4769
-18.5495
-18.5999
-18.6299
-18.6415
-18.6365
-18.6165
-18.5831
-18.538
-18.4827
-18.4185
-18.3468
-18.2689
-18.186
-18.0994
-18.01
-17.9189
-17.8271
-17.7356
-17.6451
-17.5565
-17.4705
-17.3879
-17.3092
-17.235
-17.1659
-17.1023
-17.0448
-16.9936
-16.9491
-16.9115
-16.8813
-16.8584
-16.843
-16.8353
188.568
180.397
172.369
164.494
156.78
149.232
141.856
134.658
127.641
120.808
114.164
107.71
101.446
95.3736
89.4946
83.8089
78.3153
73.0125
67.899
62.9735
58.2345
53.6798
49.3068
45.1127
41.0943
37.2482
33.5711
30.0593
26.7091
23.5169
20.4787
17.5904
14.8482
12.2479
9.78523
7.4561
5.25628
3.18152
1.22762
-0.60964
-2.33446
-3.95099
-5.46337
-6.87567
-8.19194
-9.41616
-10.5522
-11.6041
-12.5754
-13.47
-14.2914
-15.0433
-15.7292
-16.3523
-16.9162
-17.4239
-17.8786
-18.2835
-18.6414
-18.9553
-19.2279
-19.4619
-19.6601
-19.8248
-19.9586
-20.0637
-20.1426
-20.1973
-20.2299
-20.2425
-20.237
-20.2153
-20.1791
-20.1301
-20.07
-20.0003
-19.9224
-19.8378
-19.7479
-19.6538
-19.5567
-19.4578
-19.3582
-19.2588
-19.1605
-19.0643
-18.9709
-18.8812
-18.7957
-18.7152
-18.6401
-18.5711
-18.5086
-18.453
-18.4047
-18.3639
-18.331
-18.3062
-18.2895
-18.2812
203.435
194.619
185.959
177.464
169.141
160.998
153.04
145.274
137.704
130.333
123.165
116.202
109.444
102.893
96.5506
90.4166
84.4899
78.7689
73.2523
67.9385
62.8259
57.912
53.1943
48.6695
44.3343
40.185
36.2179
32.4292
28.815
25.371
22.0932
18.9773
16.0189
13.2135
10.5567
8.04396
5.67069
3.43236
1.32441
-0.657707
-2.51851
-4.2625
-5.89411
-7.41777
-8.83782
-10.1586
-11.3842
-12.519
-13.5669
-14.532
-15.4182
-16.2294
-16.9693
-17.6416
-18.2499
-18.7976
-19.2882
-19.725
-20.1111
-20.4497
-20.7438
-20.9964
-21.2101
-21.3878
-21.5322
-21.6456
-21.7307
-21.7897
-21.8249
-21.8385
-21.8326
-21.8091
-21.77
-21.7172
-21.6524
-21.5771
-21.4932
-21.4019
-21.3048
-21.2033
-21.0986
-20.9919
-20.8844
-20.7772
-20.6712
-20.5674
-20.4667
-20.3698
-20.2776
-20.1907
-20.1098
-20.0353
-19.9679
-19.9079
-19.8558
-19.8118
-19.7763
-19.7495
-19.7315
-19.7225
218.252
208.794
199.503
190.389
181.46
172.724
164.187
155.855
147.734
139.825
132.135
124.665
117.415
110.387
103.583
97.002
90.6436
84.506
78.5875
72.8868
67.4018
62.13
57.0687
52.2143
47.5633
43.1118
38.8558
34.7912
30.9137
27.2189
23.7024
20.3595
17.1856
14.1759
11.3256
8.62983
6.08371
3.68235
1.42087
-0.705612
-2.70195
-4.57295
-6.32341
-7.95803
-9.48151
-10.8984
-12.2134
-13.4308
-14.555
-15.5904
-16.5412
-17.4114
-18.2052
-18.9265
-19.5791
-20.1667
-20.6931
-21.1616
-21.5759
-21.9392
-22.2547
-22.5256
-22.7549
-22.9456
-23.1004
-23.2222
-23.3134
-23.3767
-23.4145
-23.4291
-23.4227
-23.3975
-23.3556
-23.299
-23.2294
-23.1487
-23.0586
-22.9607
-22.8566
-22.7476
-22.6353
-22.5208
-22.4055
-22.2905
-22.1767
-22.0654
-21.9573
-21.8534
-21.7545
-21.6613
-21.5744
-21.4946
-21.4222
-21.3579
-21.3019
-21.2548
-21.2167
-21.1879
-21.1687
-21.159
233.015
222.918
212.998
203.267
193.734
184.407
175.293
166.398
157.727
149.284
141.073
133.098
125.357
117.854
110.589
103.564
96.775
90.2221
83.9034
77.8171
71.961
66.3327
60.929
55.7463
50.7806
46.028
41.4841
37.1445
33.0047
29.06
25.3057
21.7367
18.3481
15.1348
12.0917
9.21357
6.49523
3.93144
1.51698
-0.753342
-2.88471
-4.88228
-6.75114
-8.49634
-10.1229
-11.6356
-13.0395
-14.3393
-15.5395
-16.645
-17.6601
-18.5892
-19.4367
-20.2067
-20.9035
-21.5308
-22.0928
-22.5931
-23.0353
-23.4232
-23.7601
-24.0493
-24.2941
-24.4977
-24.663
-24.793
-24.8904
-24.958
-24.9983
-25.0139
-25.0071
-24.9802
-24.9355
-24.875
-24.8007
-24.7145
-24.6183
-24.5138
-24.4026
-24.2863
-24.1664
-24.0442
-23.9211
-23.7982
-23.6768
-23.558
-23.4426
-23.3317
-23.226
-23.1265
-23.0338
-22.9485
-22.8713
-22.8026
-22.7428
-22.6925
-22.6519
-22.6211
-22.6006
-22.5902
247.721
236.986
226.441
216.096
205.961
196.045
186.355
176.899
167.681
158.705
149.977
141.498
133.269
125.292
117.569
110.099
102.882
95.9161
89.1986
82.7281
76.5025
70.519
64.7743
59.2644
53.9854
48.9328
44.1022
39.4887
35.0877
30.894
26.9027
23.1085
19.506
16.09
12.8548
9.79504
6.90514
4.17955
1.61272
-0.800888
-3.06677
-5.1904
-7.17721
-9.03255
-10.7617
-12.37
-13.8624
-15.2442
-16.5203
-17.6954
-18.7746
-19.7624
-20.6633
-21.482
-22.2227
-22.8897
-23.4871
-24.0189
-24.4891
-24.9014
-25.2596
-25.5671
-25.8274
-26.0438
-26.2195
-26.3577
-26.4612
-26.5331
-26.5759
-26.5925
-26.5853
-26.5567
-26.5092
-26.4448
-26.3659
-26.2743
-26.172
-26.0609
-25.9427
-25.8191
-25.6916
-25.5617
-25.4307
-25.3002
-25.1711
-25.0447
-24.9221
-24.8041
-24.6918
-24.586
-24.4875
-24.3968
-24.3147
-24.2416
-24.1782
-24.1246
-24.0814
-24.0488
-24.0269
-24.0159
262.365
250.996
239.827
228.871
218.137
207.635
197.372
187.357
177.594
168.087
158.843
149.862
141.147
132.699
124.519
116.608
108.965
101.586
94.4717
87.6188
81.0252
74.6879
68.6036
62.768
57.1769
51.8256
46.7094
41.8232
37.1619
32.7204
28.4931
24.4746
20.6592
17.0411
13.6147
10.3741
7.31335
4.42663
1.70805
-0.848236
-3.24807
-5.49725
-7.6015
-9.56652
-11.3979
-13.1013
-14.682
-16.1454
-17.4969
-18.7416
-19.8845
-20.9307
-21.8849
-22.7519
-23.5364
-24.2428
-24.8756
-25.4388
-25.9368
-26.3735
-26.7528
-27.0785
-27.3542
-27.5834
-27.7695
-27.9159
-28.0255
-28.1016
-28.147
-28.1646
-28.1569
-28.1267
-28.0763
-28.0082
-27.9245
-27.8275
-27.7192
-27.6015
-27.4763
-27.3454
-27.2104
-27.0728
-26.9341
-26.7958
-26.6591
-26.5253
-26.3954
-26.2705
-26.1516
-26.0395
-25.9351
-25.8391
-25.7521
-25.6747
-25.6075
-25.5508
-25.505
-25.4705
-25.4473
-25.4357
276.945
264.944
253.155
241.589
230.259
219.173
208.34
197.769
187.463
177.428
167.67
158.19
148.991
140.073
131.439
123.088
115.02
107.232
99.7216
92.4878
85.5278
78.8384
72.4159
66.2561
60.3542
54.7056
49.305
44.1473
39.227
34.5387
30.0765
25.8346
21.8072
17.9881
14.3713
10.9506
7.71975
4.67262
1.80297
-0.895374
-3.42857
-5.80273
-8.02392
-10.0981
-12.0313
-13.8293
-15.4978
-17.0426
-18.4692
-19.783
-20.9895
-22.0938
-23.101
-24.0163
-24.8444
-25.59
-26.2579
-26.8525
-27.3782
-27.8391
-28.2395
-28.5833
-28.8743
-29.1162
-29.3127
-29.4672
-29.5829
-29.6633
-29.7112
-29.7297
-29.7216
-29.6897
-29.6365
-29.5646
-29.4763
-29.3739
-29.2596
-29.1354
-29.0032
-28.865
-28.7225
-28.5772
-28.4309
-28.2849
-28.1406
-27.9993
-27.8622
-27.7303
-27.6048
-27.4865
-27.3763
-27.275
-27.1831
-27.1015
-27.0305
-26.9707
-26.9224
-26.8859
-26.8614
-26.8491
291.457
278.827
266.42
254.248
242.324
230.658
219.257
208.131
197.286
186.725
176.455
166.479
156.798
147.413
138.326
129.538
121.047
112.85
104.947
97.334
90.0093
82.9694
76.2104
69.7278
63.5167
57.5721
51.8885
46.4605
41.2825
36.3484
31.6524
27.1883
22.9499
18.9307
15.1243
11.5244
8.12425
4.91745
1.89744
-0.942292
-3.60822
-6.10679
-8.44437
-10.6273
-12.6617
-14.5539
-16.3099
-17.9356
-19.437
-20.8196
-22.0893
-23.2515
-24.3115
-25.2747
-26.1462
-26.9309
-27.6338
-28.2595
-28.8127
-29.2979
-29.7192
-30.081
-30.3872
-30.6419
-30.8486
-31.0112
-31.133
-31.2176
-31.268
-31.2875
-31.279
-31.2454
-31.1894
-31.1137
-31.0208
-30.9131
-30.7927
-30.662
-30.5229
-30.3775
-30.2275
-30.0746
-29.9206
-29.767
-29.6151
-29.4664
-29.3221
-29.1834
-29.0513
-28.9268
-28.8108
-28.7041
-28.6075
-28.5216
-28.4469
-28.3839
-28.3331
-28.2946
-28.2689
-28.256
305.896
292.641
279.619
266.844
254.329
242.085
230.12
218.443
207.06
195.976
185.197
174.727
164.566
154.716
145.179
135.955
127.044
118.441
110.146
102.156
94.4687
87.08
79.9861
73.1823
66.6635
60.4243
54.4592
48.7623
43.3277
38.1492
33.2206
28.5353
24.0869
19.8685
15.8736
12.0953
8.52675
5.16107
1.99144
-0.988978
-3.78699
-6.40934
-8.86272
-11.1538
-13.289
-15.275
-17.1179
-18.8242
-20.3999
-21.8511
-23.1837
-24.4034
-25.516
-26.5269
-27.4415
-28.2651
-29.0028
-29.6596
-30.2402
-30.7494
-31.1916
-31.5713
-31.8927
-32.1599
-32.3769
-32.5476
-32.6754
-32.7642
-32.8171
-32.8375
-32.8286
-32.7934
-32.7346
-32.6552
-32.5577
-32.4446
-32.3183
-32.1811
-32.0351
-31.8825
-31.725
-31.5646
-31.403
-31.2417
-31.0823
-30.9263
-30.7748
-30.6292
-30.4905
-30.3599
-30.2381
-30.1262
-30.0248
-29.9346
-29.8562
-29.7901
-29.7367
-29.6964
-29.6694
-29.6559
320.26
306.382
292.749
279.374
266.272
253.453
240.925
228.7
216.783
205.178
193.894
182.932
172.293
161.981
151.996
142.34
133.009
124.003
115.318
106.953
98.9047
91.1691
83.7421
76.6188
69.7939
63.2617
57.0165
51.0521
45.3622
39.9406
34.7805
29.8752
25.2179
20.8015
16.619
12.6633
8.92714
5.40342
2.08495
-1.03542
-3.96482
-6.7103
-9.2789
-11.6775
-13.9131
-15.9922
-17.9218
-19.7081
-21.3578
-22.8772
-24.2723
-25.5493
-26.7141
-27.7725
-28.7301
-29.5924
-30.3647
-31.0523
-31.6602
-32.1933
-32.6563
-33.0538
-33.3903
-33.6701
-33.8973
-34.0759
-34.2098
-34.3027
-34.3581
-34.3795
-34.3702
-34.3333
-34.2718
-34.1886
-34.0865
-33.9681
-33.8359
-33.6922
-33.5394
-33.3796
-33.2147
-33.0468
-32.8776
-32.7087
-32.5419
-32.3785
-32.2199
-32.0675
-31.9223
-31.7855
-31.658
-31.5408
-31.4347
-31.3402
-31.2582
-31.189
-31.1331
-31.0909
-31.0626
-31.0484
334.545
320.048
305.807
291.836
278.149
264.758
251.672
238.901
226.452
214.33
202.542
191.091
179.978
169.206
158.776
148.689
138.942
129.534
120.462
111.724
103.316
95.2356
87.4773
80.0363
72.907
66.0835
59.5597
53.3292
47.3856
41.7221
36.3319
31.2078
26.3427
21.7294
17.3603
13.2281
9.32533
5.64444
2.17795
-1.08161
-4.14167
-7.00962
-9.69278
-12.1984
-14.5336
-16.7056
-18.7212
-20.5872
-22.3105
-23.8976
-25.355
-26.6889
-27.9057
-29.0113
-30.0116
-30.9123
-31.7191
-32.4374
-33.0724
-33.6292
-34.1129
-34.5281
-34.8797
-35.1719
-35.4093
-35.5958
-35.7357
-35.8327
-35.8906
-35.913
-35.9032
-35.8647
-35.8004
-35.7136
-35.6069
-35.4832
-35.3451
-35.1951
-35.0354
-34.8685
-34.6963
-34.5208
-34.3441
-34.1677
-33.9934
-33.8227
-33.6571
-33.4978
-33.3462
-33.2033
-33.0701
-32.9477
-32.8368
-32.7382
-32.6524
-32.5801
-32.5218
-32.4777
-32.4481
-32.4333
348.748
333.635
318.789
304.225
289.957
275.998
262.356
249.043
236.066
223.429
211.141
199.204
187.619
176.389
165.516
155.001
144.841
135.033
125.576
116.467
107.702
99.2787
91.1911
83.4341
76.0021
68.8889
62.0881
55.5932
49.3973
43.4933
37.8743
32.5327
27.4611
22.6518
18.0973
13.7897
9.72121
5.88406
2.27041
-1.12753
-4.3175
-7.3072
-10.1043
-12.7163
-15.1506
-17.4148
-19.5159
-21.4612
-23.2576
-24.9121
-26.4314
-27.822
-29.0904
-30.2429
-31.2857
-32.2247
-33.0657
-33.8145
-34.4764
-35.0569
-35.5611
-35.994
-36.3604
-36.6651
-36.9125
-37.107
-37.2528
-37.3539
-37.4143
-37.4376
-37.4274
-37.3872
-37.3203
-37.2297
-37.1185
-36.9896
-36.8456
-36.6892
-36.5228
-36.3487
-36.1692
-35.9864
-35.8021
-35.6182
-35.4365
-35.2586
-35.0859
-34.9199
-34.7618
-34.6129
-34.4741
-34.3464
-34.2308
-34.128
-34.0386
-33.9633
-33.9024
-33.8565
-33.8257
-33.8102
362.864
347.14
331.693
316.54
301.694
287.169
272.976
259.124
245.621
232.473
219.687
207.267
195.213
183.529
172.216
161.275
150.703
140.499
130.659
121.181
112.062
103.297
94.8823
86.8113
79.0785
71.6774
64.6013
57.8435
51.3967
45.2538
39.4073
33.8495
28.5726
23.5687
18.8298
14.3479
10.1147
6.12223
2.3623
-1.17317
-4.49226
-7.60298
-10.5133
-13.231
-15.7639
-18.1197
-20.3059
-22.3299
-24.1991
-25.9205
-27.5012
-28.9481
-30.2679
-31.4671
-32.552
-33.529
-34.4041
-35.1832
-35.8719
-36.4759
-37.0005
-37.4509
-37.8322
-38.1492
-38.4066
-38.609
-38.7607
-38.8659
-38.9287
-38.953
-38.9424
-38.9006
-38.8309
-38.7367
-38.621
-38.4868
-38.337
-38.1743
-38.0011
-37.82
-37.6333
-37.443
-37.2512
-37.0599
-36.8709
-36.6858
-36.5061
-36.3334
-36.1689
-36.0139
-35.8695
-35.7367
-35.6164
-35.5094
-35.4164
-35.338
-35.2747
-35.2269
-35.1949
-35.1788
376.891
360.559
344.515
328.776
313.356
298.27
283.528
269.141
255.116
241.459
228.18
215.279
202.76
190.624
178.873
167.509
156.529
145.93
135.71
125.866
116.394
107.29
98.5501
90.1672
82.1354
74.4481
67.0985
60.0795
53.3835
47.0032
40.9306
35.158
29.6771
24.4798
19.5577
14.9025
10.5057
6.35888
2.45362
-1.21852
-4.66592
-7.89688
-10.9197
-13.7425
-16.3733
-18.8201
-21.0908
-23.1931
-25.1345
-26.9225
-28.5643
-30.0672
-31.4379
-32.6835
-33.8104
-34.8251
-35.7341
-36.5432
-37.2586
-37.8859
-38.4308
-38.8986
-39.2946
-39.6239
-39.8913
-40.1015
-40.259
-40.3683
-40.4336
-40.4588
-40.4478
-40.4043
-40.332
-40.2341
-40.1139
-39.9746
-39.819
-39.65
-39.4701
-39.282
-39.088
-38.8904
-38.6912
-38.4925
-38.2962
-38.1039
-37.9173
-37.7379
-37.567
-37.4061
-37.2561
-37.1181
-36.9932
-36.8821
-36.7855
-36.7041
-36.6383
-36.5886
-36.5553
-36.5387
390.825
373.889
357.252
340.931
324.941
309.297
294.01
279.091
264.548
250.386
236.615
223.238
210.256
197.671
185.487
173.702
162.316
151.325
140.727
130.519
120.697
111.257
102.194
93.5007
85.172
77.2005
69.5792
62.3006
55.3571
48.7409
42.4439
36.4578
30.7743
25.3848
20.2808
15.4534
10.8941
6.59397
2.54433
-1.26357
-4.83842
-8.18884
-11.3234
-14.2505
-16.9786
-19.5159
-21.8706
-24.0506
-26.0637
-27.9178
-29.6204
-31.1788
-32.6002
-33.8918
-35.0604
-36.1127
-37.0552
-37.8943
-38.6361
-39.2866
-39.8516
-40.3367
-40.7474
-41.0888
-41.3661
-41.5841
-41.7475
-41.8608
-41.9284
-41.9546
-41.9432
-41.8981
-41.8231
-41.7216
-41.597
-41.4525
-41.2911
-41.1158
-40.9294
-40.7343
-40.5331
-40.3282
-40.1217
-39.9156
-39.712
-39.5126
-39.3191
-39.1331
-38.9559
-38.789
-38.6335
-38.4904
-38.3609
-38.2456
-38.1455
-38.061
-37.9929
-37.9413
-37.9068
-37.8895
404.663
387.127
369.901
353.002
336.446
320.248
304.42
288.973
273.914
259.252
244.993
231.142
217.7
204.67
192.054
179.852
168.063
156.683
145.71
135.14
124.97
115.196
105.812
96.8112
88.1876
79.9339
72.0427
64.5064
57.3171
50.4666
43.9466
37.7486
31.8639
26.2836
20.9988
16.0006
11.2798
6.82744
2.63441
-1.30831
-5.00973
-8.47877
-11.7243
-14.7551
-17.5798
-20.2069
-22.6449
-24.9021
-26.9866
-28.9063
-30.6691
-32.2827
-33.7545
-35.0918
-36.3017
-37.3913
-38.3671
-39.2359
-40.004
-40.6776
-41.2626
-41.7649
-42.1901
-42.5436
-42.8307
-43.0564
-43.2256
-43.3429
-43.4129
-43.44
-43.4282
-43.3816
-43.3039
-43.1988
-43.0698
-42.9201
-42.7531
-42.5716
-42.3785
-42.1765
-41.9683
-41.7561
-41.5422
-41.3289
-41.1181
-40.9116
-40.7112
-40.5186
-40.3352
-40.1623
-40.0013
-39.8532
-39.7191
-39.5997
-39.496
-39.4086
-39.338
-39.2847
-39.2489
-39.231
418.4
400.269
382.458
364.986
347.868
331.12
314.754
298.783
283.213
268.053
253.31
238.989
225.091
211.618
198.574
185.958
173.768
162.002
150.656
139.728
129.213
119.107
109.404
100.098
91.1814
82.6475
74.4885
66.6963
59.2629
52.1799
45.4385
39.0301
32.9456
27.1759
21.7117
16.5438
11.6627
7.05921
2.72384
-1.35273
-5.17981
-8.76662
-12.1223
-15.256
-18.1766
-20.8929
-23.4137
-25.7475
-27.9027
-29.8876
-31.7103
-33.3786
-34.9004
-36.2831
-37.5341
-38.6606
-39.6697
-40.5679
-41.3621
-42.0585
-42.6634
-43.1828
-43.6224
-43.9879
-44.2847
-44.5181
-44.693
-44.8143
-44.8867
-44.9147
-44.9025
-44.8543
-44.774
-44.6653
-44.5319
-44.3772
-44.2045
-44.0168
-43.8172
-43.6084
-43.393
-43.1736
-42.9525
-42.7319
-42.5139
-42.3005
-42.0933
-41.8942
-41.7045
-41.5258
-41.3593
-41.2062
-41.0675
-40.9441
-40.8369
-40.7465
-40.6735
-40.6183
-40.5814
-40.5629
432.035
413.313
394.921
376.879
359.204
341.91
325.011
308.519
292.442
276.788
261.565
246.777
232.426
218.514
205.045
192.018
179.431
167.281
155.566
144.281
133.424
122.988
112.969
103.36
94.1528
85.3408
76.9158
68.8697
61.1941
53.8802
46.9192
40.302
34.0192
28.0614
22.4192
17.0829
12.0428
7.28925
2.8126
-1.39682
-5.3486
-9.0523
-12.5174
-15.7531
-18.7689
-21.5737
-24.1767
-26.5865
-28.812
-30.8616
-32.7436
-34.4663
-36.0377
-37.4654
-38.7572
-39.9205
-40.9624
-41.8899
-42.71
-43.4291
-44.0537
-44.59
-45.0439
-45.4213
-45.7278
-45.9688
-46.1494
-46.2747
-46.3495
-46.3783
-46.3658
-46.316
-46.233
-46.1208
-45.9831
-45.8233
-45.645
-45.4512
-45.2451
-45.0294
-44.8071
-44.5805
-44.3522
-44.1244
-43.8993
-43.6789
-43.465
-43.2594
-43.0635
-42.879
-42.7071
-42.5489
-42.4057
-42.2783
-42.1676
-42.0743
-41.9989
-41.942
-41.9038
-41.8847
445.563
426.255
407.287
388.68
370.451
352.616
335.188
318.179
301.599
285.455
269.755
254.504
239.703
225.356
211.465
198.03
185.049
172.519
160.437
148.799
137.601
126.839
116.506
106.596
97.1009
88.0129
79.3242
71.0262
63.1102
55.5673
48.3884
41.5639
35.0844
28.9401
23.1212
17.6178
12.4199
7.51749
2.90067
-1.44056
-5.51608
-9.33574
-12.9093
-16.2464
-19.3566
-22.2493
-24.9337
-27.419
-29.7141
-31.8279
-33.7689
-35.5455
-37.1661
-38.6385
-39.9708
-41.1705
-42.245
-43.2016
-44.0473
-44.7889
-45.4331
-45.9861
-46.4543
-46.8436
-47.1597
-47.4082
-47.5944
-47.7237
-47.8008
-47.8305
-47.8176
-47.7662
-47.6807
-47.5649
-47.4229
-47.2581
-47.0742
-46.8744
-46.6618
-46.4394
-46.21
-45.9764
-45.741
-45.5061
-45.2739
-45.0466
-44.826
-44.6139
-44.4119
-44.2216
-44.0443
-43.8812
-43.7335
-43.6022
-43.488
-43.3917
-43.314
-43.2553
-43.2159
-43.1962
458.981
439.091
419.552
400.385
381.607
363.235
345.282
327.761
310.682
294.051
277.878
262.168
246.922
232.143
217.833
203.994
190.622
177.714
165.268
153.28
141.745
130.659
120.015
109.806
100.025
90.6634
81.713
73.1651
65.0107
57.2407
49.8455
42.8156
36.1409
29.8116
23.8175
18.1483
12.7939
7.74387
2.98801
-1.48394
-5.6822
-9.61689
-13.2981
-16.7357
-19.9395
-22.9193
-25.6846
-28.2447
-30.609
-32.7864
-34.7858
-36.616
-38.2853
-39.8021
-41.1745
-42.4103
-43.5172
-44.5026
-45.3738
-46.1377
-46.8013
-47.371
-47.8533
-48.2542
-48.5798
-48.8358
-49.0277
-49.1608
-49.2403
-49.2709
-49.2576
-49.2047
-49.1165
-48.9973
-48.851
-48.6813
-48.4918
-48.286
-48.067
-47.8379
-47.6016
-47.361
-47.1184
-46.8765
-46.6373
-46.4031
-46.1759
-45.9574
-45.7494
-45.5533
-45.3707
-45.2027
-45.0505
-44.9152
-44.7976
-44.6984
-44.6184
-44.5579
-44.5173
-44.497
472.285
451.819
431.714
411.991
392.669
373.764
355.291
337.262
319.688
302.575
285.933
269.768
254.08
238.872
224.148
209.907
196.147
182.866
170.059
157.723
145.854
134.446
123.494
112.989
102.924
93.2915
84.0816
75.286
66.8952
58.9
51.2904
44.0567
37.1886
30.6758
24.5079
18.6744
13.1647
7.96834
3.07463
-1.52696
-5.84691
-9.89566
-13.6835
-17.2208
-20.5175
-23.5837
-26.4291
-29.0635
-31.4962
-33.7368
-35.7942
-37.6774
-39.3951
-40.9559
-42.368
-43.6397
-44.7786
-45.7926
-46.689
-47.4751
-48.1579
-48.7442
-49.2404
-49.653
-49.988
-50.2515
-50.4489
-50.5859
-50.6676
-50.6992
-50.6854
-50.631
-50.5403
-50.4176
-50.2671
-50.0924
-49.8975
-49.6856
-49.4603
-49.2246
-48.9815
-48.7338
-48.4843
-48.2353
-47.9892
-47.7483
-47.5144
-47.2896
-47.0755
-46.8738
-46.6858
-46.513
-46.3564
-46.2172
-46.0962
-45.9941
-45.9117
-45.8495
-45.8078
-45.7868
485.473
464.436
443.769
423.496
403.634
384.201
365.212
346.68
328.615
311.024
293.918
277.301
261.174
245.542
230.407
215.768
201.625
187.972
174.808
162.127
149.927
138.201
126.942
116.144
105.799
95.8966
86.4295
77.3882
68.7632
60.5447
52.7227
45.2869
38.227
31.5324
25.1922
19.1959
13.5323
8.19085
3.16048
-1.5696
-6.01018
-10.172
-14.0656
-17.7017
-21.0904
-24.2422
-27.1671
-29.875
-32.3757
-34.6788
-36.7937
-38.7295
-40.4952
-42.0995
-43.5511
-44.8582
-46.029
-47.0713
-47.9928
-48.8008
-49.5027
-50.1053
-50.6154
-51.0395
-51.3839
-51.6547
-51.8576
-51.9984
-52.0825
-52.1149
-52.1008
-52.0448
-51.9516
-51.8255
-51.6707
-51.4912
-51.2908
-51.0731
-50.8414
-50.5991
-50.3492
-50.0947
-49.8381
-49.5822
-49.3293
-49.0816
-48.8412
-48.6101
-48.3901
-48.1827
-47.9895
-47.8118
-47.6509
-47.5078
-47.3833
-47.2785
-47.1938
-47.1298
-47.0869
-47.0654
498.542
476.938
455.715
434.896
414.499
394.544