/*--------------------------------*- C++ -*----------------------------------*\
| =========                 |                                                 |
| \\      /  F ield         | OpenFOAM: The Open Source CFD Toolbox           |
|  \\    /   O peration     | Version:  2406                                  |
|   \\  /    A nd           | Website:  www.openfoam.com                      |
|    \\/     M anipulation  |                                                 |
\*---------------------------------------------------------------------------*/
FoamFile
{
    version     2.0;
    format      ascii;
    arch        "LSB;label=32;scalar=64";
    class       volVectorField;
    location    "20";
    object      flux;
}
// * * * * * * * * * * * * * * * * * * * * * * * * * * * * * * * * * * * * * //

dimensions      [0 1 -1 1 0 0 0];

internalField   nonuniform List<vector> 
20000
(
(-0.0005139 0.00766777 0)
(-0.000458054 0.00669835 0)
(-0.000407045 0.00583567 0)
(-0.000360609 0.00507029 0)
(-0.000318499 0.00439332 0)
(-0.000280469 0.00379636 0)
(-0.00024621 0.00327153 0)
(-0.000215465 0.00281159 0)
(-0.000187999 0.00240971 0)
(-0.00016354 0.00205963 0)
(-0.000141825 0.0017556 0)
(-0.000122615 0.00149237 0)
(-0.000105684 0.00126517 0)
(-9.08177e-05 0.00106966 0)
(-7.78091e-05 0.000901919 0)
(-6.6465e-05 0.000758439 0)
(-5.66057e-05 0.000636075 0)
(-4.80658e-05 0.00053203 0)
(-4.06937e-05 0.000443824 0)
(-3.4351e-05 0.000369265 0)
(-2.89125e-05 0.000306428 0)
(-2.42646e-05 0.000253623 0)
(-2.03056e-05 0.000209376 0)
(-1.69442e-05 0.000172406 0)
(-1.40995e-05 0.000141603 0)
(-1.16996e-05 0.000116011 0)
(-9.68143e-06 9.48074e-05 0)
(-7.98949e-06 7.72878e-05 0)
(-6.57539e-06 6.28514e-05 0)
(-5.39711e-06 5.09878e-05 0)
(-4.41824e-06 4.12643e-05 0)
(-3.60745e-06 3.33159e-05 0)
(-2.93783e-06 2.68354e-05 0)
(-2.3864e-06 2.15653e-05 0)
(-1.93358e-06 1.72904e-05 0)
(-1.56278e-06 1.38315e-05 0)
(-1.25998e-06 1.10397e-05 0)
(-1.01338e-06 8.79185e-06 0)
(-8.13091e-07 6.98639e-06 0)
(-6.50845e-07 5.53969e-06 0)
(-5.19757e-07 4.38317e-06 0)
(-4.14116e-07 3.46078e-06 0)
(-3.29197e-07 2.72681e-06 0)
(-2.61105e-07 2.14408e-06 0)
(-2.06639e-07 1.68245e-06 0)
(-1.63179e-07 1.31757e-06 0)
(-1.28581e-07 1.02978e-06 0)
(-1.01105e-07 8.03273e-07 0)
(-7.93335e-08 6.25381e-07 0)
(-6.21219e-08 4.85957e-07 0)
(-4.85456e-08 3.76907e-07 0)
(-3.78602e-08 2.91786e-07 0)
(-2.94684e-08 2.25475e-07 0)
(-2.2892e-08 1.73919e-07 0)
(-1.77491e-08 1.33912e-07 0)
(-1.37355e-08 1.02926e-07 0)
(-1.06096e-08 7.8973e-08 0)
(-8.18e-09 6.04902e-08 0)
(-6.29533e-09 4.62547e-08 0)
(-4.83621e-09 3.53102e-08 0)
(-3.70871e-09 2.69108e-08 0)
(-2.83912e-09 2.0476e-08 0)
(-2.16969e-09 1.55549e-08 0)
(-1.65529e-09 1.17977e-08 0)
(-1.26074e-09 8.93399e-09 0)
(-9.58645e-10 6.75495e-09 0)
(-7.27747e-10 5.09958e-09 0)
(-5.51581e-10 3.84407e-09 0)
(-4.17394e-10 2.89335e-09 0)
(-3.15359e-10 2.17456e-09 0)
(-2.379e-10 1.63196e-09 0)
(-1.79191e-10 1.22299e-09 0)
(-1.3477e-10 9.15213e-10 0)
(-1.0121e-10 6.83926e-10 0)
(-7.58951e-11 5.10386e-10 0)
(-5.68296e-11 3.80357e-10 0)
(-4.24932e-11 2.83072e-10 0)
(-3.17262e-11 2.10391e-10 0)
(-2.36588e-11 1.56163e-10 0)
(-1.76158e-11 1.15762e-10 0)
(-1.30982e-11 8.57021e-11 0)
(-9.72736e-12 6.33663e-11 0)
(-7.21585e-12 4.67927e-11 0)
(-5.34299e-12 3.45081e-11 0)
(-3.95076e-12 2.54207e-11 0)
(-2.91899e-12 1.87024e-11 0)
(-2.15496e-12 1.37434e-11 0)
(-1.58814e-12 1.00826e-11 0)
(-1.1689e-12 7.38955e-12 0)
(-8.61984e-13 5.40699e-12 0)
(-6.32122e-13 3.94945e-12 0)
(-4.61031e-13 2.87981e-12 0)
(-3.40875e-13 2.09358e-12 0)
(-2.52065e-13 1.5137e-12 0)
(-1.85457e-13 1.08793e-12 0)
(-1.41052e-13 7.69255e-13 0)
(-1.07095e-13 5.31557e-13 0)
(-8.09743e-14 3.44794e-13 0)
(-7.1832e-14 1.93293e-13 0)
(-6.53018e-14 6.26897e-14 0)
(-0.00154158 0.00766589 0)
(-0.00137405 0.0066967 0)
(-0.00122102 0.00583423 0)
(-0.00108175 0.00506904 0)
(-0.000955432 0.00439222 0)
(-0.000841319 0.00379541 0)
(-0.000738559 0.00327074 0)
(-0.000646352 0.0028109 0)
(-0.000563958 0.00240911 0)
(-0.000490578 0.00205912 0)
(-0.000425436 0.00175516 0)
(-0.000367812 0.001492 0)
(-0.000317027 0.00126486 0)
(-0.000272432 0.0010694 0)
(-0.000233409 0.000901697 0)
(-0.000199379 0.000758251 0)
(-0.000169803 0.000635917 0)
(-0.000144185 0.000531898 0)
(-0.000122071 0.000443713 0)
(-0.000103044 0.000369174 0)
(-8.67302e-05 0.000306352 0)
(-7.27878e-05 0.00025356 0)
(-6.09117e-05 0.000209324 0)
(-5.08284e-05 0.000172363 0)
(-4.22949e-05 0.000141568 0)
(-3.5096e-05 0.000115983 0)
(-2.90419e-05 9.47841e-05 0)
(-2.39665e-05 7.72687e-05 0)
(-1.97246e-05 6.2836e-05 0)
(-1.619e-05 5.09753e-05 0)
(-1.32536e-05 4.12542e-05 0)
(-1.08215e-05 3.33078e-05 0)
(-8.81278e-06 2.68288e-05 0)
(-7.15862e-06 2.156e-05 0)
(-5.80027e-06 1.72862e-05 0)
(-4.68796e-06 1.38281e-05 0)
(-3.77963e-06 1.1037e-05 0)
(-3.03989e-06 8.78972e-06 0)
(-2.43908e-06 6.9847e-06 0)
(-1.95238e-06 5.53835e-06 0)
(-1.55915e-06 4.38211e-06 0)
(-1.24225e-06 3.45995e-06 0)
(-9.87512e-07 2.72615e-06 0)
(-7.83252e-07 2.14356e-06 0)
(-6.19869e-07 1.68205e-06 0)
(-4.89497e-07 1.31726e-06 0)
(-3.85714e-07 1.02953e-06 0)
(-3.03291e-07 8.03084e-07 0)
(-2.37982e-07 6.25234e-07 0)
(-1.86352e-07 4.85844e-07 0)
(-1.45626e-07 3.7682e-07 0)
(-1.13572e-07 2.91719e-07 0)
(-8.83987e-08 2.25423e-07 0)
(-6.8671e-08 1.73879e-07 0)
(-5.32433e-08 1.33882e-07 0)
(-4.12034e-08 1.02903e-07 0)
(-3.18266e-08 7.89556e-08 0)
(-2.45383e-08 6.0477e-08 0)
(-1.88847e-08 4.62447e-08 0)
(-1.45077e-08 3.53027e-08 0)
(-1.11254e-08 2.69052e-08 0)
(-8.51683e-09 2.04718e-08 0)
(-6.50867e-09 1.55517e-08 0)
(-4.96558e-09 1.17953e-08 0)
(-3.78199e-09 8.93223e-09 0)
(-2.87577e-09 6.75364e-09 0)
(-2.18313e-09 5.09862e-09 0)
(-1.65465e-09 3.84336e-09 0)
(-1.25212e-09 2.89283e-09 0)
(-9.46031e-10 2.17417e-09 0)
(-7.13667e-10 1.63168e-09 0)
(-5.37555e-10 1.22279e-09 0)
(-4.04294e-10 9.15063e-10 0)
(-3.03616e-10 6.83822e-10 0)
(-2.27676e-10 5.10308e-10 0)
(-1.70486e-10 3.80301e-10 0)
(-1.27473e-10 2.83032e-10 0)
(-9.518e-11 2.10361e-10 0)
(-7.09713e-11 1.56144e-10 0)
(-5.28448e-11 1.1575e-10 0)
(-3.92986e-11 8.56904e-11 0)
(-2.91834e-11 6.33571e-11 0)
(-2.16397e-11 4.67861e-11 0)
(-1.6029e-11 3.45081e-11 0)
(-1.18562e-11 2.54168e-11 0)
(-8.75828e-12 1.86998e-11 0)
(-6.46488e-12 1.37369e-11 0)
(-4.76573e-12 1.00826e-11 0)
(-3.5054e-12 7.38825e-12 0)
(-2.57942e-12 5.4083e-12 0)
(-1.89506e-12 3.95337e-12 0)
(-1.39485e-12 2.87981e-12 0)
(-1.02263e-12 2.09227e-12 0)
(-7.54889e-13 1.51761e-12 0)
(-5.58984e-13 1.08662e-12 0)
(-4.1532e-13 7.70561e-13 0)
(-3.19979e-13 5.28945e-13 0)
(-2.52065e-13 3.42182e-13 0)
(-2.11578e-13 1.94599e-13 0)
(-1.93293e-13 6.26897e-14 0)
(-0.00256888 0.00766211 0)
(-0.00228971 0.0066934 0)
(-0.0020347 0.00583135 0)
(-0.00180262 0.00506654 0)
(-0.00159213 0.00439006 0)
(-0.00140195 0.00379354 0)
(-0.00123072 0.00326913 0)
(-0.00107709 0.00280951 0)
(-0.000939784 0.00240792 0)
(-0.000817494 0.0020581 0)
(-0.000708938 0.00175429 0)
(-0.000612916 0.00149127 0)
(-0.000528292 0.00126424 0)
(-0.00045398 0.00106887 0)
(-0.000388953 0.000901253 0)
(-0.000332245 0.000757877 0)
(-0.000282959 0.000635602 0)
(-0.000240269 0.000531634 0)
(-0.000203417 0.000443494 0)
(-0.000171712 0.000368991 0)
(-0.000144526 0.000306201 0)
(-0.000121293 0.000253435 0)
(-0.000101503 0.000209221 0)
(-8.47001e-05 0.000172278 0)
(-7.04799e-05 0.000141498 0)
(-5.84837e-05 0.000115925 0)
(-4.83952e-05 9.47373e-05 0)
(-3.99376e-05 7.72306e-05 0)
(-3.28689e-05 6.2805e-05 0)
(-2.69789e-05 5.09502e-05 0)
(-2.20858e-05 4.12339e-05 0)
(-1.80328e-05 3.32914e-05 0)
(-1.46856e-05 2.68157e-05 0)
(-1.19291e-05 2.15494e-05 0)
(-9.66553e-06 1.72777e-05 0)
(-7.81198e-06 1.38213e-05 0)
(-6.29835e-06 1.10316e-05 0)
(-5.06566e-06 8.78541e-06 0)
(-4.06446e-06 6.98128e-06 0)
(-3.25343e-06 5.53564e-06 0)
(-2.59815e-06 4.37998e-06 0)
(-2.07008e-06 3.45827e-06 0)
(-1.64558e-06 2.72483e-06 0)
(-1.30521e-06 2.14253e-06 0)
(-1.03295e-06 1.68124e-06 0)
(-8.15696e-07 1.31662e-06 0)
(-6.42753e-07 1.02904e-06 0)
(-5.05404e-07 8.02699e-07 0)
(-3.96573e-07 6.24936e-07 0)
(-3.10536e-07 4.85613e-07 0)
(-2.42671e-07 3.76641e-07 0)
(-1.89257e-07 2.91581e-07 0)
(-1.47308e-07 2.25318e-07 0)
(-1.14434e-07 1.73798e-07 0)
(-8.87249e-08 1.3382e-07 0)
(-6.86617e-08 1.02856e-07 0)
(-5.3036e-08 7.89194e-08 0)
(-4.08909e-08 6.04495e-08 0)
(-3.14697e-08 4.62238e-08 0)
(-2.41758e-08 3.52868e-08 0)
(-1.85396e-08 2.68932e-08 0)
(-1.41926e-08 2.04628e-08 0)
(-1.08462e-08 1.55449e-08 0)
(-8.27475e-09 1.17902e-08 0)
(-6.3024e-09 8.9284e-09 0)
(-4.79225e-09 6.75078e-09 0)
(-3.63803e-09 5.09648e-09 0)
(-2.75737e-09 3.84177e-09 0)
(-2.08658e-09 2.89165e-09 0)
(-1.57651e-09 2.1733e-09 0)
(-1.18928e-09 1.63103e-09 0)
(-8.95806e-10 1.22231e-09 0)
(-6.73737e-10 9.14713e-10 0)
(-5.05965e-10 6.83565e-10 0)
(-3.79415e-10 5.1012e-10 0)
(-2.84105e-10 3.80166e-10 0)
(-2.12432e-10 2.82936e-10 0)
(-1.58618e-10 2.10289e-10 0)
(-1.18271e-10 1.5609e-10 0)
(-8.80673e-11 1.15707e-10 0)
(-6.54899e-11 8.56629e-11 0)
(-4.86316e-11 6.33402e-11 0)
(-3.60649e-11 4.67731e-11 0)
(-2.67124e-11 3.44976e-11 0)
(-1.97577e-11 2.54116e-11 0)
(-1.45989e-11 1.86933e-11 0)
(-1.07722e-11 1.37356e-11 0)
(-7.93809e-12 1.00813e-11 0)
(-5.84321e-12 7.38825e-12 0)
(-4.29817e-12 5.40568e-12 0)
(-3.1593e-12 3.94945e-12 0)
(-2.32083e-12 2.88242e-12 0)
(-1.70568e-12 2.09619e-12 0)
(-1.25771e-12 1.515e-12 0)
(-9.3251e-13 1.08793e-12 0)
(-6.97423e-13 7.69255e-13 0)
(-5.32863e-13 5.30251e-13 0)
(-4.20544e-13 3.461e-13 0)
(-3.50018e-13 1.90681e-13 0)
(-3.21285e-13 6.26897e-14 0)
(-0.00359554 0.00765643 0)
(-0.00320481 0.00668845 0)
(-0.00284788 0.00582703 0)
(-0.00252304 0.00506279 0)
(-0.00222843 0.00438681 0)
(-0.00196225 0.00379073 0)
(-0.00172258 0.0032667 0)
(-0.00150756 0.00280743 0)
(-0.00131538 0.00240614 0)
(-0.00114421 0.00205657 0)
(-0.000992263 0.001753 0)
(-0.000857868 0.00149017 0)
(-0.000739427 0.0012633 0)
(-0.000635418 0.00106808 0)
(-0.000544402 0.000900585 0)
(-0.00046503 0.000757315 0)
(-0.000396046 0.000635131 0)
(-0.000336294 0.00053124 0)
(-0.000284714 0.000443165 0)
(-0.000240337 0.000368717 0)
(-0.000202287 0.000305974 0)
(-0.000169768 0.000253247 0)
(-0.000142069 0.000209066 0)
(-0.000118551 0.00017215 0)
(-9.86475e-05 0.000141393 0)
(-8.18569e-05 0.00011584 0)
(-6.77366e-05 9.46672e-05 0)
(-5.58988e-05 7.71735e-05 0)
(-4.6005e-05 6.27586e-05 0)
(-3.77611e-05 5.09125e-05 0)
(-3.09124e-05 4.12034e-05 0)
(-2.52397e-05 3.32668e-05 0)
(-2.05547e-05 2.67959e-05 0)
(-1.66966e-05 2.15336e-05 0)
(-1.35284e-05 1.7265e-05 0)
(-1.09341e-05 1.38111e-05 0)
(-8.81551e-06 1.10235e-05 0)
(-7.09018e-06 8.77896e-06 0)
(-5.68885e-06 6.97616e-06 0)
(-4.55368e-06 5.53159e-06 0)
(-3.63652e-06 4.37678e-06 0)
(-2.8974e-06 3.45574e-06 0)
(-2.30325e-06 2.72284e-06 0)
(-1.82684e-06 2.14097e-06 0)
(-1.44577e-06 1.68002e-06 0)
(-1.1417e-06 1.31567e-06 0)
(-8.99636e-07 1.02829e-06 0)
(-7.07394e-07 8.02121e-07 0)
(-5.55068e-07 6.24487e-07 0)
(-4.34646e-07 4.85265e-07 0)
(-3.39657e-07 3.76373e-07 0)
(-2.64896e-07 2.91374e-07 0)
(-2.06182e-07 2.25158e-07 0)
(-1.60169e-07 1.73676e-07 0)
(-1.24186e-07 1.33726e-07 0)
(-9.61037e-08 1.02784e-07 0)
(-7.42331e-08 7.88646e-08 0)
(-5.72339e-08 6.04077e-08 0)
(-4.40474e-08 4.61921e-08 0)
(-3.38383e-08 3.52627e-08 0)
(-2.59495e-08 2.68749e-08 0)
(-1.98651e-08 2.0449e-08 0)
(-1.51812e-08 1.55345e-08 0)
(-1.15821e-08 1.17824e-08 0)
(-8.8214e-09 8.92254e-09 0)
(-6.70769e-09 6.74639e-09 0)
(-5.09214e-09 5.0932e-09 0)
(-3.85949e-09 3.83932e-09 0)
(-2.92059e-09 2.88982e-09 0)
(-2.20665e-09 2.17194e-09 0)
(-1.66465e-09 1.63002e-09 0)
(-1.25387e-09 1.22156e-09 0)
(-9.43042e-10 9.14163e-10 0)
(-7.08207e-10 6.83156e-10 0)
(-5.31076e-10 5.09822e-10 0)
(-3.9767e-10 3.79946e-10 0)
(-2.97349e-10 2.82773e-10 0)
(-2.22026e-10 2.10173e-10 0)
(-1.65549e-10 1.56003e-10 0)
(-1.23274e-10 1.15646e-10 0)
(-9.16681e-11 8.56172e-11 0)
(-6.80732e-11 6.33075e-11 0)
(-5.04835e-11 4.67483e-11 0)
(-3.73892e-11 3.44781e-11 0)
(-2.76605e-11 2.53972e-11 0)
(-2.04342e-11 1.86842e-11 0)
(-1.50756e-11 1.37304e-11 0)
(-1.11131e-11 1.00761e-11 0)
(-8.18101e-12 7.38302e-12 0)
(-6.01691e-12 5.40307e-12 0)
(-4.41963e-12 3.94815e-12 0)
(-3.24811e-12 2.8785e-12 0)
(-2.39135e-12 2.08966e-12 0)
(-1.76184e-12 1.51239e-12 0)
(-1.30342e-12 1.08662e-12 0)
(-9.76915e-13 7.66643e-13 0)
(-7.43135e-13 5.26333e-13 0)
(-5.91634e-13 3.40875e-13 0)
(-4.9107e-13 1.90681e-13 0)
(-4.4797e-13 6.13837e-14 0)
(-0.00462131 0.00764886 0)
(-0.00411911 0.00668184 0)
(-0.00366036 0.00582128 0)
(-0.00324283 0.00505779 0)
(-0.00286418 0.00438248 0)
(-0.00252206 0.00378699 0)
(-0.00221402 0.00326348 0)
(-0.00193766 0.00280466 0)
(-0.00169064 0.00240376 0)
(-0.00147063 0.00205454 0)
(-0.00127534 0.00175127 0)
(-0.00110261 0.0014887 0)
(-0.000950379 0.00126206 0)
(-0.000816699 0.00106702 0)
(-0.000699717 0.000899695 0)
(-0.0005977 0.000756566 0)
(-0.000509035 0.000634503 0)
(-0.000432236 0.000530714 0)
(-0.00036594 0.000442726 0)
(-0.000308903 0.000368353 0)
(-0.000259997 0.000305671 0)
(-0.000218201 0.000252997 0)
(-0.000182599 0.000208859 0)
(-0.000152372 0.00017198 0)
(-0.000126791 0.000141254 0)
(-0.00010521 0.000115725 0)
(-8.70612e-05 9.45738e-05 0)
(-7.18462e-05 7.70974e-05 0)
(-5.91299e-05 6.26967e-05 0)
(-4.8534e-05 5.08623e-05 0)
(-3.97315e-05 4.11628e-05 0)
(-3.24404e-05 3.3234e-05 0)
(-2.64188e-05 2.67695e-05 0)
(-2.146e-05 2.15124e-05 0)
(-1.73879e-05 1.7248e-05 0)
(-1.40535e-05 1.37976e-05 0)
(-1.13305e-05 1.10126e-05 0)
(-9.11295e-06 8.77035e-06 0)
(-7.31184e-06 6.96933e-06 0)
(-5.85282e-06 5.52617e-06 0)
(-4.674e-06 4.3725e-06 0)
(-3.72401e-06 3.45237e-06 0)
(-2.96036e-06 2.72019e-06 0)
(-2.34803e-06 2.13888e-06 0)
(-1.85825e-06 1.67839e-06 0)
(-1.46742e-06 1.31439e-06 0)
(-1.1563e-06 1.0273e-06 0)
(-9.09212e-07 8.01346e-07 0)
(-7.13429e-07 6.23885e-07 0)
(-5.5865e-07 4.84799e-07 0)
(-4.36562e-07 3.76012e-07 0)
(-3.40471e-07 2.91096e-07 0)
(-2.65006e-07 2.24944e-07 0)
(-2.05866e-07 1.73511e-07 0)
(-1.59616e-07 1.33599e-07 0)
(-1.23523e-07 1.02687e-07 0)
(-9.54125e-08 7.87907e-08 0)
(-7.35634e-08 6.03514e-08 0)
(-5.66147e-08 4.61492e-08 0)
(-4.34929e-08 3.52302e-08 0)
(-3.33533e-08 2.68503e-08 0)
(-2.5533e-08 2.04303e-08 0)
(-1.95128e-08 1.55204e-08 0)
(-1.48867e-08 1.17718e-08 0)
(-1.13384e-08 8.91455e-09 0)
(-8.6216e-09 6.74039e-09 0)
(-6.5451e-09 5.08871e-09 0)
(-4.96075e-09 3.83596e-09 0)
(-3.75396e-09 2.88731e-09 0)
(-2.8363e-09 2.17008e-09 0)
(-2.13966e-09 1.62864e-09 0)
(-1.61167e-09 1.22054e-09 0)
(-1.21214e-09 9.13403e-10 0)
(-9.10307e-10 6.82596e-10 0)
(-6.82625e-10 5.09405e-10 0)
(-5.11154e-10 3.79641e-10 0)
(-3.82206e-10 2.82547e-10 0)
(-2.85389e-10 2.10005e-10 0)
(-2.12795e-10 1.55883e-10 0)
(-1.58455e-10 1.15558e-10 0)
(-1.17827e-10 8.55545e-11 0)
(-8.75018e-11 6.32605e-11 0)
(-6.4893e-11 4.67156e-11 0)
(-4.80634e-11 3.44559e-11 0)
(-3.55529e-11 2.53815e-11 0)
(-2.62657e-11 1.86737e-11 0)
(-1.93816e-11 1.37225e-11 0)
(-1.42828e-11 1.00682e-11 0)
(-1.05175e-11 7.38172e-12 0)
(-7.73435e-12 5.40177e-12 0)
(-5.68256e-12 3.94423e-12 0)
(-4.17932e-12 2.87459e-12 0)
(-3.0718e-12 2.09096e-12 0)
(-2.26075e-12 1.51108e-12 0)
(-1.67695e-12 1.08793e-12 0)
(-1.25641e-12 7.69255e-13 0)
(-9.58631e-13 5.27639e-13 0)
(-7.58807e-13 3.42182e-13 0)
(-6.2951e-13 1.93293e-13 0)
(-5.74656e-13 6.26897e-14 0)
(-0.00564593 0.00763941 0)
(-0.00503239 0.00667358 0)
(-0.00447193 0.00581408 0)
(-0.00396183 0.00505154 0)
(-0.00349923 0.00437706 0)
(-0.00308125 0.00378231 0)
(-0.00270491 0.00325944 0)
(-0.00236727 0.00280119 0)
(-0.00206549 0.00240079 0)
(-0.0017967 0.002052 0)
(-0.00155811 0.0017491 0)
(-0.00134708 0.00148686 0)
(-0.0011611 0.0012605 0)
(-0.000997779 0.00106571 0)
(-0.00085486 0.000898583 0)
(-0.000730222 0.000755631 0)
(-0.000621898 0.000633718 0)
(-0.000528071 0.000530058 0)
(-0.000447075 0.000442179 0)
(-0.000377393 0.000367897 0)
(-0.000317643 0.000305293 0)
(-0.00026658 0.000252684 0)
(-0.000223085 0.000208601 0)
(-0.000186156 0.000171768 0)
(-0.000154903 0.000141079 0)
(-0.000128537 0.000115582 0)
(-0.000106364 9.4457e-05 0)
(-8.77759e-05 7.70022e-05 0)
(-7.22401e-05 6.26193e-05 0)
(-5.9295e-05 5.07996e-05 0)
(-4.85407e-05 4.11121e-05 0)
(-3.96331e-05 3.31931e-05 0)
(-3.22764e-05 2.67365e-05 0)
(-2.62181e-05 2.14859e-05 0)
(-2.12432e-05 1.72268e-05 0)
(-1.71694e-05 1.37806e-05 0)
(-1.38427e-05 1.09991e-05 0)
(-1.11335e-05 8.75958e-06 0)
(-8.93303e-06 6.96078e-06 0)
(-7.15051e-06 5.5194e-06 0)
(-5.71033e-06 4.36714e-06 0)
(-4.5497e-06 3.44815e-06 0)
(-3.61674e-06 2.71687e-06 0)
(-2.86865e-06 2.13627e-06 0)
(-2.27026e-06 1.67634e-06 0)
(-1.79278e-06 1.31279e-06 0)
(-1.41268e-06 1.02605e-06 0)
(-1.11081e-06 8.00375e-07 0)
(-8.71616e-07 6.23131e-07 0)
(-6.82519e-07 4.84214e-07 0)
(-5.33361e-07 3.75559e-07 0)
(-4.15964e-07 2.90746e-07 0)
(-3.23767e-07 2.24674e-07 0)
(-2.51513e-07 1.73304e-07 0)
(-1.95009e-07 1.3344e-07 0)
(-1.50912e-07 1.02566e-07 0)
(-1.16569e-07 7.86975e-08 0)
(-8.98754e-08 6.02803e-08 0)
(-6.91686e-08 4.6095e-08 0)
(-5.31372e-08 3.5189e-08 0)
(-4.07493e-08 2.6819e-08 0)
(-3.1195e-08 2.04067e-08 0)
(-2.38398e-08 1.55025e-08 0)
(-1.81879e-08 1.17583e-08 0)
(-1.38528e-08 8.9044e-09 0)
(-1.05335e-08 6.73276e-09 0)
(-7.99657e-09 5.08298e-09 0)
(-6.06088e-09 3.83167e-09 0)
(-4.58648e-09 2.88411e-09 0)
(-3.46532e-09 2.16768e-09 0)
(-2.6142e-09 1.62686e-09 0)
(-1.96911e-09 1.21921e-09 0)
(-1.48098e-09 9.12414e-10 0)
(-1.1122e-09 6.8187e-10 0)
(-8.3403e-10 5.0887e-10 0)
(-6.2453e-10 3.79242e-10 0)
(-4.66985e-10 2.82254e-10 0)
(-3.48691e-10 2.0979e-10 0)
(-2.59998e-10 1.55724e-10 0)
(-1.93603e-10 1.15442e-10 0)
(-1.43964e-10 8.54683e-11 0)
(-1.06911e-10 6.31965e-11 0)
(-7.92882e-11 4.66699e-11 0)
(-5.87259e-11 3.44219e-11 0)
(-4.34401e-11 2.53567e-11 0)
(-3.20919e-11 1.86567e-11 0)
(-2.36811e-11 1.37108e-11 0)
(-1.74539e-11 1.00617e-11 0)
(-1.28501e-11 7.37258e-12 0)
(-9.45179e-12 5.39654e-12 0)
(-6.9455e-12 3.94162e-12 0)
(-5.1053e-12 2.87328e-12 0)
(-3.75485e-12 2.08705e-12 0)
(-2.76357e-12 1.51108e-12 0)
(-2.04787e-12 1.0827e-12 0)
(-1.53459e-12 7.67949e-13 0)
(-1.17021e-12 5.28945e-13 0)
(-9.2598e-13 3.43488e-13 0)
(-7.70561e-13 1.93293e-13 0)
(-7.02648e-13 6.00777e-14 0)
(-0.00666917 0.00762808 0)
(-0.00594443 0.00666368 0)
(-0.0052824 0.00580546 0)
(-0.00467985 0.00504404 0)
(-0.00413342 0.00437057 0)
(-0.00363968 0.00377669 0)
(-0.00319514 0.00325461 0)
(-0.00279631 0.00279703 0)
(-0.00243983 0.00239723 0)
(-0.00212232 0.00204896 0)
(-0.00184049 0.00174651 0)
(-0.00159121 0.00148465 0)
(-0.00137153 0.00125863 0)
(-0.00117861 0.00106412 0)
(-0.00100979 0.00089725 0)
(-0.000862565 0.000754509 0)
(-0.000734608 0.000632777 0)
(-0.000623775 0.000529271 0)
(-0.0005281 0.000441522 0)
(-0.000445789 0.000367351 0)
(-0.00037521 0.00030484 0)
(-0.000314893 0.000252309 0)
(-0.000263515 0.000208291 0)
(-0.000219894 0.000171513 0)
(-0.000182976 0.00014087 0)
(-0.000151832 0.000115411 0)
(-0.000125641 9.4317e-05 0)
(-0.000103684 7.68881e-05 0)
(-8.53325e-05 6.25265e-05 0)
(-7.00413e-05 5.07243e-05 0)
(-5.7338e-05 4.10512e-05 0)
(-4.6816e-05 3.31439e-05 0)
(-3.8126e-05 2.66969e-05 0)
(-3.09697e-05 2.14541e-05 0)
(-2.50932e-05 1.72013e-05 0)
(-2.02811e-05 1.37602e-05 0)
(-1.63515e-05 1.09829e-05 0)
(-1.31513e-05 8.74665e-06 0)
(-1.0552e-05 6.95051e-06 0)
(-8.44645e-06 5.51126e-06 0)
(-6.74525e-06 4.36071e-06 0)
(-5.37428e-06 3.44307e-06 0)
(-4.27223e-06 2.71287e-06 0)
(-3.38856e-06 2.13314e-06 0)
(-2.68173e-06 1.67388e-06 0)
(-2.11771e-06 1.31087e-06 0)
(-1.66872e-06 1.02455e-06 0)
(-1.31213e-06 7.99207e-07 0)
(-1.02959e-06 6.22223e-07 0)
(-8.06222e-07 4.8351e-07 0)
(-6.3003e-07 3.75014e-07 0)
(-4.91356e-07 2.90325e-07 0)
(-3.82449e-07 2.2435e-07 0)
(-2.971e-07 1.73054e-07 0)
(-2.30355e-07 1.33248e-07 0)
(-1.78266e-07 1.02419e-07 0)
(-1.37698e-07 7.8585e-08 0)
(-1.06166e-07 6.01944e-08 0)
(-8.1706e-08 4.60296e-08 0)
(-6.27689e-08 3.51392e-08 0)
(-4.81356e-08 2.67812e-08 0)
(-3.68495e-08 2.0378e-08 0)
(-2.81612e-08 1.54809e-08 0)
(-2.14848e-08 1.17419e-08 0)
(-1.63639e-08 8.89206e-09 0)
(-1.2443e-08 6.72348e-09 0)
(-9.44619e-09 5.07601e-09 0)
(-7.15962e-09 3.82645e-09 0)
(-5.41795e-09 2.8802e-09 0)
(-4.09356e-09 2.16476e-09 0)
(-3.08813e-09 1.62468e-09 0)
(-2.32611e-09 1.21759e-09 0)
(-1.74949e-09 9.1121e-10 0)
(-1.31385e-09 6.80975e-10 0)
(-9.85253e-10 5.08207e-10 0)
(-7.37768e-10 3.78753e-10 0)
(-5.51659e-10 2.81895e-10 0)
(-4.11915e-10 2.09529e-10 0)
(-3.07144e-10 1.55532e-10 0)
(-2.2871e-10 1.15301e-10 0)
(-1.70075e-10 8.53652e-11 0)
(-1.26299e-10 6.3122e-11 0)
(-9.36663e-11 4.66151e-11 0)
(-6.93753e-11 3.43827e-11 0)
(-5.13194e-11 2.5328e-11 0)
(-3.79142e-11 1.86358e-11 0)
(-2.79753e-11 1.36938e-11 0)
(-2.06223e-11 1.00486e-11 0)
(-1.51801e-11 7.36474e-12 0)
(-1.11679e-11 5.39001e-12 0)
(-8.20583e-12 3.93901e-12 0)
(-6.03128e-12 2.87067e-12 0)
(-4.43399e-12 2.08705e-12 0)
(-3.26509e-12 1.50978e-12 0)
(-2.42139e-12 1.08401e-12 0)
(-1.81147e-12 7.67949e-13 0)
(-1.38179e-12 5.30251e-13 0)
(-1.09446e-12 3.44794e-13 0)
(-9.14225e-13 1.91987e-13 0)
(-8.26721e-13 6.13837e-14 0)
(-0.00769077 0.00761486 0)
(-0.00685501 0.00665213 0)
(-0.00609157 0.0057954 0)
(-0.00539672 0.0050353 0)
(-0.00476658 0.00436299 0)
(-0.00419721 0.00377015 0)
(-0.00368457 0.00324897 0)
(-0.00322465 0.00279219 0)
(-0.00281357 0.00239308 0)
(-0.00244742 0.00204541 0)
(-0.00212242 0.00174348 0)
(-0.00183496 0.00148208 0)
(-0.00158163 0.00125645 0)
(-0.00135916 0.00106228 0)
(-0.00116448 0.000895695 0)
(-0.000994695 0.000753201 0)
(-0.000847136 0.000631681 0)
(-0.000719326 0.000528354 0)
(-0.000608995 0.000440757 0)
(-0.000514075 0.000366715 0)
(-0.000432685 0.000304312 0)
(-0.000363129 0.000251872 0)
(-0.000303881 0.00020793 0)
(-0.000253577 0.000171216 0)
(-0.000211005 0.000140626 0)
(-0.00017509 0.000115211 0)
(-0.000144887 9.41536e-05 0)
(-0.000119566 7.67549e-05 0)
(-9.84038e-05 6.24183e-05 0)
(-8.07703e-05 5.06365e-05 0)
(-6.61211e-05 4.09802e-05 0)
(-5.39873e-05 3.30866e-05 0)
(-4.39662e-05 2.66508e-05 0)
(-3.57137e-05 2.1417e-05 0)
(-2.89371e-05 1.71716e-05 0)
(-2.33879e-05 1.37365e-05 0)
(-1.88563e-05 1.09639e-05 0)
(-1.51658e-05 8.73156e-06 0)
(-1.21684e-05 6.93853e-06 0)
(-9.74031e-06 5.50177e-06 0)
(-7.77852e-06 4.3532e-06 0)
(-6.19754e-06 3.43715e-06 0)
(-4.92668e-06 2.70821e-06 0)
(-3.90764e-06 2.12948e-06 0)
(-3.09253e-06 1.67101e-06 0)
(-2.44211e-06 1.30863e-06 0)
(-1.92434e-06 1.0228e-06 0)
(-1.51314e-06 7.97841e-07 0)
(-1.18731e-06 6.21161e-07 0)
(-9.29728e-07 4.82686e-07 0)
(-7.26545e-07 3.74377e-07 0)
(-5.66629e-07 2.89832e-07 0)
(-4.41038e-07 2.2397e-07 0)
(-3.42614e-07 1.72761e-07 0)
(-2.65644e-07 1.33024e-07 0)
(-2.05576e-07 1.02246e-07 0)
(-1.58793e-07 7.84531e-08 0)
(-1.22431e-07 6.00936e-08 0)
(-9.42238e-08 4.59527e-08 0)
(-7.23855e-08 3.50807e-08 0)
(-5.55105e-08 2.67368e-08 0)
(-4.24953e-08 2.03443e-08 0)
(-3.24759e-08 1.54554e-08 0)
(-2.47767e-08 1.17226e-08 0)
(-1.88712e-08 8.87753e-09 0)
(-1.43496e-08 6.71254e-09 0)
(-1.08936e-08 5.06778e-09 0)
(-8.25669e-09 3.82028e-09 0)
(-6.24817e-09 2.87558e-09 0)
(-4.72084e-09 2.1613e-09 0)
(-3.56137e-09 1.6221e-09 0)
(-2.68258e-09 1.21567e-09 0)
(-2.0176e-09 9.09781e-10 0)
(-1.51521e-09 6.79908e-10 0)
(-1.13625e-09 5.07419e-10 0)
(-8.50841e-10 3.78172e-10 0)
(-6.36211e-10 2.81467e-10 0)
(-4.75054e-10 2.09209e-10 0)
(-3.54227e-10 1.55296e-10 0)
(-2.63767e-10 1.15126e-10 0)
(-1.96142e-10 8.52424e-11 0)
(-1.45661e-10 6.30306e-11 0)
(-1.08029e-10 4.65497e-11 0)
(-8.00117e-11 3.4337e-11 0)
(-5.91857e-11 2.52953e-11 0)
(-4.37287e-11 1.86097e-11 0)
(-3.22682e-11 1.36742e-11 0)
(-2.37842e-11 1.00356e-11 0)
(-1.75087e-11 7.3556e-12 0)
(-1.28775e-11 5.38218e-12 0)
(-9.46485e-12 3.93378e-12 0)
(-6.95726e-12 2.86936e-12 0)
(-5.11444e-12 2.08574e-12 0)
(-3.76661e-12 1.50847e-12 0)
(-2.78969e-12 1.08532e-12 0)
(-2.08966e-12 7.66643e-13 0)
(-1.59206e-12 5.30251e-13 0)
(-1.26294e-12 3.43488e-13 0)
(-1.05789e-12 1.94599e-13 0)
(-9.53407e-13 6.26897e-14 0)
(-0.00871046 0.00759976 0)
(-0.0077639 0.00663894 0)
(-0.00689923 0.00578391 0)
(-0.00611226 0.00502532 0)
(-0.00539857 0.00435434 0)
(-0.00475371 0.00376268 0)
(-0.0041731 0.00324253 0)
(-0.0036522 0.00278665 0)
(-0.00318661 0.00238833 0)
(-0.00277191 0.00204136 0)
(-0.00240382 0.00174003 0)
(-0.00207825 0.00147914 0)
(-0.00179133 0.00125396 0)
(-0.00153937 0.00106017 0)
(-0.00131887 0.000893919 0)
(-0.00112658 0.000751708 0)
(-0.000959455 0.000630428 0)
(-0.000814699 0.000527306 0)
(-0.00068974 0.000439883 0)
(-0.000582234 0.000365987 0)
(-0.000490053 0.000303708 0)
(-0.000411275 0.000251372 0)
(-0.000344171 0.000207518 0)
(-0.000287198 0.000170876 0)
(-0.000238981 0.000140347 0)
(-0.000198305 0.000114983 0)
(-0.000164097 9.3967e-05 0)
(-0.000135419 7.66029e-05 0)
(-0.000111451 6.22946e-05 0)
(-9.14794e-05 5.05362e-05 0)
(-7.4888e-05 4.0899e-05 0)
(-6.11453e-05 3.30211e-05 0)
(-4.97956e-05 2.6598e-05 0)
(-4.04489e-05 2.13746e-05 0)
(-3.27738e-05 1.71376e-05 0)
(-2.64888e-05 1.37093e-05 0)
(-2.13564e-05 1.09422e-05 0)
(-1.71767e-05 8.71432e-06 0)
(-1.37818e-05 6.92483e-06 0)
(-1.10318e-05 5.49092e-06 0)
(-8.80987e-06 4.34462e-06 0)
(-7.01927e-06 3.43038e-06 0)
(-5.57991e-06 2.70288e-06 0)
(-4.42576e-06 2.12529e-06 0)
(-3.50258e-06 1.66773e-06 0)
(-2.76592e-06 1.30606e-06 0)
(-2.1795e-06 1.02079e-06 0)
(-1.71377e-06 7.96279e-07 0)
(-1.34475e-06 6.19946e-07 0)
(-1.05301e-06 4.81743e-07 0)
(-8.22884e-07 3.73646e-07 0)
(-6.41763e-07 2.89268e-07 0)
(-4.99519e-07 2.23534e-07 0)
(-3.88046e-07 1.72426e-07 0)
(-3.0087e-07 1.32766e-07 0)
(-2.32836e-07 1.02049e-07 0)
(-1.7985e-07 7.83018e-08 0)
(-1.38666e-07 5.9978e-08 0)
(-1.06719e-07 4.58645e-08 0)
(-8.19848e-08 3.50136e-08 0)
(-6.28721e-08 2.66857e-08 0)
(-4.8131e-08 2.03056e-08 0)
(-3.67828e-08 1.5426e-08 0)
(-2.80627e-08 1.17005e-08 0)
(-2.1374e-08 8.86078e-09 0)
(-1.62528e-08 6.69992e-09 0)
(-1.23384e-08 5.0583e-09 0)
(-9.35183e-09 3.81315e-09 0)
(-7.07692e-09 2.87024e-09 0)
(-5.34704e-09 2.15731e-09 0)
(-4.03377e-09 1.61911e-09 0)
(-3.03842e-09 1.21344e-09 0)
(-2.28524e-09 9.08128e-10 0)
(-1.71622e-09 6.78681e-10 0)
(-1.28699e-09 5.06503e-10 0)
(-9.6372e-10 3.77493e-10 0)
(-7.2062e-10 2.80964e-10 0)
(-5.38087e-10 2.08838e-10 0)
(-4.01227e-10 1.55024e-10 0)
(-2.98765e-10 1.14925e-10 0)
(-2.22171e-10 8.50909e-11 0)
(-1.64989e-10 6.29196e-11 0)
(-1.22364e-10 4.64714e-11 0)
(-9.06311e-11 3.42743e-11 0)
(-6.70441e-11 2.52509e-11 0)
(-4.95314e-11 1.85784e-11 0)
(-3.65507e-11 1.36546e-11 0)
(-2.69422e-11 1.00212e-11 0)
(-1.98322e-11 7.34645e-12 0)
(-1.45871e-11 5.37695e-12 0)
(-1.07226e-11 3.92986e-12 0)
(-7.87801e-12 2.86414e-12 0)
(-5.79488e-12 2.08705e-12 0)
(-4.26813e-12 1.51108e-12 0)
(-3.16061e-12 1.08401e-12 0)
(-2.36654e-12 7.69255e-13 0)
(-1.80625e-12 5.28945e-13 0)
(-1.4288e-12 3.43488e-13 0)
(-1.19633e-12 1.93293e-13 0)
(-1.08401e-12 6.26897e-14 0)
(-0.00972801 0.00758279 0)
(-0.00867087 0.00662412 0)
(-0.00770519 0.00577099 0)
(-0.00682629 0.0050141 0)
(-0.00602922 0.00434462 0)
(-0.00530903 0.00375427 0)
(-0.0046606 0.00323529 0)
(-0.00407885 0.00278043 0)
(-0.00355887 0.002383 0)
(-0.00309572 0.0020368 0)
(-0.00268463 0.00173614 0)
(-0.00232103 0.00147584 0)
(-0.00200059 0.00125116 0)
(-0.00171919 0.00105781 0)
(-0.00147294 0.000891922 0)
(-0.00125819 0.000750029 0)
(-0.00107154 0.00062902 0)
(-0.00090987 0.000526128 0)
(-0.000770314 0.000438901 0)
(-0.00065025 0.00036517 0)
(-0.0005473 0.00030303 0)
(-0.000459319 0.000250811 0)
(-0.000384377 0.000207055 0)
(-0.000320748 0.000170495 0)
(-0.000266898 0.000140034 0)
(-0.00022147 0.000114726 0)
(-0.000183267 9.37573e-05 0)
(-0.000151239 7.64319e-05 0)
(-0.00012447 6.21556e-05 0)
(-0.000102166 5.04235e-05 0)
(-8.36363e-05 4.08078e-05 0)
(-6.82883e-05 3.29474e-05 0)
(-5.56126e-05 2.65387e-05 0)
(-4.51742e-05 2.1327e-05 0)
(-3.66024e-05 1.70994e-05 0)
(-2.95832e-05 1.36788e-05 0)
(-2.38513e-05 1.09179e-05 0)
(-1.91832e-05 8.69492e-06 0)
(-1.53918e-05 6.90943e-06 0)
(-1.23205e-05 5.47871e-06 0)
(-9.83905e-06 4.33497e-06 0)
(-7.83928e-06 3.42276e-06 0)
(-6.23177e-06 2.69688e-06 0)
(-4.94279e-06 2.12057e-06 0)
(-3.91176e-06 1.66403e-06 0)
(-3.08905e-06 1.30317e-06 0)
(-2.43412e-06 1.01854e-06 0)
(-1.91399e-06 7.94519e-07 0)
(-1.50185e-06 6.18578e-07 0)
(-1.17603e-06 4.80681e-07 0)
(-9.19021e-07 3.72824e-07 0)
(-7.16741e-07 2.88632e-07 0)
(-5.57879e-07 2.23043e-07 0)
(-4.33383e-07 1.72048e-07 0)
(-3.36022e-07 1.32475e-07 0)
(-2.6004e-07 1.01826e-07 0)
(-2.00864e-07 7.8131e-08 0)
(-1.54868e-07 5.98474e-08 0)
(-1.19188e-07 4.57649e-08 0)
(-9.15643e-08 3.49377e-08 0)
(-7.02185e-08 2.6628e-08 0)
(-5.37551e-08 2.02618e-08 0)
(-4.1081e-08 1.53928e-08 0)
(-3.13419e-08 1.16754e-08 0)
(-2.38718e-08 8.84183e-09 0)
(-1.81521e-08 6.68563e-09 0)
(-1.37804e-08 5.04754e-09 0)
(-1.04448e-08 3.80507e-09 0)
(-7.90401e-09 2.86417e-09 0)
(-5.97197e-09 2.15277e-09 0)
(-4.50523e-09 1.61572e-09 0)
(-3.39356e-09 1.21091e-09 0)
(-2.55236e-09 9.06238e-10 0)
(-1.91683e-09 6.77274e-10 0)
(-1.43744e-09 5.05461e-10 0)
(-1.07638e-09 3.7672e-10 0)
(-8.04867e-10 2.80389e-10 0)
(-6.00994e-10 2.08415e-10 0)
(-4.48139e-10 1.5471e-10 0)
(-3.33699e-10 1.14697e-10 0)
(-2.48147e-10 8.49198e-11 0)
(-1.84282e-10 6.27968e-11 0)
(-1.36673e-10 4.63774e-11 0)
(-1.01233e-10 3.42077e-11 0)
(-7.48855e-11 2.51987e-11 0)
(-5.5325e-11 1.85418e-11 0)
(-4.08241e-11 1.36246e-11 0)
(-3.00898e-11 1.00042e-11 0)
(-2.21543e-11 7.33339e-12 0)
(-1.62954e-11 5.36781e-12 0)
(-1.19764e-11 3.92203e-12 0)
(-8.80007e-12 2.86153e-12 0)
(-6.4688e-12 2.08052e-12 0)
(-4.76834e-12 1.50847e-12 0)
(-3.53283e-12 1.0827e-12 0)
(-2.64342e-12 7.66643e-13 0)
(-2.01783e-12 5.27639e-13 0)
(-1.59728e-12 3.43488e-13 0)
(-1.33869e-12 1.93293e-13 0)
(-1.20939e-12 6.13837e-14 0)
(-0.0107432 0.00756395 0)
(-0.0095757 0.00660766 0)
(-0.00850925 0.00575665 0)
(-0.00753863 0.00500164 0)
(-0.00665839 0.00433383 0)
(-0.00586304 0.00374495 0)
(-0.00514694 0.00322725 0)
(-0.00450449 0.00277352 0)
(-0.00393025 0.00237708 0)
(-0.00341877 0.00203174 0)
(-0.00296478 0.00173183 0)
(-0.00256324 0.00147217 0)
(-0.00220936 0.00124805 0)
(-0.0018986 0.00105518 0)
(-0.00162665 0.000889705 0)
(-0.00138948 0.000748165 0)
(-0.00118336 0.000627457 0)
(-0.00100482 0.000524821 0)
(-0.000850698 0.00043781 0)
(-0.000718105 0.000364262 0)