/*--------------------------------*- C++ -*----------------------------------*\
| =========                 |                                                 |
| \\      /  F ield         | OpenFOAM: The Open Source CFD Toolbox           |
|  \\    /   O peration     | Version:  2406                                  |
|   \\  /    A nd           | Website:  www.openfoam.com                      |
|    \\/     M anipulation  |                                                 |
\*---------------------------------------------------------------------------*/
FoamFile
{
    version     2.0;
    format      ascii;
    arch        "LSB;label=32;scalar=64";
    class       volScalarField;
    location    "20";
    object      gradTy;
}
// * * * * * * * * * * * * * * * * * * * * * * * * * * * * * * * * * * * * * //

dimensions      [0 -1 0 1 0 0 0];

internalField   nonuniform List<scalar> 
20000
(
65.1815
56.9407
49.6073
43.101
37.3463
32.2717
27.8103
23.9005
20.4843
17.5083
14.9238
12.6862
10.7548
9.09284
7.66695
6.44727
5.40708
4.52263
3.77281
3.13902
2.60486
2.15597
1.77984
1.46557
1.20373
0.986176
0.80593
0.657
0.534282
0.433432
0.350776
0.283209
0.22812
0.18332
0.146981
0.117577
0.093845
0.074737
0.0593893
0.0470913
0.0372601
0.0294191
0.0231798
0.0182262
0.014302
0.0112003
0.00875383
0.00682838
0.00531618
0.00413098
0.00320398
0.00248039
0.0019167
0.00147843
0.00113835
0.000874947
0.000671326
0.00051421
0.000393197
0.000300161
0.000228761
0.000174061
0.000132227
0.000100289
7.59452e-05
5.74218e-05
4.335e-05
3.26773e-05
2.45955e-05
1.84853e-05
1.38728e-05
1.03963e-05
7.77995e-06
5.81385e-06
4.33864e-06
3.2333e-06
2.40631e-06
1.78847e-06
1.32749e-06
9.84057e-07
7.28528e-07
5.38658e-07
3.97771e-07
2.93343e-07
2.16094e-07
1.58984e-07
1.16829e-07
8.57092e-08
6.28164e-08
4.59632e-08
3.35731e-08
2.44804e-08
1.77969e-08
1.28675e-08
9.24816e-09
6.53921e-09
4.51861e-09
2.93099e-09
1.64313e-09
5.32907e-10
65.1654
56.9266
49.5951
43.0904
37.337
32.2637
27.8036
23.8946
20.4792
17.5039
14.9201
12.6831
10.7522
9.09062
7.66506
6.44567
5.40574
4.5215
3.77188
3.13824
2.60421
2.15544
1.7794
1.46521
1.20343
0.985933
0.805731
0.656839
0.53415
0.433326
0.35069
0.283139
0.228064
0.183275
0.146945
0.117548
0.0938221
0.0747188
0.0593749
0.0470798
0.0372511
0.029412
0.0231742
0.0182218
0.0142986
0.0111976
0.00875176
0.00682678
0.00531493
0.00413002
0.00320324
0.00247982
0.00191626
0.0014781
0.00113809
0.000874752
0.000671179
0.000514098
0.000393113
0.000300097
0.000228713
0.000174025
0.0001322
0.000100268
7.59303e-05
5.74107e-05
4.33419e-05
3.26713e-05
2.45911e-05
1.8482e-05
1.38704e-05
1.03946e-05
7.77868e-06
5.81297e-06
4.33797e-06
3.23283e-06
2.40598e-06
1.78821e-06
1.32734e-06
9.83957e-07
7.28428e-07
5.3858e-07
3.97715e-07
2.93343e-07
2.16061e-07
1.58962e-07
1.16773e-07
8.57092e-08
6.28053e-08
4.59743e-08
3.36065e-08
2.44804e-08
1.77858e-08
1.29008e-08
9.23706e-09
6.55032e-09
4.4964e-09
2.90878e-09
1.65423e-09
5.32907e-10
65.1333
56.8986
49.5705
43.0692
37.3186
32.2478
27.7899
23.8829
20.469
17.4953
14.9127
12.6768
10.7469
9.08615
7.66128
6.44249
5.40307
4.51927
3.77001
3.13668
2.60292
2.15437
1.77852
1.46448
1.20283
0.985447
0.805334
0.656515
0.533887
0.433112
0.350517
0.283
0.227952
0.183185
0.146873
0.117491
0.0937761
0.0746822
0.0593458
0.0470569
0.0372329
0.0293977
0.023163
0.018213
0.0142917
0.0111922
0.00874755
0.00682351
0.00531239
0.00412805
0.00320172
0.00247865
0.00191536
0.00147741
0.00113756
0.000874348
0.000670871
0.000513863
0.000392935
0.000299963
0.000228611
0.000173948
0.000132142
0.000100225
7.58977e-05
5.73864e-05
4.33237e-05
3.26578e-05
2.4581e-05
1.84746e-05
1.38649e-05
1.03905e-05
7.7757e-06
5.81079e-06
4.33638e-06
3.23168e-06
2.40515e-06
1.7876e-06
1.32687e-06
9.83591e-07
7.28195e-07
5.38436e-07
3.97604e-07
2.93254e-07
2.16016e-07
1.58906e-07
1.16762e-07
8.56981e-08
6.28053e-08
4.59521e-08
3.35731e-08
2.45026e-08
1.78191e-08
1.28786e-08
9.24816e-09
6.53921e-09
4.50751e-09
2.94209e-09
1.62093e-09
5.32907e-10
65.085
56.8565
49.5339
43.0373
37.291
32.2239
27.7693
23.8651
20.4539
17.4823
14.9017
12.6675
10.739
9.07942
7.65561
6.43771
5.39906
4.51591
3.76721
3.13436
2.60099
2.15278
1.7772
1.4634
1.20194
0.984718
0.804738
0.656029
0.533492
0.432792
0.350258
0.282791
0.227784
0.18305
0.146764
0.117404
0.0937072
0.0746274
0.0593023
0.0470224
0.0372057
0.0293763
0.0231461
0.0181997
0.0142813
0.0111841
0.00874123
0.00681859
0.00530858
0.0041251
0.00319943
0.00247688
0.001914
0.00147637
0.00113676
0.000873738
0.000670404
0.000513508
0.000392665
0.000299758
0.000228456
0.000173831
0.000132054
0.000100159
7.58479e-05
5.73491e-05
4.32958e-05
3.26369e-05
2.45655e-05
1.84631e-05
1.38564e-05
1.03841e-05
7.77103e-06
5.80731e-06
4.33384e-06
3.22981e-06
2.40377e-06
1.78662e-06
1.32614e-06
9.83069e-07
7.27807e-07
5.38158e-07
3.97393e-07
2.93088e-07
2.15894e-07
1.58829e-07
1.16718e-07
8.56537e-08
6.27609e-08
4.59299e-08
3.3562e-08
2.44693e-08
1.77636e-08
1.28564e-08
9.23706e-09
6.51701e-09
4.4742e-09
2.89768e-09
1.62093e-09
5.21805e-10
65.0207
56.8003
49.4849
42.9948
37.2542
32.1921
27.7419
23.8416
20.4337
17.465
14.887
12.655
10.7284
9.07046
7.64805
6.43135
5.39372
4.51145
3.76349
3.13126
2.59842
2.15065
1.77545
1.46195
1.20076
0.983745
0.803944
0.655382
0.532966
0.432366
0.349913
0.282513
0.22756
0.18287
0.14662
0.117289
0.0936152
0.0745542
0.0592442
0.0469764
0.0371693
0.0293476
0.0231235
0.018182
0.0142675
0.0111733
0.00873277
0.00681201
0.00530347
0.00412113
0.00319637
0.00247452
0.00191218
0.00147497
0.00113569
0.000872915
0.000669776
0.000513029
0.000392301
0.000299481
0.000228246
0.000173672
0.000131934
0.000100068
7.578e-05
5.72981e-05
4.32576e-05
3.26084e-05
2.45442e-05
1.84472e-05
1.38446e-05
1.03754e-05
7.76457e-06
5.80255e-06
4.3303e-06
3.22722e-06
2.40185e-06
1.78519e-06
1.32512e-06
9.82325e-07
7.27274e-07
5.37759e-07
3.97116e-07
2.92899e-07
2.15761e-07
1.5874e-07
1.16651e-07
8.55871e-08
6.27498e-08
4.59188e-08
3.35287e-08
2.4436e-08
1.77747e-08
1.28453e-08
9.24816e-09
6.53921e-09
4.4853e-09
2.90878e-09
1.64313e-09
5.32907e-10
64.9404
56.7301
49.4238
42.9416
37.2081
32.1523
27.7076
23.8121
20.4084
17.4435
14.8686
12.6393
10.7151
9.05925
7.63859
6.4234
5.38705
4.50587
3.75883
3.12739
2.59521
2.14799
1.77325
1.46015
1.19927
0.98253
0.802951
0.654573
0.532308
0.431832
0.349482
0.282164
0.227279
0.182645
0.14644
0.117145
0.0935001
0.0744626
0.0591715
0.0469188
0.0371238
0.0293117
0.0230953
0.0181598
0.0142501
0.0111597
0.00872217
0.00680375
0.00529705
0.00411616
0.00319252
0.00247155
0.00190989
0.0014732
0.00113434
0.00087188
0.000668984
0.000512425
0.00039184
0.000299131
0.000227981
0.000173471
0.000131782
9.99537e-05
7.56937e-05
5.72332e-05
4.32089e-05
3.25719e-05
2.4517e-05
1.84268e-05
1.38294e-05
1.03642e-05
7.75616e-06
5.79637e-06
4.32575e-06
3.22382e-06
2.39936e-06
1.78336e-06
1.32376e-06
9.81337e-07
7.26541e-07
5.37215e-07
3.96727e-07
2.9261e-07
2.1555e-07
1.58595e-07
1.16551e-07
8.55316e-08
6.26721e-08
4.58744e-08
3.35065e-08
2.44249e-08
1.77414e-08
1.28453e-08
9.20375e-09
6.52811e-09
4.4964e-09
2.91989e-09
1.64313e-09
5.10703e-10
64.844
56.646
49.3505
42.8779
37.1529
32.1046
27.6665
23.7768
20.3781
17.4176
14.8466
12.6206
10.6992
9.04581
7.62726
6.41386
5.37905
4.49918
3.75325
3.12274
2.59136
2.1448
1.77062
1.45798
1.19749
0.981073
0.801761
0.653603
0.531519
0.431192
0.348964
0.281747
0.226943
0.182375
0.146223
0.116972
0.093362
0.0743527
0.0590842
0.0468496
0.0370691
0.0292686
0.0230613
0.0181332
0.0142292
0.0111433
0.00870942
0.00679382
0.00528933
0.00411017
0.00318789
0.00246797
0.00190713
0.00147108
0.00113271
0.00087063
0.000668028
0.000511695
0.000391284
0.000298708
0.000227659
0.000173227
0.000131598
9.98146e-05
7.55888e-05
5.71543e-05
4.31497e-05
3.25275e-05
2.44837e-05
1.8402e-05
1.38109e-05
1.03504e-05
7.74593e-06
5.78877e-06
4.32012e-06
3.21967e-06
2.39631e-06
1.78114e-06
1.32213e-06
9.80138e-07
7.25664e-07
5.36582e-07
3.96261e-07
2.92277e-07
2.15306e-07
1.58418e-07
1.16407e-07
8.54206e-08
6.26055e-08
4.58189e-08
3.34843e-08
2.44027e-08
1.77414e-08
1.28342e-08
9.21485e-09
6.52811e-09
4.50751e-09
2.93099e-09
1.63203e-09
5.21805e-10
64.7317
56.5478
49.265
42.8036
37.0885
32.0489
27.6185
23.7356
20.3428
17.3874
14.8208
12.5987
10.6807
9.03013
7.61404
6.40274
5.36973
4.49138
3.74675
3.11733
2.58686
2.14109
1.76755
1.45545
1.19542
0.979374
0.800372
0.652471
0.530599
0.430446
0.34836
0.281259
0.22655
0.18206
0.14597
0.11677
0.0932009
0.0742244
0.0589824
0.0467689
0.0370053
0.0292182
0.0230217
0.018102
0.0142048
0.0111242
0.00869452
0.00678222
0.00528031
0.00410317
0.00318247
0.00246378
0.0019039
0.00146859
0.0011308
0.000869165
0.000666907
0.000510838
0.000390631
0.000298211
0.000227282
0.000172941
0.000131381
9.96508e-05
7.54652e-05
5.70613e-05
4.30797e-05
3.2475e-05
2.44444e-05
1.83726e-05
1.3789e-05
1.0334e-05
7.73378e-06
5.7797e-06
4.31342e-06
3.21473e-06
2.39266e-06
1.77842e-06
1.32012e-06
9.7865e-07
7.2462e-07
5.35805e-07
3.95706e-07
2.91889e-07
2.15028e-07
1.58196e-07
1.1624e-07
8.53095e-08
6.25278e-08
4.57523e-08
3.34399e-08
2.43916e-08
1.77303e-08
1.28231e-08
9.22595e-09
6.51701e-09
4.50751e-09
2.91989e-09
1.65423e-09
5.32907e-10
64.6034
56.4357
49.1673
42.7188
37.015
31.9854
27.5638
23.6885
20.3025
17.353
14.7915
12.5737
10.6595
9.01223
7.59894
6.39005
5.35908
4.48247
3.73932
3.11115
2.58173
2.13684
1.76405
1.45257
1.19305
0.977433
0.798786
0.651178
0.529548
0.429594
0.34767
0.280702
0.226102
0.181699
0.145682
0.116539
0.0930167
0.0740779
0.058866
0.0466767
0.0369324
0.0291607
0.0229764
0.0180664
0.0141769
0.0111024
0.00867747
0.00676893
0.00526998
0.00409516
0.00317626
0.00245898
0.0019002
0.00146574
0.00112861
0.000867484
0.00066562
0.000509855
0.000389881
0.00029764
0.000226848
0.000172612
0.000131132
9.94622e-05
7.53229e-05
5.6954e-05
4.29991e-05
3.24145e-05
2.4399e-05
1.83387e-05
1.37636e-05
1.03151e-05
7.71972e-06
5.76926e-06
4.30563e-06
3.20896e-06
2.38839e-06
1.77527e-06
1.31781e-06
9.76941e-07
7.23333e-07
5.34861e-07
3.9504e-07
2.91356e-07
2.14651e-07
1.57929e-07
1.16074e-07
8.51874e-08
6.245e-08
4.57079e-08
3.34066e-08
2.43472e-08
1.77414e-08
1.28453e-08
9.21485e-09
6.53921e-09
4.4964e-09
2.91989e-09
1.64313e-09
5.32907e-10
64.4591
56.3097
49.0575
42.6234
36.9323
31.914
27.5022
23.6356
20.2572
17.3142
14.7584
12.5457
10.6357
8.9921
7.58197
6.37577
5.34711
4.47246
3.73096
3.1042
2.57597
2.13207
1.76011
1.44933
1.19039
0.975251
0.797003
0.649725
0.528366
0.428635
0.346895
0.280076
0.225598
0.181294
0.145357
0.116279
0.0928096
0.073913
0.058735
0.0465729
0.0368503
0.0290959
0.0229254
0.0180264
0.0141455
0.0110778
0.00865828
0.00675398
0.00525835
0.00408613
0.00316926
0.00245357
0.00189603
0.00146253
0.00112613
0.000865589
0.000664169
0.000508745
0.000389034
0.000296995
0.000226357
0.000172239
0.00013085
9.92488e-05
7.51618e-05
5.68326e-05
4.29076e-05
3.23458e-05
2.43475e-05
1.83001e-05
1.37347e-05
1.02936e-05
7.70366e-06
5.75731e-06
4.29677e-06
3.20238e-06
2.3835e-06
1.77167e-06
1.31515e-06
9.75009e-07
7.21878e-07
5.33817e-07
3.9424e-07
2.9079e-07
2.14206e-07
1.57618e-07
1.15818e-07
8.50431e-08
6.2339e-08
4.56302e-08
3.334e-08
2.4325e-08
1.76859e-08
1.28231e-08
9.20375e-09
6.51701e-09
4.4853e-09
2.91989e-09
1.64313e-09
5.21805e-10
64.2989
56.1698
48.9356
42.5174
36.8406
31.8347
27.4339
23.5769
20.2068
17.2712
14.7218
12.5145
10.6093
8.96975
7.56312
6.35993
5.33382
4.46135
3.72169
3.09649
2.56957
2.12677
1.75574
1.44572
1.18743
0.972828
0.795023
0.648111
0.527054
0.427571
0.346034
0.279381
0.225038
0.180845
0.144997
0.115991
0.0925796
0.0737299
0.0585895
0.0464576
0.0367591
0.0290239
0.0228687
0.0179819
0.0141105
0.0110505
0.00863694
0.00673735
0.00524541
0.00407609
0.00316148
0.00244756
0.00189138
0.00145895
0.00112338
0.000863478
0.000662552
0.000507509
0.00038809
0.000296276
0.00022581
0.000171824
0.000130535
9.90105e-05
7.49818e-05
5.66968e-05
4.28055e-05
3.2269e-05
2.42898e-05
1.82569e-05
1.37025e-05
1.02694e-05
7.68565e-06
5.74391e-06
4.28683e-06
3.19497e-06
2.37804e-06
1.76761e-06
1.31215e-06
9.72777e-07
7.20257e-07
5.32618e-07
3.93341e-07
2.90168e-07
2.13762e-07
1.57285e-07
1.15585e-07
8.48543e-08
6.22058e-08
4.55413e-08
3.32956e-08
2.42806e-08
1.76636e-08
1.28009e-08
9.17044e-09
6.51701e-09
4.4742e-09
2.89768e-09
1.63203e-09
5.32907e-10
64.1229
56.016
48.8016
42.401
36.7397
31.7475
27.3588
23.5124
20.1515
17.2239
14.6814
12.4802
10.5802
8.94519
7.54241
6.34251
5.31922
4.44913
3.7115
3.08801
2.56253
2.12095
1.75093
1.44177
1.18418
0.970165
0.792847
0.646338
0.525612
0.426401
0.345087
0.278617
0.224423
0.18035
0.1446
0.115674
0.0923267
0.0735285
0.0584296
0.0463308
0.0366588
0.0289448
0.0228064
0.0179329
0.0140721
0.0110204
0.00861346
0.00671905
0.00523118
0.00406503
0.00315292
0.00244093
0.00188627
0.00145501
0.00112035
0.000861152
0.000660769
0.000506145
0.000387049
0.000295482
0.000225206
0.000171366
0.000130187
9.87473e-05
7.47829e-05
5.65468e-05
4.26924e-05
3.2184e-05
2.4226e-05
1.8209e-05
1.36666e-05
1.02427e-05
7.66569e-06
5.72907e-06
4.27577e-06
3.18678e-06
2.37195e-06
1.76311e-06
1.30884e-06
9.70335e-07
7.18459e-07
5.31264e-07
3.92386e-07
2.89424e-07
2.13241e-07
1.56919e-07
1.15297e-07
8.46323e-08
6.20615e-08
4.54192e-08
3.32068e-08
2.42251e-08
1.76192e-08
1.27454e-08
9.17044e-09
6.4615e-09
4.4853e-09
2.90878e-09
1.62093e-09
5.21805e-10
63.931
55.8484
48.6556
42.2742
36.6298
31.6525
27.2769
23.442
20.0912
17.1724
14.6375
12.4429
10.5486
8.91842
7.51984
6.32354
5.3033
4.43582
3.7004
3.07877
2.55486
2.1146
1.74569
1.43745
1.18064
0.967263
0.790476
0.644404
0.52404
0.425126
0.344055
0.277784
0.223752
0.179811
0.144168
0.115328
0.092051
0.073309
0.0582552
0.0461926
0.0365495
0.0288585
0.0227385
0.0178795
0.0140302
0.0109877
0.00858785
0.00669908
0.00521564
0.00405297
0.00314357
0.0024337
0.00188069
0.00145071
0.00111704
0.000858611
0.000658822
0.000504655
0.000385911
0.000294615
0.000224546
0.000170864
0.000129807
9.84593e-05
7.45652e-05
5.63825e-05
4.25686e-05
3.20908e-05
2.41561e-05
1.81566e-05
1.36274e-05
1.02133e-05
7.64376e-06
5.71271e-06
4.2636e-06
3.17775e-06
2.36523e-06
1.75815e-06
1.30516e-06
9.67615e-07
7.16471e-07
5.29832e-07
3.9132e-07
2.88658e-07
2.12663e-07
1.56497e-07
1.1503e-07
8.44103e-08
6.18838e-08
4.53082e-08
3.31291e-08
2.41696e-08
1.75637e-08
1.27232e-08
9.14824e-09
6.4837e-09
4.4631e-09
2.90878e-09
1.64313e-09
5.32907e-10
63.7234
55.667
48.4976
42.1369
36.5108
31.5497
27.1883
23.3659
20.026
17.1166
14.59
12.4025
10.5143
8.88946
7.49542
6.303
5.28608
4.42141
3.68838
3.06877
2.54657
2.10773
1.74002
1.43279
1.1768
0.964122
0.787909
0.642312
0.522339
0.423746
0.342939
0.276883
0.223026
0.179228
0.143701
0.114954
0.0917525
0.0730714
0.0580664
0.0460429
0.0364311
0.0287651
0.0226649
0.0178216
0.0139849
0.0109521
0.00856011
0.00667745
0.00519881
0.0040399
0.00313344
0.00242586
0.00187463
0.00144605
0.00111346
0.000855856
0.00065671
0.000503039
0.000384677
0.000293673
0.00022383
0.000170319
0.000129394
9.81465e-05
7.43286e-05
5.62039e-05
4.2434e-05
3.19895e-05
2.40799e-05
1.80995e-05
1.35846e-05
1.01813e-05
7.61989e-06
5.69489e-06
4.25036e-06
3.16789e-06
2.35794e-06
1.75272e-06
1.30115e-06
9.64673e-07
7.14273e-07
5.28233e-07
3.90132e-07
2.87792e-07
2.12019e-07
1.56009e-07
1.14686e-07
8.4166e-08
6.1684e-08
4.51972e-08
3.30069e-08
2.41029e-08
1.75415e-08
1.26898e-08
9.12603e-09
6.4837e-09
4.45199e-09
2.87548e-09
1.62093e-09
5.32907e-10
63.5
55.4719
48.3276
41.9892
36.3829
31.4392
27.093
23.284
19.9558
17.0566
14.5388
12.359
10.4774
8.8583
7.46915
6.2809
5.26755
4.40591
3.67545
3.05801
2.53764
2.10035
1.73392
1.42776
1.17268
0.960744
0.785148
0.640062
0.520509
0.422262
0.341737
0.275913
0.222245
0.1786
0.143198
0.114552
0.0914314
0.0728157
0.0578633
0.0458819
0.0363038
0.0286645
0.0225857
0.0177594
0.013936
0.0109139
0.00853024
0.00665416
0.00518069
0.00402583
0.00312253
0.00241742
0.00186812
0.00144102
0.00110959
0.000852887
0.000654433
0.000501297
0.000383346
0.000292658
0.000223057
0.000169732
0.000128948
9.78088e-05
7.40732e-05
5.6011e-05
4.22887e-05
3.18801e-05
2.39977e-05
1.80378e-05
1.35384e-05
1.01468e-05
7.59406e-06
5.67564e-06
4.23599e-06
3.15722e-06
2.35001e-06
1.74686e-06
1.2968e-06
9.61442e-07
7.11908e-07
5.26446e-07
3.88822e-07
2.86837e-07
2.11353e-07
1.55531e-07
1.14297e-07
8.38996e-08
6.15175e-08
4.50306e-08
3.29292e-08
2.40141e-08
1.74749e-08
1.26343e-08
9.09273e-09
6.4504e-09
4.42979e-09
2.88658e-09
1.62093e-09
5.10703e-10
63.261
55.2631
48.1457
41.8311
36.2459
31.3208
26.991
23.1963
19.8807
16.9924
14.4841
12.3125
10.438
8.82495
7.44103
6.25726
5.24772
4.38933
3.66161
3.0465
2.52809
2.09244
1.7274
1.42239
1.16827
0.957128
0.782194
0.637653
0.518551
0.420673
0.340452
0.274875
0.221409
0.177929
0.142659
0.114121
0.0910877
0.072542
0.0576458
0.0457095
0.0361674
0.0285569
0.0225009
0.0176927
0.0138838
0.010873
0.00849826
0.00662923
0.00516129
0.00401076
0.00311085
0.00240838
0.00186113
0.00143564
0.00110545
0.000849705
0.000651994
0.00049943
0.000381919
0.00029157
0.000222228
0.000169102
0.00012847
9.74465e-05
7.37992e-05
5.58041e-05
4.21325e-05
3.17626e-05
2.39094e-05
1.79715e-05
1.34887e-05
1.01096e-05
7.56629e-06
5.6549e-06
4.22054e-06
3.14572e-06
2.34147e-06
1.74052e-06
1.2921e-06
9.57967e-07
7.09321e-07
5.24569e-07
3.87435e-07
2.85794e-07
2.10554e-07
1.54954e-07
1.13876e-07
8.36109e-08
6.12954e-08
4.48752e-08
3.27849e-08
2.3892e-08
1.73972e-08
1.2601e-08
9.07052e-09
6.42819e-09
4.42979e-09
2.88658e-09
1.63203e-09
5.21805e-10
63.0064
55.0406
47.9519
41.6628
36.1
31.1947
26.8824
23.103
19.8006
16.924
14.4258
12.2629
10.396
8.78943
7.41108
6.23207
5.2266
4.37166
3.64688
3.03424
2.51791
2.08402
1.72045
1.41667
1.16356
0.953276
0.779046
0.635087
0.516464
0.41898
0.339082
0.273769
0.220518
0.177213
0.142085
0.113662
0.0907215
0.0722504
0.0574142
0.0455258
0.0360221
0.0284422
0.0224105
0.0176217
0.013828
0.0108293
0.00846417
0.00660264
0.0051406
0.00399469
0.00309839
0.00239874
0.00185369
0.0014299
0.00110103
0.00084631
0.000649391
0.000497437
0.000380396
0.000290409
0.000221344
0.00016843
0.00012796
9.70597e-05
7.35065e-05
5.5583e-05
4.19658e-05
3.1637e-05
2.3815e-05
1.79006e-05
1.34356e-05
1.00698e-05
7.53656e-06
5.63272e-06
4.20401e-06
3.13343e-06
2.33231e-06
1.7337e-06
1.28706e-06
9.54237e-07
7.06568e-07
5.22526e-07
3.85925e-07
2.84683e-07
2.09743e-07
1.54365e-07
1.13465e-07
8.33e-08
6.10623e-08
4.46976e-08
3.26628e-08
2.38365e-08
1.73195e-08
1.25566e-08
9.01501e-09
6.38378e-09
4.40759e-09
2.85327e-09
1.62093e-09
5.21805e-10
62.7362
54.8046
47.7463
41.4841
35.9452
31.061
26.7671
23.0039
19.7157
16.8514
14.3639
12.2103
10.3514
8.75174
7.3793
6.20535
5.20418
4.35291
3.63124
3.02123
2.50712
2.07508
1.71307
1.41059
1.15857
0.949189
0.775706
0.632365
0.51425
0.417184
0.337629
0.272596
0.219573
0.176454
0.141477
0.113175
0.0903328
0.0719409
0.0571683
0.0453309
0.0358679
0.0283204
0.0223146
0.0175463
0.0137689
0.010783
0.00842798
0.00657442
0.00511863
0.00397762
0.00308516
0.0023885
0.00184578
0.0014238
0.00109634
0.000842705
0.000646626
0.000495321
0.000378779
0.000289174
0.000220404
0.000167715
0.000127417
9.66483e-05
7.31952e-05
5.53478e-05
4.17885e-05
3.15034e-05
2.37145e-05
1.78252e-05
1.3379e-05
1.00275e-05
7.50491e-06
5.6091e-06
4.18642e-06
3.1203e-06
2.32256e-06
1.72647e-06
1.28171e-06
9.50262e-07
7.03637e-07
5.20339e-07
3.84348e-07
2.83507e-07
2.089e-07
1.53699e-07
1.12976e-07
8.29337e-08
6.07958e-08
4.44977e-08
3.25295e-08
2.37477e-08
1.72529e-08
1.249e-08
8.9706e-09
6.36158e-09
4.38538e-09
2.85327e-09
1.59872e-09
5.21805e-10
62.4505
54.5551
47.5289
41.2952
35.7815
30.9195
26.6452
22.8991
19.6259
16.7747
14.2985
12.1547
10.3043
8.71189
7.3457
6.1771
5.18049
4.33309
3.6147
3.00747
2.4957
2.06564
1.70527
1.40417
1.1533
0.944868
0.772175
0.629486
0.511909
0.415285
0.336092
0.271355
0.218574
0.175651
0.140833
0.112661
0.0899219
0.0716137
0.0569082
0.0451247
0.0357048
0.0281917
0.0222132
0.0174665
0.0137063
0.010734
0.0083897
0.00654457
0.0050954
0.00395957
0.00307116
0.00237767
0.00183741
0.00141735
0.00109137
0.000838889
0.000643699
0.00049308
0.000377066
0.000287867
0.000219408
0.000166958
0.000126842
9.62127e-05
7.28655e-05
5.50987e-05
4.16005e-05
3.13619e-05
2.3608e-05
1.77452e-05
1.3319e-05
9.98258e-06
7.47133e-06
5.58402e-06
4.16772e-06
3.10639e-06
2.31223e-06
1.7188e-06
1.27599e-06
9.46054e-07
7.00506e-07
5.18052e-07
3.82627e-07
2.82263e-07
2.07956e-07
1.53011e-07
1.12488e-07
8.25562e-08
6.05183e-08
4.43201e-08
3.23852e-08
2.36144e-08
1.71974e-08
1.24567e-08
8.92619e-09
6.31717e-09
4.35207e-09
2.84217e-09
1.57652e-09
5.10703e-10
62.1495
54.2921
47.2997
41.0961
35.609
30.7705
26.5168
22.7887
19.5313
16.6938
14.2296
12.0961
10.2546
8.66989
7.31029
6.14732
5.15551
4.31221
3.59728
2.99298
2.48367
2.05568
1.69705
1.3974
1.14774
0.940313
0.768453
0.626452
0.509442
0.413284
0.334472
0.270048
0.217521
0.174804
0.140154
0.112118
0.0894887
0.0712687
0.0566341
0.0449074
0.0355328
0.028056
0.0221062
0.0173825
0.0136404
0.0106824
0.00834934
0.00651309
0.0050709
0.00394054
0.0030564
0.00236625
0.00182858
0.00141054
0.00108613
0.000834864
0.000640612
0.000490716
0.000375259
0.000286489
0.000218358
0.000166159
0.000126235
9.57528e-05
7.25175e-05
5.48356e-05
4.1402e-05
3.12124e-05
2.34956e-05
1.76607e-05
1.32557e-05
9.93512e-06
7.43587e-06
5.55755e-06
4.14795e-06
3.09168e-06
2.3013e-06
1.7107e-06
1.27e-06
9.41602e-07
6.97242e-07
5.1561e-07
3.80851e-07
2.80931e-07
2.0699e-07
1.52334e-07
1.11933e-07
8.21787e-08
6.02296e-08
4.41092e-08
3.22409e-08
2.35145e-08
1.70974e-08
1.2379e-08
8.88178e-09
6.27276e-09
4.32987e-09
2.80886e-09
1.58762e-09
4.996e-10
61.8331
54.0157
47.0589
40.8869
35.4278
30.6138
26.3818
22.6727
19.4319
16.6088
14.1572
12.0345
10.2024
8.62575
7.27307
6.11602
5.12927
4.29025
3.57897
2.97774
2.47103
2.04521
1.68841
1.39029
1.1419
0.935527
0.764541
0.623263
0.506849
0.41118
0.33277
0.268673
0.216414
0.173915
0.139441
0.111547
0.0890334
0.0709061
0.0563461
0.044679
0.0353521
0.0279133
0.0219938
0.0172941
0.013571
0.0106281
0.00830691
0.00648
0.00504514
0.00392052
0.00304088
0.00235423
0.0018193
0.00140338
0.00108062
0.000830631
0.000637364
0.000488229
0.000373358
0.000285038
0.000217253
0.000165318
0.000125597
9.52689e-05
7.21512e-05
5.45588e-05
4.11931e-05
3.1055e-05
2.33772e-05
1.75718e-05
1.3189e-05
9.88518e-06
7.39849e-06
5.52964e-06
4.12715e-06
3.07619e-06
2.28977e-06
1.70211e-06
1.26363e-06
9.36884e-07
6.93745e-07
5.13045e-07
3.78908e-07
2.79532e-07
2.05946e-07
1.51545e-07
1.11355e-07
8.17568e-08
5.9952e-08
4.38649e-08
3.20743e-08
2.33813e-08
1.69864e-08
1.23124e-08
8.85958e-09
6.26166e-09
4.28546e-09
2.79776e-09
1.57652e-09
5.10703e-10
61.5014
53.7259
46.8065
40.6676
35.2377
30.4496
26.2403
22.5511
19.3277
16.5197
14.0812
11.97
10.1477
8.57949
7.23406
6.08322
5.10176
4.26724
3.55977
2.96177
2.45778
2.03424
1.67935
1.38283
1.13577
0.93051
0.760441
0.619921
0.504131
0.408975
0.330986
0.267233
0.215253
0.172982
0.138693
0.110949
0.0885561
0.070526
0.056044
0.0444395
0.0351627
0.0277637
0.021876
0.0172014
0.0134983
0.0105712
0.00826243
0.0064453
0.00501813
0.00389954
0.00302461
0.00234164
0.00180957
0.00139588
0.00107484
0.00082619
0.000633958
0.000485621
0.000371364
0.000283516
0.000216093
0.000164436
0.000124927
9.47611e-05
7.17668e-05
5.42683e-05
4.09739e-05
3.08898e-05
2.32529e-05
1.74784e-05
1.31189e-05
9.8327e-06
7.35926e-06
5.50032e-06
4.1053e-06
3.05992e-06
2.27767e-06
1.69315e-06
1.25697e-06
9.31943e-07
6.90081e-07
5.10336e-07
3.76932e-07
2.78055e-07
2.04847e-07
1.50757e-07
1.10811e-07
8.13238e-08
5.9619e-08
4.36651e-08
3.19078e-08
2.32703e-08
1.69309e-08
1.22347e-08
8.79297e-09
6.23945e-09
4.29656e-09
2.78666e-09
1.56541e-09
5.21805e-10
61.1546
53.423
46.5426
40.4383
35.039
30.2779
26.0923
22.4239
19.2187
16.4266
14.0018
11.9025
10.0904
8.53111
7.19327
6.04891
5.07299
4.24318
3.5397
2.94507
2.44392
2.02277
1.66988
1.37503
1.12937
0.925263
0.756153
0.616425
0.501288
0.406669
0.329119
0.265726
0.21404
0.172007
0.137912
0.110324
0.0880569
0.0701285
0.0557282
0.0441891
0.0349645
0.0276072
0.0217527
0.0171045
0.0134223
0.0105116
0.00821589
0.00640901
0.00498987
0.00387758
0.00300758
0.00232846
0.00179939
0.00138803
0.0010688
0.000821545
0.000630395
0.000482892
0.000369278
0.000281924
0.00021488
0.000163513
0.000124226
9.42296e-05
7.13643e-05
5.39641e-05
4.07444e-05
3.07168e-05
2.31227e-05
1.73807e-05
1.30456e-05
9.77778e-06
7.31816e-06
5.46962e-06
4.08239e-06
3.04288e-06
2.26497e-06
1.68373e-06
1.24997e-06
9.2677e-07
6.8624e-07
5.07505e-07
3.74833e-07
2.76512e-07
2.03726e-07
1.49913e-07
1.10179e-07
8.08686e-08
5.92859e-08
4.33764e-08
3.17191e-08
2.31259e-08
1.6831e-08
1.21791e-08
8.73746e-09
6.19504e-09
4.27436e-09
2.76446e-09
1.56541e-09
4.88498e-10
60.7927
53.1068
46.2671
40.199
34.8316
30.0987
25.9379
22.2912
19.1049
16.3294
13.919
11.8321
10.0307
8.48062
7.1507
6.01312
5.04296
4.21807
3.51875
2.92764
2.42945
2.0108
1.66
1.3669
1.12269
0.919787
0.751679
0.612778
0.498322
0.404263
0.327172
0.264154
0.212773
0.170989
0.137096
0.109671
0.087536
0.0697137
0.0553985
0.0439277
0.0347577
0.027444
0.0216241
0.0170034
0.0133429
0.0104495
0.00816732
0.00637112
0.00496038
0.00385467
0.00298981
0.0023147
0.00178876
0.00137983
0.00106249
0.000816695
0.000626674
0.000480042
0.000367099
0.000280261
0.000213613
0.000162549
0.000123494
9.36745e-05
7.09441e-05
5.36464e-05
4.05046e-05
3.05361e-05
2.29868e-05
1.72785e-05
1.29689e-05
9.72035e-06
7.2752e-06
5.43755e-06
4.05848e-06
3.02501e-06
2.25171e-06
1.67384e-06
1.24267e-06
9.21352e-07
6.82232e-07
5.04541e-07
3.72669e-07
2.74902e-07
2.02582e-07
1.4907e-07
1.09557e-07
8.04135e-08
5.89639e-08
4.31544e-08
3.15414e-08
2.30038e-08
1.67089e-08
1.21125e-08
8.68194e-09
6.13953e-09
4.22995e-09
2.75335e-09
1.53211e-09
4.996e-10
60.4158
52.7775
45.9803
39.9497
34.6157
29.9121
25.7771
22.153
18.9865
16.2281
13.8327
11.7587
9.96854
8.42804
7.10636
5.97583
5.0117
4.19191
3.49693
2.90949
2.41439
1.99834
1.64971
1.35842
1.11573
0.914085
0.747019
0.608979
0.495233
0.401757
0.325144
0.262516
0.211454
0.169929
0.136246
0.108991
0.0869934
0.0692816
0.0550552
0.0436555
0.0345423
0.0272739
0.0214901
0.016898
0.0132602
0.0103848
0.00811673
0.00633166
0.00492966
0.0038308
0.0029713
0.00230037
0.00177769
0.00137129
0.00105591
0.000811642
0.000622797
0.000477073
0.000364829
0.000278528
0.000212292
0.000161545
0.000122731
9.30959e-05
7.05061e-05
5.33154e-05
4.02546e-05
3.03478e-05
2.28451e-05
1.7172e-05
1.2889e-05
9.66047e-06
7.23042e-06
5.40409e-06
4.03353e-06
3.00644e-06
2.23787e-06
1.66357e-06
1.23503e-06
9.1569e-07
6.78047e-07
5.01454e-07
3.70382e-07
2.73237e-07
2.01328e-07
1.48159e-07
1.08902e-07
7.99583e-08
5.86087e-08
4.29101e-08
3.13638e-08
2.28706e-08
1.66311e-08
1.20126e-08
8.62643e-09
6.11733e-09
4.21885e-09
2.73115e-09
1.52101e-09
4.88498e-10
60.0239
52.4353
45.6821
39.6906
34.3912
29.7181
25.6099
22.0094
18.8634
16.1229
13.743
11.6824
9.90389
8.37338
7.06027
5.93708
4.9792
4.16473
3.47425
2.89062
2.39873
1.98538
1.63901
1.34961
1.10849
0.908157
0.742174
0.60503
0.492021
0.399152
0.323035
0.260814
0.210083
0.168828
0.135362
0.108285
0.0864294
0.0688324
0.0546982
0.0433725
0.0343184
0.0270971
0.0213508
0.0167885
0.0131743
0.0103175
0.00806413
0.00629064
0.00489772
0.00380598
0.00295205
0.00228547
0.00176618
0.00136241
0.00104908
0.000806387
0.000618766
0.000473986
0.000362469
0.000276727
0.000210919
0.0001605
0.000121938
9.24941e-05
7.00504e-05
5.29709e-05
3.99947e-05
3.01518e-05
2.26976e-05
1.70612e-05
1.28059e-05
9.5982e-06
7.18383e-06
5.36928e-06
4.00753e-06
2.98709e-06
2.22345e-06
1.65288e-06
1.22709e-06
9.09806e-07
6.73706e-07
4.98213e-07
3.67995e-07
2.71483e-07
2.00018e-07
1.47193e-07
1.08202e-07
7.94254e-08
5.82201e-08
4.26326e-08
3.11529e-08
2.27263e-08
1.65312e-08
1.19682e-08
8.59313e-09
6.09512e-09
4.19664e-09
2.70894e-09
1.53211e-09
4.996e-10
59.6173
52.08
45.3726
39.4217
34.1582
29.5168
25.4364
21.8603
18.7356
16.0137
13.6498
11.6033
9.8368
8.31665
7.01244
5.89686
4.94546
4.13651
3.45072
2.87104
2.38248
1.97193
1.62791
1.34047
1.10098
0.902005
0.737147
0.600931
0.488688
0.396448
0.320847
0.259047
0.20866
0.167684
0.134446
0.107551
0.085844
0.0683662
0.0543278
0.0430787
0.034086
0.0269136
0.0212062
0.0166748
0.0130851
0.0102476
0.00800954
0.00624805
0.00486457
0.00378022
0.00293207
0.00227001
0.00175422
0.00135319
0.00104198
0.000800933
0.000614581
0.000470781
0.000360018
0.000274856
0.000209494
0.000159416
0.000121114
9.18694e-05
6.95774e-05
5.26132e-05
3.97247e-05
2.99483e-05
2.25445e-05
1.69461e-05
1.27196e-05
9.5335e-06
7.13543e-06
5.3331e-06
3.98053e-06
2.96696e-06
2.20852e-06
1.64176e-06
1.21886e-06
9.03699e-07
6.69176e-07
4.94882e-07
3.65552e-07
2.69662e-07
1.98686e-07
1.46216e-07
1.0747e-07
7.88813e-08
5.78648e-08
4.2355e-08
3.09419e-08
2.25819e-08
1.64202e-08
1.19016e-08
8.54872e-09
6.05072e-09
4.17444e-09
2.70894e-09
1.52101e-09
4.996e-10
59.196
51.712
45.0519
39.1431
33.9168
29.3082
25.2566
21.7058
18.6031
15.9005
13.5534
11.5213
9.76728
8.25788
6.96288
5.85518
4.91051
4.10728
3.42633
2.85074
2.36564
1.95799
1.6164
1.331
1.0932
0.89563
0.731937
0.596684
0.485235
0.393646
0.31858
0.257217
0.207186
0.166499
0.133496
0.106791
0.0852374
0.0678831
0.0539439
0.0427743
0.0338451
0.0267235
0.0210564
0.016557
0.0129927
0.0101752
0.00795297
0.00620392
0.00483021
0.00375353
0.00291137
0.00225398
0.00174184
0.00134364
0.00103463
0.00079528
0.000610244
0.000467459
0.000357478
0.000272917
0.000208016
0.000158292
0.00012026
9.12217e-05
6.9087e-05
5.22425e-05
3.94448e-05
2.97374e-05
2.23857e-05
1.68268e-05
1.263e-05
9.46642e-06
7.08522e-06
5.2956e-06
3.95256e-06
2.94613e-06
2.19302e-06
1.63024e-06
1.21031e-06
8.97371e-07
6.64491e-07
4.91451e-07
3.62976e-07
2.67775e-07
1.97298e-07
1.45184e-07
1.06704e-07
7.83484e-08
5.74318e-08
4.20552e-08
3.07199e-08
2.24154e-08
1.63092e-08
1.18017e-08
8.49321e-09
6.01741e-09
4.14113e-09
2.69784e-09
1.5099e-09
4.44089e-10
58.76
51.3311
44.7201
38.8549
33.667
29.0923
25.0706
21.5459
18.4661
15.7834
13.4536
11.4364
9.69535
8.19706
6.91161
5.81206
4.87435
4.07703
3.4011
2.82975
2.34822
1.94357
1.6045
1.32119
1.08515
0.889035
0.726547
0.59229
0.481661
0.390747
0.316234
0.255322
0.20566
0.165273
0.132513
0.106005
0.0846098
0.0673833
0.0535467
0.0424594
0.033596
0.0265267
0.0209014
0.0164351