/*--------------------------------*- C++ -*----------------------------------*\
| =========                 |                                                 |
| \\      /  F ield         | OpenFOAM: The Open Source CFD Toolbox           |
|  \\    /   O peration     | Version:  2406                                  |
|   \\  /    A nd           | Website:  www.openfoam.com                      |
|    \\/     M anipulation  |                                                 |
\*---------------------------------------------------------------------------*/
FoamFile
{
    version     2.0;
    format      ascii;
    arch        "LSB;label=32;scalar=64";
    class       volScalarField;
    location    "170";
    object      T;
}
// * * * * * * * * * * * * * * * * * * * * * * * * * * * * * * * * * * * * * //

dimensions      [0 0 0 1 0 0 0];

internalField   nonuniform List<scalar> 
20000
(
299.394
299.426
299.456
299.486
299.516
299.545
299.573
299.6
299.627
299.653
299.678
299.703
299.726
299.749
299.771
299.792
299.812
299.832
299.85
299.868
299.886
299.902
299.917
299.932
299.946
299.96
299.972
299.984
299.995
300.006
300.016
300.025
300.034
300.042
300.05
300.057
300.063
300.069
300.075
300.079
300.084
300.088
300.092
300.095
300.098
300.1
300.103
300.104
300.106
300.107
300.108
300.109
300.109
300.109
300.109
300.109
300.108
300.107
300.106
300.105
300.104
300.103
300.101
300.099
300.098
300.096
300.094
300.092
300.089
300.087
300.085
300.082
300.08
300.077
300.075
300.072
300.069
300.067
300.064
300.061
300.058
300.055
300.052
300.05
300.047
300.044
300.041
300.038
300.035
300.032
300.029
300.026
300.023
300.02
300.017
300.014
300.011
300.008
300.005
300.002
298.183
298.277
298.369
298.459
298.548
298.635
298.719
298.801
298.882
298.959
299.035
299.108
299.179
299.247
299.313
299.376
299.437
299.495
299.552
299.605
299.657
299.706
299.752
299.797
299.839
299.879
299.917
299.953
299.986
300.018
300.048
300.076
300.102
300.126
300.149
300.17
300.189
300.207
300.224
300.238
300.252
300.264
300.275
300.285
300.294
300.301
300.307
300.313
300.317
300.321
300.324
300.326
300.327
300.327
300.327
300.326
300.324
300.322
300.319
300.316
300.312
300.308
300.303
300.298
300.293
300.287
300.281
300.275
300.268
300.261
300.254
300.247
300.24
300.232
300.224
300.216
300.208
300.2
300.192
300.183
300.175
300.166
300.157
300.149
300.14
300.131
300.122
300.113
300.104
300.095
300.086
300.077
300.068
300.059
300.05
300.041
300.032
300.023
300.014
300.005
296.972
297.128
297.282
297.433
297.58
297.725
297.865
298.003
298.136
298.266
298.392
298.513
298.631
298.745
298.855
298.96
299.062
299.159
299.253
299.342
299.428
299.509
299.587
299.661
299.732
299.798
299.861
299.921
299.977
300.03
300.08
300.126
300.17
300.21
300.248
300.283
300.315
300.345
300.372
300.397
300.42
300.44
300.459
300.475
300.489
300.502
300.512
300.521
300.529
300.535
300.539
300.542
300.544
300.545
300.544
300.543
300.54
300.536
300.532
300.526
300.52
300.513
300.505
300.497
300.488
300.479
300.469
300.458
300.447
300.436
300.424
300.412
300.399
300.387
300.374
300.36
300.347
300.333
300.319
300.305
300.291
300.277
300.262
300.248
300.233
300.218
300.204
300.189
300.174
300.159
300.144
300.129
300.114
300.099
300.083
300.068
300.053
300.038
300.023
300.008
295.762
295.981
296.196
296.407
296.613
296.815
297.012
297.204
297.391
297.573
297.749
297.919
298.084
298.243
298.397
298.545
298.687
298.823
298.954
299.079
299.199
299.313
299.422
299.526
299.624
299.718
299.806
299.889
299.968
300.042
300.112
300.177
300.238
300.295
300.347
300.396
300.442
300.483
300.521
300.556
300.588
300.616
300.642
300.665
300.685
300.702
300.717
300.73
300.74
300.749
300.755
300.759
300.762
300.763
300.762
300.759
300.756
300.751
300.744
300.737
300.728
300.718
300.707
300.696
300.683
300.67
300.656
300.641
300.626
300.61
300.593
300.576
300.559
300.541
300.523
300.504
300.485
300.466
300.447
300.427
300.407
300.387
300.367
300.347
300.326
300.306
300.285
300.264
300.243
300.222
300.201
300.18
300.159
300.138
300.117
300.096
300.074
300.053
300.032
300.011
294.553
294.834
295.111
295.382
295.647
295.907
296.16
296.407
296.647
296.88
297.106
297.326
297.537
297.742
297.939
298.129
298.312
298.487
298.656
298.817
298.97
299.117
299.257
299.391
299.517
299.637
299.751
299.858
299.959
300.054
300.144
300.227
300.306
300.379
300.447
300.509
300.568
300.621
300.67
300.715
300.755
300.792
300.825
300.854
300.88
300.903
300.922
300.938
300.951
300.962
300.97
300.976
300.979
300.98
300.979
300.976
300.971
300.965
300.957
300.947
300.936
300.923
300.909
300.894
300.878
300.861
300.843
300.824
300.804
300.784
300.763
300.741
300.718
300.695
300.672
300.648
300.624
300.599
300.574
300.549
300.523
300.498
300.472
300.446
300.419
300.393
300.366
300.339
300.313
300.286
300.259
300.232
300.204
300.177
300.15
300.123
300.096
300.068
300.041
300.014
293.345
293.689
294.027
294.358
294.682
294.999
295.309
295.61
295.904
296.189
296.465
296.733
296.991
297.241
297.482
297.715
297.938
298.152
298.358
298.554
298.742
298.922
299.093
299.255
299.41
299.556
299.695
299.826
299.95
300.066
300.175
300.278
300.373
300.463
300.546
300.622
300.693
300.759
300.819
300.873
300.923
300.968
301.008
301.044
301.075
301.103
301.126
301.146
301.162
301.175
301.185
301.192
301.196
301.197
301.196
301.193
301.187
301.179
301.169
301.157
301.143
301.128
301.111
301.092
301.073
301.052
301.03
301.007
300.982
300.957
300.932
300.905
300.878
300.85
300.821
300.792
300.762
300.732
300.702
300.671
300.64
300.608
300.576
300.544
300.512
300.48
300.447
300.415
300.382
300.349
300.316
300.283
300.25
300.217
300.183
300.15
300.117
300.083
300.05
300.017
292.139
292.545
292.944
293.335
293.718
294.093
294.458
294.815
295.161
295.498
295.824
296.14
296.446
296.741
297.026
297.3
297.564
297.817
298.06
298.292
298.514
298.726
298.928
299.12
299.303
299.476
299.64
299.795
299.941
300.078
300.207
300.328
300.441
300.546
300.644
300.735
300.819
300.896
300.967
301.032
301.09
301.143
301.191
301.233
301.27
301.302
301.33
301.354
301.373
301.389
301.4
301.408
301.413
301.415
301.413
301.409
301.402
301.392
301.38
301.366
301.35
301.332
301.312
301.29
301.267
301.242
301.216
301.189
301.161
301.131
301.1
301.069
301.037
301.003
300.97
300.935
300.9
300.865
300.829
300.792
300.755
300.718
300.681
300.643
300.605
300.567
300.528
300.49
300.451
300.412
300.373
300.334
300.295
300.256
300.217
300.177
300.138
300.099
300.059
300.02
290.935
291.403
291.863
292.314
292.756
293.188
293.61
294.02
294.42
294.808
295.185
295.549
295.902
296.242
296.571
296.887
297.191
297.483
297.763
298.031
298.287
298.531
298.764
298.986
299.196
299.396
299.585
299.763
299.932
300.09
300.239
300.378
300.509
300.63
300.743
300.848
300.945
301.034
301.115
301.19
301.257
301.318
301.373
301.422
301.465
301.502
301.534
301.561
301.583
301.601
301.615
301.624
301.629
301.631
301.63
301.625
301.616
301.606
301.592
301.576
301.557
301.536
301.513
301.488
301.461
301.433
301.403
301.371
301.338
301.304
301.269
301.233
301.195
301.157
301.118
301.079
301.038
300.997
300.956
300.914
300.871
300.828
300.785
300.741
300.698
300.654
300.609
300.565
300.52
300.475
300.43
300.385
300.34
300.295
300.25
300.204
300.159
300.114
300.068
300.023
289.733
290.263
290.784
291.295
291.796
292.285
292.762
293.228
293.68
294.12
294.546
294.959
295.358
295.744
296.116
296.474
296.818
297.149
297.466
297.769
298.06
298.336
298.6
298.851
299.09
299.316
299.53
299.732
299.923
300.102
300.271
300.429
300.576
300.714
300.842
300.96
301.07
301.171
301.263
301.347
301.424
301.493
301.555
301.61
301.659
301.701
301.737
301.768
301.793
301.814
301.829
301.839
301.845
301.847
301.846
301.84
301.831
301.818
301.803
301.784
301.763
301.74
301.714
301.685
301.655
301.623
301.589
301.553
301.516
301.477
301.437
301.396
301.354
301.311
301.267
301.222
301.176
301.129
301.082
301.035
300.987
300.938
300.889
300.84
300.79
300.74
300.69
300.64
300.589
300.538
300.487
300.436
300.385
300.334
300.283
300.231
300.18
300.129
300.077
300.026
288.534
289.126
289.708
290.278
290.837
291.384
291.917
292.436
292.942
293.433
293.909
294.37
294.816
295.247
295.662
296.062
296.447
296.816
297.17
297.509
297.833
298.142
298.437
298.717
298.983
299.236
299.475
299.701
299.914
300.114
300.302
300.479
300.643
300.797
300.94
301.072
301.195
301.307
301.411
301.505
301.59
301.667
301.737
301.798
301.853
301.9
301.94
301.975
302.003
302.025
302.042
302.054
302.061
302.063
302.061
302.055
302.045
302.031
302.013
301.993
301.969
301.943
301.914
301.882
301.848
301.812
301.774
301.734
301.693
301.65
301.605
301.559
301.512
301.464
301.414
301.364
301.313
301.261
301.209
301.156
301.102
301.048
300.993
300.938
300.882
300.827
300.771
300.714
300.658
300.601
300.544
300.487
300.43
300.373
300.316
300.259
300.201
300.144
300.086
300.029
287.337
287.991
288.634
289.264
289.881
290.485
291.073
291.647
292.205
292.747
293.273
293.783
294.275
294.751
295.21
295.651
296.076
296.484
296.875
297.249
297.607
297.948
298.274
298.583
298.877
299.156
299.42
299.669
299.905
300.126
300.334
300.529
300.711
300.88
301.038
301.184
301.319
301.444
301.558
301.662
301.756
301.841
301.918
301.986
302.046
302.098
302.143
302.181
302.212
302.237
302.255
302.269
302.276
302.279
302.276
302.269
302.258
302.243
302.224
302.201
302.175
302.146
302.113
302.079
302.041
302.001
301.959
301.915
301.869
301.822
301.773
301.722
301.67
301.616
301.562
301.507
301.45
301.393
301.335
301.276
301.217
301.157
301.097
301.036
300.975
300.913
300.851
300.789
300.727
300.664
300.601
300.538
300.475
300.412
300.349
300.285
300.222
300.159
300.095
300.032
286.144
286.859
287.562
288.252
288.928
289.588
290.232
290.86
291.471
292.064
292.639
293.197
293.736
294.256
294.758
295.241
295.706
296.152
296.58
296.99
297.381
297.755
298.111
298.45
298.771
299.077
299.365
299.638
299.896
300.138
300.365
300.578
300.778
300.963
301.136
301.296
301.444
301.58
301.705
301.818
301.922
302.015
302.099
302.173
302.239
302.296
302.345
302.386
302.42
302.448
302.468
302.482
302.491
302.493
302.491
302.483
302.471
302.454
302.433
302.408
302.38
302.348
302.313
302.275
302.234
302.19
302.144
302.096
302.046
301.994
301.94
301.884
301.827
301.769
301.709
301.649
301.587
301.524
301.461
301.396
301.332
301.266
301.2
301.133
301.066
300.999
300.931
300.863
300.795
300.727
300.658
300.589
300.52
300.451
300.382
300.312
300.243
300.174
300.104
300.035
284.954
285.731
286.494
287.243
287.977
288.693
289.393
290.075
290.738
291.382
292.007
292.612
293.198
293.763
294.308
294.833
295.337
295.822
296.286
296.731
297.156
297.562
297.949
298.316
298.666
298.997
299.311
299.607
299.887
300.15
300.397
300.628
300.844
301.046
301.233
301.407
301.568
301.716
301.851
301.975
302.087
302.188
302.279
302.36
302.431
302.493
302.546
302.591
302.628
302.658
302.68
302.695
302.705
302.707
302.705
302.696
302.683
302.665
302.642
302.615
302.584
302.549
302.511
302.47
302.425
302.378
302.328
302.276
302.221
302.165
302.106
302.046
301.984
301.921
301.856
301.79
301.723
301.655
301.586
301.516
301.446
301.375
301.303
301.231
301.158
301.085
301.011
300.937
300.863
300.789
300.714
300.64
300.565
300.49
300.414
300.339
300.264
300.189
300.113
300.038
283.767
284.606
285.429
286.237
287.029
287.802
288.557
289.292
290.008
290.703
291.377
292.03
292.661
293.271
293.859
294.425
294.97
295.492
295.994
296.473
296.932
297.37
297.787
298.184
298.561
298.918
299.257
299.576
299.878
300.161
300.428
300.678
300.911
301.128
301.331
301.518
301.691
301.851
301.997
302.13
302.251
302.361
302.459
302.546
302.623
302.69
302.747
302.796
302.835
302.867
302.891
302.908
302.918
302.921
302.918
302.909
302.895
302.875
302.85
302.821
302.788
302.75
302.709
302.665
302.617
302.566
302.512
302.455
302.396
302.335
302.272
302.207
302.141
302.072
302.002
301.931
301.859
301.786
301.711
301.636
301.56
301.483
301.406
301.328
301.249
301.17
301.091
301.011
300.931
300.851
300.771
300.69
300.609
300.528
300.447
300.366
300.285
300.203
300.122
300.041
282.585
283.484
284.368
285.235
286.084
286.914
287.723
288.512
289.28
290.026
290.749
291.449
292.127
292.781
293.412
294.019
294.603
295.164
295.702
296.217
296.709
297.178
297.626
298.051
298.456
298.839
299.202
299.545
299.869
300.173
300.459
300.727
300.977
301.211
301.428
301.629
301.815
301.986
302.142
302.285
302.415
302.533
302.638
302.731
302.814
302.885
302.947
302.999
303.042
303.076
303.102
303.12
303.13
303.134
303.13
303.121
303.105
303.084
303.058
303.027
302.991
302.951
302.907
302.859
302.807
302.752
302.695
302.634
302.571
302.506
302.438
302.368
302.296
302.223
302.148
302.072
301.994
301.916
301.836
301.755
301.674
301.591
301.508
301.424
301.34
301.256
301.17
301.085
300.999
300.913
300.827
300.74
300.654
300.567
300.48
300.393
300.305
300.218
300.131
300.044
281.407
282.367
283.311
284.236
285.143
286.028
286.893
287.735
288.555
289.351
290.123
290.871
291.594
292.293
292.966
293.615
294.238
294.837
295.411
295.961
296.486
296.987
297.465
297.92
298.351
298.761
299.148
299.515
299.86
300.185
300.49
300.776
301.043
301.293
301.524
301.739
301.937
302.12
302.287
302.44
302.579
302.704
302.816
302.916
303.004
303.081
303.146
303.202
303.248
303.284
303.312
303.331
303.342
303.346
303.342
303.332
303.315
303.293
303.265
303.232
303.193
303.15
303.103
303.052
302.997
302.939
302.877
302.812
302.745
302.675
302.603
302.528
302.452
302.373
302.294
302.212
302.129
302.045
301.96
301.874
301.787
301.699
301.61
301.521
301.431
301.341
301.25
301.158
301.067
300.975
300.883
300.79
300.698
300.605
300.512
300.419
300.326
300.233
300.14
300.047
280.234
281.254
282.258
283.241
284.205
285.147
286.066
286.961
287.833
288.679
289.5
290.295
291.064
291.806
292.522
293.212
293.875
294.511
295.121
295.706
296.264
296.797
297.305
297.788
298.247
298.683
299.095
299.484
299.851
300.197
300.521
300.825
301.109
301.374
301.62
301.849
302.06
302.254
302.432
302.594
302.741
302.875
302.994
303.1
303.194
303.275
303.345
303.404
303.453
303.491
303.521
303.541
303.553
303.557
303.553
303.542
303.525
303.501
303.471
303.436
303.395
303.349
303.299
303.245
303.186
303.124
303.059
302.99
302.918
302.844
302.767
302.688
302.606
302.523
302.438
302.352
302.264
302.174
302.084
301.992
301.9
301.806
301.712
301.617
301.521
301.425
301.329
301.232
301.134
301.036
300.938
300.84
300.742
300.643
300.544
300.446
300.347
300.248
300.149
300.05
279.065
280.146
281.209
282.251
283.271
284.269
285.242
286.191
287.113
288.01
288.879
289.721
290.536
291.322
292.08
292.81
293.513
294.187
294.833
295.452
296.043
296.608
297.146
297.658
298.144
298.605
299.041
299.453
299.842
300.208
300.552
300.874
301.175
301.455
301.716
301.958
302.181
302.387
302.575
302.747
302.903
303.044
303.171
303.283
303.382
303.469
303.543
303.605
303.657
303.698
303.729
303.75
303.763
303.767
303.763
303.752
303.733
303.708
303.676
303.639
303.596
303.547
303.494
303.436
303.375
303.309
303.239
303.167
303.091
303.012
302.931
302.847
302.761
302.672
302.582
302.491
302.398
302.303
302.207
302.11
302.012
301.913
301.813
301.712
301.611
301.509
301.407
301.304
301.201
301.098
300.994
300.89
300.786
300.681
300.577
300.472
300.367
300.262
300.157
300.052
277.902
279.043
280.164
281.264
282.341
283.394
284.422
285.423
286.397
287.343
288.261
289.15
290.01
290.84
291.64
292.411
293.152
293.864
294.546
295.199
295.823
296.419
296.987
297.527
298.041
298.527
298.988
299.423
299.834
300.22
300.583
300.922
301.24
301.536
301.812
302.067
302.303
302.52
302.718
302.9
303.065
303.214
303.347
303.466
303.57
303.661
303.74
303.806
303.86
303.903
303.936
303.959
303.972
303.976
303.972
303.96
303.941
303.914
303.88
303.841
303.795
303.744
303.688
303.627
303.562
303.493
303.419
303.343
303.262
303.179
303.093
303.005
302.914
302.821
302.726
302.629
302.531
302.431
302.33
302.227
302.124
302.019
301.914
301.808
301.701
301.593
301.485
301.377
301.268
301.159
301.049
300.939
300.829
300.719
300.609
300.498
300.388
300.277
300.166
300.055
276.744
277.945
279.125
280.283
281.416
282.524
283.606
284.659
285.684
286.68
287.646
288.581
289.486
290.36
291.202
292.013
292.793
293.542
294.26
294.948
295.605
296.232
296.829
297.398
297.938
298.45
298.935
299.393
299.825
300.231
300.613
300.971
301.305
301.617
301.906
302.175
302.423
302.652
302.861
303.052
303.225
303.382
303.522
303.647
303.757
303.853
303.936
304.005
304.062
304.108
304.142
304.166
304.18
304.185
304.18
304.168
304.147
304.119
304.084
304.042
303.994
303.941
303.882
303.817
303.749
303.676
303.599
303.518
303.433
303.346
303.255
303.162
303.067
302.969
302.869
302.767
302.663
302.558
302.452
302.344
302.235
302.125
302.014
301.902
301.79
301.677
301.563
301.449
301.334
301.219
301.104
300.989
300.873
300.757
300.641
300.524
300.408
300.291
300.175
300.058
275.592
276.852
278.091
279.306
280.496
281.658
282.793
283.899
284.975
286.02
287.034
288.016
288.965
289.882
290.766
291.618
292.436
293.222
293.976
294.697
295.387
296.045
296.672
297.269
297.836
298.373
298.882
299.363
299.816
300.243
300.643
301.019
301.37
301.697
302.001
302.283
302.543
302.783
303.003
303.203
303.385
303.55
303.697
303.828
303.944
304.044
304.131
304.204
304.264
304.311
304.348
304.373
304.387
304.392
304.388
304.374
304.352
304.323
304.286
304.242
304.192
304.136
304.074
304.007
303.934
303.858
303.777
303.692
303.604
303.512
303.417
303.319
303.219
303.116
303.011
302.904
302.795
302.685
302.573
302.46
302.346
302.23
302.114
301.997
301.878
301.76
301.641
301.521
301.4
301.28
301.159
301.038
300.916
300.794
300.672
300.55
300.428
300.306
300.184
300.061
274.446
275.765
277.062
278.334
279.58
280.797
281.985
283.143
284.27
285.364
286.425
287.453
288.447
289.407
290.333
291.224
292.081
292.904
293.693
294.448
295.17
295.859
296.516
297.141
297.734
298.297
298.83
299.333
299.808
300.254
300.674
301.067
301.434
301.776
302.095
302.39
302.663
302.914
303.144
303.354
303.544
303.716
303.871
304.008
304.129
304.234
304.325
304.401
304.464
304.514
304.552
304.578
304.593
304.598
304.594
304.58
304.557
304.526
304.487
304.442
304.389
304.33
304.265
304.195
304.119
304.039
303.954
303.865
303.773
303.677
303.577
303.475
303.37
303.262
303.152
303.04
302.927
302.811
302.694
302.575
302.456
302.335
302.213
302.09
301.967
301.842
301.718
301.592
301.466
301.34
301.213
301.086
300.959
300.832
300.704
300.576
300.448
300.32
300.192
300.064
273.306
274.684
276.039
277.368
278.669
279.941
281.182
282.391
283.568
284.711
285.82
286.893
287.932
288.935
289.901
290.833
291.728
292.587
293.412
294.201
294.955
295.675
296.361
297.013
297.633
298.221
298.777
299.303
299.799
300.265
300.704
301.114
301.498
301.856
302.188
302.497
302.781
303.044
303.284
303.503
303.702
303.882
304.043
304.187
304.313
304.423
304.517
304.597
304.663
304.715
304.755
304.782
304.798
304.803
304.798
304.784
304.76
304.728
304.687
304.64
304.585
304.523
304.455
304.382
304.303
304.219
304.131
304.038
303.941
303.841
303.737
303.63
303.52
303.408
303.293
303.176
303.057
302.936
302.814
302.69
302.565
302.439
302.312
302.183
302.054
301.925
301.794
301.663
301.532
301.4
301.267
301.135
301.002
300.869
300.735
300.602
300.468
300.335
300.201
300.067
272.173
273.61
275.022
276.407
277.763
279.089
280.383
281.644
282.871
284.062
285.218
286.337
287.419
288.465
289.473
290.443
291.377
292.273
293.132
293.954
294.741
295.491
296.206
296.886
297.533
298.145
298.725
299.274
299.79
300.277
300.734
301.162
301.562
301.935
302.281
302.603
302.899
303.173
303.423
303.652
303.859
304.047
304.215
304.364
304.496
304.611
304.709
304.792
304.861
304.915
304.957
304.985
305.002
305.007
305.002
304.987
304.962
304.929
304.886
304.837
304.779
304.715
304.645
304.568
304.486
304.398
304.306
304.209
304.108
304.004
303.895
303.784
303.669
303.552
303.433
303.311
303.187
303.061
302.934
302.805
302.674
302.543
302.41
302.276
302.142
302.006
301.87
301.734
301.597
301.459
301.321
301.183
301.044
300.906
300.767
300.627
300.488
300.349
300.209
300.07
271.046
272.541
274.011
275.452
276.863
278.243
279.589
280.901
282.177
283.417
284.619
285.784
286.91
287.998
289.047
290.057
291.028
291.96
292.854
293.71
294.528
295.308
296.052
296.76
297.433
298.07
298.674
299.244
299.782
300.288
300.763
301.209
301.625
302.013
302.374
302.708
303.017
303.301
303.562
303.8
304.016
304.211
304.385
304.541
304.678
304.797
304.9
304.986
305.058
305.114
305.157
305.187
305.204
305.21
305.205
305.189
305.163
305.128
305.084
305.032
304.973
304.906
304.833
304.753
304.667
304.576
304.48
304.38
304.275
304.166
304.053
303.937
303.818
303.696
303.572
303.445
303.316
303.185
303.052
302.918
302.782
302.645
302.507
302.368
302.228
302.088
301.946
301.804
301.661
301.518
301.375
301.231
301.087
300.942
300.798
300.653
300.508
300.363
300.218
300.073
269.927
271.48
273.006
274.503
275.969
277.402
278.8
280.163
281.488
282.776
284.025
285.234
286.404
287.534
288.623
289.672
290.681
291.649
292.578
293.466
294.316
295.127
295.9
296.635
297.334
297.996
298.623
299.215
299.773
300.299
300.793
301.255
301.688
302.091
302.465
302.813
303.133
303.429
303.7
303.947
304.171
304.373
304.555
304.716
304.859
304.983
305.089
305.179
305.253
305.312
305.357
305.388
305.406
305.411
305.406
305.389
305.363
305.326
305.281
305.227
305.165
305.096
305.019
304.936
304.848
304.753
304.653
304.549
304.44
304.327
304.21
304.089
303.966
303.839
303.71
303.578
303.444
303.308
303.17
303.031
302.89
302.748
302.604
302.46
302.314
302.168
302.021
301.874
301.726
301.577
301.428
301.278
301.129
300.979
300.828
300.678
300.527
300.377
300.226
300.075
268.815
270.425
272.008
273.56
275.08
276.566
278.016
279.429
280.804
282.139
283.434
284.688
285.902
287.073
288.203
289.29
290.336
291.34
292.303
293.225
294.106
294.947
295.748
296.511
297.235
297.922
298.572
299.186
299.765
300.31
300.822
301.302
301.75
302.168
302.556
302.917
303.249
303.556
303.836
304.092
304.325
304.535
304.723
304.891
305.038
305.167
305.277
305.371
305.447
305.508
305.555
305.587
305.605
305.612
305.606
305.589
305.561
305.523
305.476
305.42
305.356
305.284
305.205
305.119
305.027
304.929
304.825
304.717
304.604
304.487
304.365
304.24
304.112
303.981
303.847
303.71
303.571
303.43
303.288
303.143
302.997
302.849
302.701
302.551
302.4
302.248
302.096
301.943
301.789
301.635
301.481
301.326
301.17
301.015
300.859
300.703
300.547
300.391
300.234
300.078
267.711
269.378
271.017
272.624
274.198
275.736
277.238
278.701
280.124
281.507
282.848
284.146
285.402
286.615
287.785
288.911
289.994
291.034
292.031
292.985
293.897
294.768
295.598
296.387
297.137
297.848
298.521
299.157
299.757
300.321
300.851
301.348
301.812
302.245
302.647
303.02
303.364
303.681
303.972
304.237
304.478
304.696
304.891
305.064
305.217
305.35
305.464
305.561
305.64
305.703
305.751
305.784
305.804
305.81
305.804
305.786
305.758
305.719
305.67
305.612
305.546
305.471
305.389
305.3
305.205
305.103
304.996
304.884
304.767
304.645
304.52
304.391
304.258
304.122
303.983
303.842
303.698
303.552
303.404
303.254
303.103
302.95
302.796
302.641
302.485
302.328
302.17
302.012
301.853
301.693
301.533
301.373
301.212
301.051
300.889
300.728
300.566
300.405
300.243
300.081
266.615
268.339
270.033
271.695
273.322
274.913
276.465
277.978
279.449
280.879
282.265
283.608
284.907
286.161
287.37
288.535
289.654
290.729
291.76
292.747
293.69
294.59
295.448
296.265
297.04
297.775
298.471
299.128
299.749
300.332
300.88
301.394
301.873
302.321
302.737
303.122
303.479
303.806
304.107
304.381
304.63
304.855
305.057
305.236
305.394
305.532
305.65
305.75
305.832
305.897
305.946
305.981
306.001
306.007
306.001
305.983
305.953
305.913
305.862
305.803
305.734
305.657
305.572
305.48
305.382
305.277
305.166
305.05
304.929
304.803
304.673
304.54
304.402
304.262
304.118
303.972
303.823
303.672
303.519
303.365
303.208
303.05
302.891
302.731
302.569
302.407
302.244
302.08
301.916
301.751
301.585
301.419
301.253
301.086
300.92
300.753
300.586
300.418
300.251
300.084
265.527
267.307
269.056
270.772
272.453
274.095
275.698
277.26
278.78
280.256
281.687
283.074
284.415
285.71
286.959
288.161
289.317
290.427
291.492
292.511
293.485
294.414
295.3
296.143
296.943
297.703
298.421
299.1
299.74
300.343
300.909
301.439
301.934
302.397
302.826
303.224
303.592
303.93
304.241
304.524
304.781
305.013
305.221
305.407
305.57
305.712
305.834
305.937
306.022
306.089
306.14
306.176
306.196
306.203
306.197
306.178
306.147
306.106
306.053
305.992
305.921
305.841
305.754
305.659
305.557
305.449
305.334
305.214
305.089
304.96
304.826
304.688
304.546
304.401
304.252
304.102
303.948
303.792
303.634
303.474
303.313
303.15
302.985
302.82
302.653
302.485
302.317
302.148
301.978
301.808
301.637
301.465
301.294
301.122
300.95
300.777
300.605
300.432
300.259
300.086
264.447
266.283
268.088
269.857
271.59
273.284
274.937
276.548
278.115
279.638
281.114
282.544
283.927
285.262
286.55
287.79
288.983
290.128
291.225
292.276
293.281
294.239
295.153
296.022
296.848
297.631
298.372
299.072
299.732
300.354
300.937
301.484
301.995
302.472
302.915
303.325
303.704
304.054
304.374
304.666
304.931
305.17
305.385
305.576
305.744
305.891
306.017
306.123
306.21
306.28
306.333
306.369
306.391
306.397
306.391
306.371
306.34
306.297
306.243
306.179
306.106
306.024
305.934
305.836
305.731
305.619
305.501
305.378
305.249
305.115
304.977
304.834
304.688
304.538
304.386
304.23
304.072
303.911
303.748
303.583
303.417
303.248
303.079
302.908
302.736
302.563
302.39
302.215
302.04
301.864
301.688
301.511
301.334
301.157
300.979
300.802
300.624
300.446
300.267
300.089
263.377
265.268
267.127
268.95
270.735
272.48
274.183
275.842
277.456
279.024
280.545
282.018
283.443
284.819
286.145
287.423
288.651
289.83
290.961
292.043
293.078
294.066
295.007
295.902
296.753
297.559
298.323
299.044
299.724
300.364
300.965
301.529
302.055
302.546
303.002
303.425
303.816
304.176
304.505
304.806
305.079
305.326
305.547
305.744
305.917
306.068
306.198
306.307
306.397
306.469
306.523
306.561
306.583
306.59
306.583
306.563
306.531
306.486
306.431
306.365
306.29
306.205
306.113
306.012
305.903
305.788
305.667
305.54
305.407
305.269
305.127
304.98
304.829
304.675
304.518
304.357
304.194
304.029
303.861
303.691
303.519
303.346
303.172
302.996
302.819
302.641
302.462
302.282
302.101
301.92
301.739
301.557
301.374
301.192
301.009
300.826
300.642
300.459
300.275
300.092
262.315
264.261
266.174
268.049
269.886
271.682
273.434
275.142
276.803
278.416
279.981
281.497
282.963
284.379
285.744
287.058
288.322
289.536
290.699
291.813
292.878
293.894
294.862
295.783
296.659
297.488
298.274
299.016
299.716
300.375
300.993
301.573
302.115
302.62
303.089
303.525
303.927
304.297
304.636
304.945
305.227
305.48
305.708
305.91
306.089
306.244
306.377
306.49
306.583
306.656
306.712
306.751
306.774
306.781
306.774
306.753
306.72
306.674
306.617
306.55
306.472
306.385
306.29
306.186
306.075
305.956
305.831
305.7
305.564
305.422
305.275
305.124
304.969
304.811
304.649
304.484
304.316
304.145
303.973
303.798
303.621
303.443
303.264
303.082
302.9
302.717
302.533
302.348
302.162
301.976
301.789
301.602
301.414
301.226
301.038
300.85
300.661
300.472
300.283
300.094
261.263
263.263
265.229
267.157
269.045
270.891
272.692
274.447
276.155
277.814
279.422
280.98
282.487
283.942
285.346
286.697
287.996
289.243
290.439
291.584
292.679
293.723
294.719
295.666
296.565
297.418
298.226
298.989
299.708
300.385
301.021
301.617
302.174
302.693
303.176
303.623
304.036
304.417
304.765
305.084
305.373
305.633
305.867
306.075
306.259
306.418
306.556
306.671
306.767
306.842
306.9
306.94
306.963
306.971
306.963
306.942
306.908
306.861
306.802
306.733
306.653
306.564
306.465
306.359
306.244
306.123
305.994
305.859
305.719
305.573
305.423
305.267
305.108
304.945
304.778
304.609
304.436
304.261
304.084
303.904
303.723
303.539
303.355
303.169
302.981
302.793
302.604
302.413
302.223
302.031
301.839
301.647
301.454
301.261
301.067
300.873
300.679
300.485
300.291
300.097
260.22
262.274
264.293
266.273
268.212
270.107
271.957
273.76
275.513
277.216
278.868
280.468
282.016
283.51
284.951
286.339
287.673
288.954
290.182
291.358
292.482
293.554
294.576
295.549
296.473
297.349
298.178
298.962
299.7
300.396
301.049
301.66
302.232
302.765
303.261
303.72
304.145
304.536
304.894
305.22
305.517
305.785
306.025
306.239
306.427
306.591
306.732
306.851
306.949
307.027
307.085
307.126
307.15
307.158
307.151
307.129
307.094
307.045
306.985
306.914
306.832
306.74
306.639
306.53
306.412
306.287
306.155
306.017
305.873
305.723
305.569
305.409
305.246
305.078
304.907
304.733
304.556
304.376
304.194
304.009
303.823
303.635
303.445
303.254
303.062
302.868
302.674
302.478
302.282
302.086
301.889
301.691
301.493
301.294
301.096
300.897
300.698
300.498
300.299
300.1
259.187
261.295
263.366
265.397
267.387
269.331
271.229
273.078
274.877
276.625
278.32
279.961
281.549
283.082
284.56
285.984
287.353
288.667
289.927
291.133
292.286
293.387
294.436
295.433
296.381
297.28
298.131
298.935
299.693
300.406
301.076
301.704
302.29
302.837
303.346
303.817
304.253
304.653
305.021
305.356
305.66
305.935
306.182
306.401
306.594
306.762
306.907
307.029
307.129
307.209
307.269
307.311
307.336
307.344
307.336
307.314
307.278
307.228
307.167
307.094
307.01
306.915
306.812
306.699
306.579
306.451
306.315
306.173
306.025
305.872
305.713
305.55
305.382
305.21
305.035
304.856
304.674
304.489
304.302
304.113
303.922
303.729
303.534
303.338
303.141
302.943
302.743
302.543
302.342
302.14
301.938
301.735
301.532
301.328
301.124
300.92
300.716
300.511
300.307
300.102
258.164
260.325
262.448
264.53
266.569
268.563
270.508
272.404
274.248
276.039
277.776
279.459
281.086
282.658
284.173
285.633
287.036
288.383
289.675
290.911
292.093
293.221
294.296
295.319
296.291
297.212
298.084
298.908
299.685
300.416
301.103
301.746
302.348
302.908
303.43
303.913
304.359
304.77
305.147
305.49
305.802
306.084
306.337
306.561
306.759
306.932
307.08
307.205
307.308
307.39
307.452
307.495
307.52
307.528
307.52
307.497
307.46
307.41
307.346
307.271
307.185
307.089
306.983
306.867
306.744
306.612
306.474
306.328
306.176
306.019
305.856
305.689
305.517
305.341
305.161
304.977
304.791
304.602
304.41
304.216
304.02
303.822
303.623
303.422
303.22