/*--------------------------------*- C++ -*----------------------------------*\
| =========                 |                                                 |
| \\      /  F ield         | OpenFOAM: The Open Source CFD Toolbox           |
|  \\    /   O peration     | Version:  2406                                  |
|   \\  /    A nd           | Website:  www.openfoam.com                      |
|    \\/     M anipulation  |                                                 |
\*---------------------------------------------------------------------------*/
FoamFile
{
    version     2.0;
    format      ascii;
    arch        "LSB;label=32;scalar=64";
    class       volVectorField;
    location    "10";
    object      flux;
}
// * * * * * * * * * * * * * * * * * * * * * * * * * * * * * * * * * * * * * //

dimensions      [0 1 -1 1 0 0 0];

internalField   nonuniform List<vector> 
20000
(
(-0.000503348 0.00728447 0)
(-0.000445807 0.0063382 0)
(-0.000393746 0.00550135 0)
(-0.000346794 0.00476332 0)
(-0.000304586 0.00411426 0)
(-0.000266774 0.00354504 0)
(-0.000233014 0.00304722 0)
(-0.000202964 0.00261305 0)
(-0.000176301 0.00223542 0)
(-0.00015273 0.00190788 0)
(-0.000131959 0.00162454 0)
(-0.000113704 0.00138008 0)
(-9.77146e-05 0.00116975 0)
(-8.37586e-05 0.000989248 0)
(-7.16137e-05 0.000834736 0)
(-6.10738e-05 0.000702811 0)
(-5.19533e-05 0.000590458 0)
(-4.40857e-05 0.000495012 0)
(-3.73199e-05 0.000414125 0)
(-3.15181e-05 0.00034574 0)
(-2.65563e-05 0.00028806 0)
(-2.2324e-05 0.000239521 0)
(-1.87233e-05 0.00019877 0)
(-1.56682e-05 0.000164633 0)
(-1.3083e-05 0.000136101 0)
(-1.09011e-05 0.000112305 0)
(-9.0642e-06 9.24996e-05 0)
(-7.52156e-06 7.60501e-05 0)
(-6.22901e-06 6.24151e-05 0)
(-5.14846e-06 5.11355e-05 0)
(-4.24713e-06 4.18225e-05 0)
(-3.49692e-06 3.41481e-05 0)
(-2.87385e-06 2.78357e-05 0)
(-2.35746e-06 2.26534e-05 0)
(-1.93037e-06 1.84065e-05 0)
(-1.57787e-06 1.49324e-05 0)
(-1.28751e-06 1.20954e-05 0)
(-1.04881e-06 9.78271e-06 0)
(-8.52943e-07 7.90048e-06 0)
(-6.92533e-07 6.37114e-06 0)
(-5.61397e-07 5.13052e-06 0)
(-4.54384e-07 4.1257e-06 0)
(-3.67208e-07 3.3131e-06 0)
(-2.96312e-07 2.65695e-06 0)
(-2.38753e-07 2.12792e-06 0)
(-1.92098e-07 1.702e-06 0)
(-1.5434e-07 1.35958e-06 0)
(-1.23832e-07 1.08467e-06 0)
(-9.92185e-08 8.64279e-07 0)
(-7.93908e-08 6.87823e-07 0)
(-6.34417e-08 5.46735e-07 0)
(-5.06311e-08 4.34071e-07 0)
(-4.03559e-08 3.44222e-07 0)
(-3.21257e-08 2.72657e-07 0)
(-2.55426e-08 2.15726e-07 0)
(-2.02838e-08 1.70493e-07 0)
(-1.60886e-08 1.34596e-07 0)
(-1.27461e-08 1.06142e-07 0)
(-1.00864e-08 8.36139e-08 0)
(-7.97269e-09 6.57981e-08 0)
(-6.29486e-09 5.17248e-08 0)
(-4.96466e-09 4.062e-08 0)
(-3.9113e-09 3.18671e-08 0)
(-3.07816e-09 2.49755e-08 0)
(-2.41993e-09 1.95551e-08 0)
(-1.90048e-09 1.52963e-08 0)
(-1.49101e-09 1.19535e-08 0)
(-1.16859e-09 9.33247e-09 0)
(-9.14985e-10 7.27936e-09 0)
(-7.15702e-10 5.6727e-09 0)
(-5.59282e-10 4.41666e-09 0)
(-4.36645e-10 3.43564e-09 0)
(-3.40569e-10 2.67015e-09 0)
(-2.65383e-10 2.07341e-09 0)
(-2.06619e-10 1.60864e-09 0)
(-1.60711e-10 1.24698e-09 0)
(-1.24892e-10 9.65816e-10 0)
(-9.69714e-11 7.47418e-10 0)
(-7.52302e-11 5.77928e-10 0)
(-5.83092e-11 4.4651e-10 0)
(-4.51591e-11 3.44694e-10 0)
(-3.49426e-11 2.65881e-10 0)
(-2.70203e-11 2.04921e-10 0)
(-2.08699e-11 1.57812e-10 0)
(-1.61131e-11 1.21434e-10 0)
(-1.24302e-11 9.33543e-11 0)
(-9.58194e-12 7.17157e-11 0)
(-7.38293e-12 5.50315e-11 0)
(-5.6818e-12 4.2184e-11 0)
(-4.37606e-12 3.22945e-11 0)
(-3.37052e-12 2.46822e-11 0)
(-2.59928e-12 1.88173e-11 0)
(-2.00864e-12 1.4285e-11 0)
(-1.55224e-12 1.07876e-11 0)
(-1.21788e-12 8.05654e-12 0)
(-9.64051e-13 5.92098e-12 0)
(-7.78563e-13 4.20522e-12 0)
(-6.5165e-13 2.80429e-12 0)
(-5.71109e-13 1.59862e-12 0)
(-5.29618e-13 5.22296e-13 0)
(-0.00150992 0.00728267 0)
(-0.00133731 0.00633663 0)
(-0.00118114 0.00549999 0)
(-0.0010403 0.00476215 0)
(-0.000913691 0.00411325 0)
(-0.000800263 0.00354417 0)
(-0.000698978 0.00304647 0)
(-0.000608837 0.00261241 0)
(-0.000528866 0.00223487 0)
(-0.000458156 0.00190741 0)
(-0.00039584 0.00162414 0)
(-0.000341081 0.00137975 0)
(-0.000293122 0.00116947 0)
(-0.000251258 0.000989002 0)
(-0.000214823 0.000834527 0)
(-0.000183204 0.000702637 0)
(-0.000155846 0.000590313 0)
(-0.000132247 0.000494891 0)
(-0.000111951 0.000414024 0)
(-9.45472e-05 0.000345655 0)
(-7.96625e-05 0.000287988 0)
(-6.69661e-05 0.000239462 0)
(-5.61648e-05 0.000198721 0)
(-4.70005e-05 0.000164593 0)
(-3.92456e-05 0.000136068 0)
(-3.27006e-05 0.000112277 0)
(-2.71905e-05 9.2477e-05 0)
(-2.25629e-05 7.60314e-05 0)
(-1.86856e-05 6.23997e-05 0)
(-1.54441e-05 5.11228e-05 0)
(-1.27403e-05 4.18121e-05 0)
(-1.04899e-05 3.41395e-05 0)
(-8.62081e-06 2.78288e-05 0)
(-7.07176e-06 2.26477e-05 0)
(-5.79061e-06 1.84019e-05 0)
(-4.7332e-06 1.49287e-05 0)
(-3.8622e-06 1.20925e-05 0)
(-3.14615e-06 9.7803e-06 0)
(-2.55862e-06 7.89854e-06 0)
(-2.07743e-06 6.36959e-06 0)
(-1.68405e-06 5.12927e-06 0)
(-1.36304e-06 4.12469e-06 0)
(-1.10153e-06 3.31229e-06 0)
(-8.88866e-07 2.65631e-06 0)
(-7.16202e-07 2.12741e-06 0)
(-5.76247e-07 1.70159e-06 0)
(-4.62984e-07 1.35925e-06 0)
(-3.71466e-07 1.08441e-06 0)
(-2.97632e-07 8.64073e-07 0)
(-2.38154e-07 6.8766e-07 0)
(-1.9031e-07 5.46606e-07 0)
(-1.51882e-07 4.3397e-07 0)
(-1.21058e-07 3.44142e-07 0)
(-9.63698e-08 2.72594e-07 0)
(-7.66219e-08 2.15677e-07 0)
(-6.0847e-08 1.70454e-07 0)
(-4.82623e-08 1.34565e-07 0)
(-3.82357e-08 1.06118e-07 0)
(-3.02572e-08 8.35954e-08 0)
(-2.39164e-08 6.57838e-08 0)
(-1.88833e-08 5.17136e-08 0)
(-1.4893e-08 4.06113e-08 0)
(-1.17331e-08 3.18605e-08 0)
(-9.23388e-09 2.49704e-08 0)
(-7.25934e-09 1.95511e-08 0)
(-5.70111e-09 1.52932e-08 0)
(-4.47278e-09 1.19512e-08 0)
(-3.50557e-09 9.33067e-09 0)
(-2.74478e-09 7.27799e-09 0)
(-2.147e-09 5.67167e-09 0)
(-1.67778e-09 4.41586e-09 0)
(-1.30987e-09 3.43503e-09 0)
(-1.02166e-09 2.6697e-09 0)
(-7.96126e-10 2.07306e-09 0)
(-6.19812e-10 1.60838e-09 0)
(-4.82114e-10 1.24679e-09 0)
(-3.74665e-10 9.65672e-10 0)
(-2.90912e-10 7.47316e-10 0)
(-2.25681e-10 5.77855e-10 0)
(-1.74925e-10 4.46453e-10 0)
(-1.35472e-10 3.44652e-10 0)
(-1.0483e-10 2.65851e-10 0)
(-8.10487e-11 2.04894e-10 0)
(-6.26145e-11 1.57794e-10 0)
(-4.83441e-11 1.21419e-10 0)
(-3.7288e-11 9.33543e-11 0)
(-2.87409e-11 7.17108e-11 0)
(-2.21488e-11 5.50364e-11 0)
(-1.70527e-11 4.21864e-11 0)
(-1.31306e-11 3.22969e-11 0)
(-1.01067e-11 2.46846e-11 0)
(-7.79539e-12 1.88149e-11 0)
(-6.02105e-12 1.42899e-11 0)
(-4.67382e-12 1.07876e-11 0)
(-3.64875e-12 8.06386e-12 0)
(-2.88971e-12 5.92342e-12 0)
(-2.33813e-12 4.2101e-12 0)
(-1.95495e-12 2.80429e-12 0)
(-1.70845e-12 1.60838e-12 0)
(-1.59618e-12 5.19856e-13 0)
(-0.00251612 0.00727908 0)
(-0.00222849 0.00633351 0)
(-0.00196823 0.00549727 0)
(-0.00173353 0.00475979 0)
(-0.00152257 0.00411122 0)
(-0.00133355 0.00354242 0)
(-0.00116477 0.00304497 0)
(-0.00101456 0.00261112 0)
(-0.000881301 0.00223377 0)
(-0.000763469 0.00190647 0)
(-0.00065962 0.00162333 0)
(-0.000568374 0.00137907 0)
(-0.00048846 0.00116889 0)
(-0.000418697 0.000988513 0)
(-0.000357979 0.000834115 0)
(-0.000305288 0.00070229 0)
(-0.000259699 0.000590023 0)
(-0.000220375 0.000494647 0)
(-0.000186556 0.000413819 0)
(-0.000157554 0.000345483 0)
(-0.000132749 0.000287845 0)
(-0.000111591 0.000239343 0)
(-9.35921e-05 0.000198623 0)
(-7.83208e-05 0.000164512 0)
(-6.53985e-05 0.000136001 0)
(-5.44921e-05 0.000112222 0)
(-4.53103e-05 9.24316e-05 0)
(-3.75989e-05 7.59939e-05 0)
(-3.11376e-05 6.23688e-05 0)
(-2.5736e-05 5.10974e-05 0)
(-2.12304e-05 4.17913e-05 0)
(-1.74802e-05 3.41225e-05 0)
(-1.43656e-05 2.78149e-05 0)
(-1.17843e-05 2.26365e-05 0)
(-9.6494e-06 1.83928e-05 0)
(-7.88734e-06 1.49213e-05 0)
(-6.43593e-06 1.20865e-05 0)
(-5.24272e-06 9.77547e-06 0)
(-4.26365e-06 7.89466e-06 0)
(-3.46181e-06 6.36646e-06 0)
(-2.80629e-06 5.12675e-06 0)
(-2.27136e-06 4.12267e-06 0)
(-1.83559e-06 3.31068e-06 0)
(-1.4812e-06 2.65501e-06 0)
(-1.19348e-06 2.12637e-06 0)
(-9.60254e-07 1.70076e-06 0)
(-7.71514e-07 1.35859e-06 0)
(-6.1901e-07 1.08389e-06 0)
(-4.95973e-07 8.63657e-07 0)
(-3.96858e-07 6.8733e-07 0)
(-3.17132e-07 5.46344e-07 0)
(-2.53095e-07 4.33763e-07 0)
(-2.01731e-07 3.43978e-07 0)
(-1.60591e-07 2.72465e-07 0)
(-1.27683e-07 2.15576e-07 0)
(-1.01396e-07 1.70374e-07 0)
(-8.04245e-08 1.34503e-07 0)
(-6.37161e-08 1.06069e-07 0)
(-5.04208e-08 8.35571e-08 0)
(-3.98544e-08 6.57538e-08 0)
(-3.14673e-08 5.16903e-08 0)
(-2.48178e-08 4.05932e-08 0)
(-1.95523e-08 3.18463e-08 0)
(-1.53875e-08 2.49594e-08 0)
(-1.20971e-08 1.95426e-08 0)
(-9.50044e-09 1.52866e-08 0)
(-7.45355e-09 1.19461e-08 0)
(-5.84178e-09 9.32675e-09 0)
(-4.57398e-09 7.27497e-09 0)
(-3.57783e-09 5.66934e-09 0)
(-2.79592e-09 4.41408e-09 0)
(-2.18281e-09 3.43367e-09 0)
(-1.70254e-09 2.66865e-09 0)
(-1.3267e-09 2.07227e-09 0)
(-1.03289e-09 1.60777e-09 0)
(-8.03416e-10 1.24632e-09 0)
(-6.24366e-10 9.65323e-10 0)
(-4.84793e-10 7.4705e-10 0)
(-3.76095e-10 5.77655e-10 0)
(-2.91512e-10 4.46297e-10 0)
(-2.25761e-10 3.44535e-10 0)
(-1.74698e-10 2.65766e-10 0)
(-1.35075e-10 2.04833e-10 0)
(-1.04347e-10 1.57741e-10 0)
(-8.05557e-11 1.2138e-10 0)
(-6.21362e-11 9.33275e-11 0)
(-4.78999e-11 7.16913e-11 0)
(-3.69073e-11 5.50217e-11 0)
(-2.84212e-11 4.21791e-11 0)
(-2.18779e-11 3.22921e-11 0)
(-1.68526e-11 2.46797e-11 0)
(-1.29915e-11 1.88173e-11 0)
(-1.00335e-11 1.42972e-11 0)
(-7.78563e-12 1.07949e-11 0)
(-6.08207e-12 8.0663e-12 0)
(-4.81782e-12 5.92098e-12 0)
(-3.8977e-12 4.21254e-12 0)
(-3.25337e-12 2.80185e-12 0)
(-2.8531e-12 1.60594e-12 0)
(-2.65785e-12 5.19856e-13 0)
(-0.00352171 0.0072737 0)
(-0.00311913 0.00632883 0)
(-0.00275485 0.0054932 0)
(-0.00242635 0.00475627 0)
(-0.00213106 0.00410817 0)
(-0.00186651 0.0035398 0)
(-0.00163028 0.00304271 0)
(-0.00142003 0.00260918 0)
(-0.00123352 0.00223212 0)
(-0.00106859 0.00190506 0)
(-0.000923238 0.00162213 0)
(-0.000795527 0.00137805 0)
(-0.000683677 0.00116802 0)
(-0.000586032 0.00098778 0)
(-0.000501046 0.000833497 0)
(-0.000427296 0.000701771 0)
(-0.000363489 0.000589586 0)
(-0.00030845 0.000494281 0)
(-0.000261115 0.000413513 0)
(-0.000220521 0.000345227 0)
(-0.000185803 0.000287632 0)
(-0.000156189 0.000239166 0)
(-0.000130996 0.000198476 0)
(-0.000109622 0.000164391 0)
(-9.15353e-05 0.000135901 0)
(-7.62703e-05 0.00011214 0)
(-6.3419e-05 9.23632e-05 0)
(-5.26257e-05 7.59376e-05 0)
(-4.35821e-05 6.23225e-05 0)
(-3.60216e-05 5.10594e-05 0)
(-2.97152e-05 4.17601e-05 0)
(-2.44662e-05 3.40971e-05 0)
(-2.01068e-05 2.77942e-05 0)
(-1.64939e-05 2.26196e-05 0)
(-1.35058e-05 1.83791e-05 0)
(-1.10395e-05 1.49102e-05 0)
(-9.00805e-06 1.20775e-05 0)
(-7.33797e-06 9.76825e-06 0)
(-5.96763e-06 7.88883e-06 0)
(-4.84533e-06 6.36176e-06 0)
(-3.92784e-06 5.12298e-06 0)
(-3.17912e-06 4.11964e-06 0)
(-2.56919e-06 3.30825e-06 0)
(-2.07317e-06 2.65307e-06 0)
(-1.67045e-06 2.12482e-06 0)
(-1.34403e-06 1.69952e-06 0)
(-1.07986e-06 1.3576e-06 0)
(-8.66401e-07 1.0831e-06 0)
(-6.94192e-07 8.63032e-07 0)
(-5.55466e-07 6.86834e-07 0)
(-4.43878e-07 5.45951e-07 0)
(-3.54247e-07 4.33452e-07 0)
(-2.82356e-07 3.43733e-07 0)
(-2.24773e-07 2.72272e-07 0)
(-1.78713e-07 2.15423e-07 0)
(-1.4192e-07 1.70254e-07 0)
(-1.12568e-07 1.34409e-07 0)
(-8.91814e-08 1.05995e-07 0)
(-7.05724e-08 8.34993e-08 0)
(-5.57832e-08 6.57087e-08 0)
(-4.40439e-08 5.1655e-08 0)
(-3.47369e-08 4.05657e-08 0)
(-2.73669e-08 3.18249e-08 0)
(-2.15376e-08 2.49428e-08 0)
(-1.69321e-08 1.95297e-08 0)
(-1.32977e-08 1.52766e-08 0)
(-1.04327e-08 1.19384e-08 0)
(-8.1767e-09 9.32078e-09 0)
(-6.4022e-09 7.27036e-09 0)
(-5.00789e-09 5.66579e-09 0)
(-3.91346e-09 4.41135e-09 0)
(-3.05529e-09 3.43156e-09 0)
(-2.38306e-09 2.66705e-09 0)
(-1.85701e-09 2.07103e-09 0)
(-1.44576e-09 1.60682e-09 0)
(-1.12456e-09 1.2456e-09 0)
(-8.73941e-10 9.64767e-10 0)
(-6.78582e-10 7.46627e-10 0)
(-5.26428e-10 5.77328e-10 0)
(-4.08043e-10 4.46058e-10 0)
(-3.16006e-10 3.44354e-10 0)
(-2.44537e-10 2.65624e-10 0)
(-1.89071e-10 2.04733e-10 0)
(-1.4607e-10 1.57668e-10 0)
(-1.12755e-10 1.21322e-10 0)
(-8.69745e-11 9.32836e-11 0)
(-6.70492e-11 7.16595e-11 0)
(-5.16585e-11 5.49949e-11 0)
(-3.97824e-11 4.21644e-11 0)
(-3.06275e-11 3.22799e-11 0)
(-2.35814e-11 2.467e-11 0)
(-1.81852e-11 1.881e-11 0)
(-1.40483e-11 1.42875e-11 0)
(-1.08999e-11 1.07852e-11 0)
(-8.52026e-12 8.06386e-12 0)
(-6.74104e-12 5.92098e-12 0)
(-5.4597e-12 4.21254e-12 0)
(-4.55911e-12 2.80185e-12 0)
(-3.99532e-12 1.6035e-12 0)
(-3.71709e-12 5.22296e-13 0)
(-0.00452641 0.0072665 0)
(-0.00400899 0.00632258 0)
(-0.00354079 0.00548778 0)
(-0.00311857 0.00475157 0)
(-0.00273903 0.00410411 0)
(-0.00239901 0.0035363 0)
(-0.00209539 0.00303971 0)
(-0.00182516 0.00260661 0)
(-0.00158543 0.00222991 0)
(-0.00137345 0.00190317 0)
(-0.00118663 0.00162053 0)
(-0.00102248 0.00137668 0)
(-0.000878726 0.00116687 0)
(-0.000753222 0.000986805 0)
(-0.000643989 0.000832674 0)
(-0.000549199 0.000701078 0)
(-0.000467189 0.000589004 0)
(-0.000396449 0.000493793 0)
(-0.00033561 0.000413104 0)
(-0.000283435 0.000344886 0)
(-0.00023881 0.000287347 0)
(-0.000200747 0.00023893 0)
(-0.000168367 0.00019828 0)
(-0.000140896 0.000164228 0)
(-0.00011765 0.000135767 0)
(-9.80298e-05 0.000112029 0)
(-8.15122e-05 9.2272e-05 0)
(-6.76396e-05 7.58625e-05 0)
(-5.60158e-05 6.22608e-05 0)
(-4.62984e-05 5.10088e-05 0)
(-3.81927e-05 4.17187e-05 0)
(-3.14462e-05 3.40633e-05 0)
(-2.5843e-05 2.77666e-05 0)
(-2.11993e-05 2.25972e-05 0)
(-1.73588e-05 1.83609e-05 0)
(-1.41889e-05 1.48955e-05 0)
(-1.15779e-05 1.20656e-05 0)
(-9.43141e-06 9.75861e-06 0)
(-7.67014e-06 7.88106e-06 0)
(-6.22765e-06 6.35551e-06 0)
(-5.04841e-06 5.11795e-06 0)
(-4.0861e-06 4.1156e-06 0)
(-3.30216e-06 3.30501e-06 0)
(-2.66463e-06 2.65047e-06 0)
(-2.14702e-06 2.12274e-06 0)
(-1.72747e-06 1.69786e-06 0)
(-1.38793e-06 1.35628e-06 0)
(-1.11358e-06 1.08205e-06 0)
(-8.92242e-07 8.62196e-07 0)
(-7.13939e-07 6.86171e-07 0)
(-5.70515e-07 5.45425e-07 0)
(-4.55313e-07 4.33036e-07 0)
(-3.62912e-07 3.43404e-07 0)
(-2.889e-07 2.72012e-07 0)
(-2.297e-07 2.15219e-07 0)
(-1.8241e-07 1.70093e-07 0)
(-1.44684e-07 1.34282e-07 0)
(-1.14625e-07 1.05896e-07 0)
(-9.07074e-08 8.34215e-08 0)
(-7.16987e-08 6.56478e-08 0)
(-5.66102e-08 5.16074e-08 0)
(-4.46479e-08 4.05286e-08 0)
(-3.51752e-08 3.1796e-08 0)
(-2.76827e-08 2.49203e-08 0)
(-2.17632e-08 1.95122e-08 0)
(-1.70918e-08 1.52631e-08 0)
(-1.34094e-08 1.19278e-08 0)
(-1.05098e-08 9.31263e-09 0)
(-8.22898e-09 7.26405e-09 0)
(-6.43684e-09 5.66092e-09 0)
(-5.03014e-09 4.40759e-09 0)
(-3.92711e-09 3.42868e-09 0)
(-3.06307e-09 2.66482e-09 0)
(-2.38692e-09 2.06934e-09 0)
(-1.85832e-09 1.60552e-09 0)
(-1.44547e-09 1.2446e-09 0)
(-1.12334e-09 9.64003e-10 0)
(-8.72232e-10 7.46042e-10 0)
(-6.76659e-10 5.76886e-10 0)
(-5.24488e-10 4.45724e-10 0)
(-4.06193e-10 3.441e-10 0)
(-3.14322e-10 2.65427e-10 0)
(-2.43031e-10 2.04586e-10 0)
(-1.87758e-10 1.57565e-10 0)
(-1.4494e-10 1.21248e-10 0)
(-1.11801e-10 9.32226e-11 0)
(-8.61838e-11 7.16156e-11 0)
(-6.64024e-11 5.49631e-11 0)
(-5.11411e-11 4.21351e-11 0)
(-3.93723e-11 3.22652e-11 0)
(-3.032e-11 2.46602e-11 0)
(-2.33715e-11 1.87978e-11 0)
(-1.80607e-11 1.42826e-11 0)
(-1.40068e-11 1.07779e-11 0)
(-1.09463e-11 8.06386e-12 0)
(-8.67158e-12 5.92098e-12 0)
(-7.01683e-12 4.20278e-12 0)
(-5.86241e-12 2.80429e-12 0)
(-5.13266e-12 1.60106e-12 0)
(-4.78609e-12 5.24737e-13 0)
(-0.00553 0.00725752 0)
(-0.00489785 0.00631476 0)
(-0.00432586 0.005481 0)
(-0.00381001 0.0047457 0)
(-0.00334633 0.00409904 0)
(-0.00293092 0.00353193 0)
(-0.00255997 0.00303595 0)
(-0.00222983 0.00260339 0)
(-0.00193695 0.00222716 0)
(-0.00167797 0.00190082 0)
(-0.00144973 0.00161853 0)
(-0.00124919 0.00137498 0)
(-0.00107356 0.00116543 0)
(-0.000920226 0.000985586 0)
(-0.000786773 0.000831646 0)
(-0.000670966 0.000700212 0)
(-0.000570774 0.000588276 0)
(-0.00048435 0.000493183 0)
(-0.000410022 0.000412593 0)
(-0.000346278 0.000344459 0)
(-0.000291759 0.000286992 0)
(-0.000245256 0.000238634 0)
(-0.000205697 0.000198035 0)
(-0.000172135 0.000164026 0)
(-0.000143735 0.000135599 0)
(-0.000119765 0.000111891 0)
(-9.95854e-05 9.2158e-05 0)
(-8.2637e-05 7.57687e-05 0)
(-6.84358e-05 6.21837e-05 0)
(-5.65637e-05 5.09456e-05 0)
(-4.66607e-05 4.1667e-05 0)
(-3.84183e-05 3.40211e-05 0)
(-3.15729e-05 2.77322e-05 0)
(-2.58996e-05 2.25692e-05 0)
(-2.12075e-05 1.83382e-05 0)
(-1.73349e-05 1.48771e-05 0)
(-1.41449e-05 1.20507e-05 0)
(-1.15225e-05 9.74657e-06 0)
(-9.37074e-06 7.87134e-06 0)
(-7.60844e-06 6.34768e-06 0)
(-6.16774e-06 5.11165e-06 0)
(-4.99206e-06 4.11054e-06 0)
(-4.03432e-06 3.30095e-06 0)
(-3.25543e-06 2.64723e-06 0)
(-2.62306e-06 2.12014e-06 0)
(-2.11049e-06 1.69579e-06 0)
(-1.69567e-06 1.35463e-06 0)
(-1.36049e-06 1.08073e-06 0)
(-1.09007e-06 8.61148e-07 0)
(-8.72237e-07 6.85339e-07 0)
(-6.97012e-07 5.44766e-07 0)
(-5.56268e-07 4.32514e-07 0)
(-4.43379e-07 3.42991e-07 0)
(-3.52958e-07 2.71686e-07 0)
(-2.80632e-07 2.14962e-07 0)
(-2.22856e-07 1.69891e-07 0)
(-1.76765e-07 1.34123e-07 0)
(-1.40042e-07 1.05771e-07 0)
(-1.10821e-07 8.33234e-08 0)
(-8.75972e-08 6.5571e-08 0)
(-6.91631e-08 5.15473e-08 0)
(-5.45483e-08 4.04816e-08 0)
(-4.29752e-08 3.17594e-08 0)
(-3.38213e-08 2.48917e-08 0)
(-2.65893e-08 1.949e-08 0)
(-2.08821e-08 1.52458e-08 0)
(-1.63831e-08 1.19144e-08 0)
(-1.28405e-08 9.30224e-09 0)
(-1.00539e-08 7.25601e-09 0)
(-7.86435e-09 5.6547e-09 0)
(-6.1457e-09 4.40279e-09 0)
(-4.79806e-09 3.42498e-09 0)
(-3.74241e-09 2.66197e-09 0)
(-2.91631e-09 2.06714e-09 0)
(-2.27049e-09 1.60383e-09 0)
(-1.76607e-09 1.24331e-09 0)
(-1.3725e-09 9.63012e-10 0)
(-1.0657e-09 7.45283e-10 0)
(-8.26753e-10 5.76312e-10 0)
(-6.40833e-10 4.45277e-10 0)
(-4.96303e-10 3.43759e-10 0)
(-3.84044e-10 2.65175e-10 0)
(-2.96933e-10 2.04391e-10 0)
(-2.29408e-10 1.57409e-10 0)
(-1.77095e-10 1.21136e-10 0)
(-1.36612e-10 9.3142e-11 0)
(-1.05306e-10 7.15497e-11 0)
(-8.1139e-11 5.49143e-11 0)
(-6.24827e-11 4.2101e-11 0)
(-4.81049e-11 3.22384e-11 0)
(-3.70464e-11 2.46358e-11 0)
(-2.85579e-11 1.8788e-11 0)
(-2.20682e-11 1.42753e-11 0)
(-1.71186e-11 1.07803e-11 0)
(-1.33796e-11 8.05898e-12 0)
(-1.06021e-11 5.9161e-12 0)
(-8.57396e-12 4.20034e-12 0)
(-7.16571e-12 2.80429e-12 0)
(-6.27244e-12 1.59618e-12 0)
(-5.84044e-12 5.19856e-13 0)
(-0.00653222 0.00724675 0)
(-0.00578551 0.00630539 0)
(-0.00510986 0.00547287 0)
(-0.00450052 0.00473866 0)
(-0.00395281 0.00409296 0)
(-0.0034621 0.00352669 0)
(-0.00302393 0.00303145 0)
(-0.00263395 0.00259952 0)
(-0.00228799 0.00222385 0)
(-0.00198208 0.001898 0)
(-0.00171247 0.00161613 0)
(-0.00147559 0.00137294 0)
(-0.00126812 0.0011637 0)
(-0.001087 0.000984124 0)
(-0.000929363 0.000830412 0)
(-0.000792568 0.000699173 0)
(-0.000674218 0.000587403 0)
(-0.000572132 0.00049245 0)
(-0.000484333 0.000411981 0)
(-0.000409035 0.000343948 0)
(-0.000344635 0.000286566 0)
(-0.000289704 0.000238281 0)
(-0.000242976 0.000197741 0)
(-0.000203331 0.000163783 0)
(-0.000169785 0.000135398 0)
(-0.000141471 0.000111725 0)
(-0.000117634 9.20212e-05 0)
(-9.76139e-05 7.56562e-05 0)
(-8.08389e-05 6.20913e-05 0)
(-6.6815e-05 5.08699e-05 0)
(-5.51172e-05 4.16051e-05 0)
(-4.5381e-05 3.39705e-05 0)
(-3.72949e-05 2.7691e-05 0)
(-3.05934e-05 2.25357e-05 0)
(-2.50509e-05 1.8311e-05 0)
(-2.04765e-05 1.4855e-05 0)
(-1.67085e-05 1.20328e-05 0)
(-1.36108e-05 9.73212e-06 0)
(-1.1069e-05 7.85969e-06 0)
(-8.98734e-06 6.33829e-06 0)
(-7.28555e-06 5.1041e-06 0)
(-5.8968e-06 4.10447e-06 0)
(-4.76548e-06 3.29608e-06 0)
(-3.84544e-06 2.64333e-06 0)
(-3.09846e-06 2.11702e-06 0)
(-2.49298e-06 1.6933e-06 0)
(-2.00299e-06 1.35264e-06 0)
(-1.60706e-06 1.07915e-06 0)
(-1.28764e-06 8.59889e-07 0)
(-1.03032e-06 6.84339e-07 0)
(-8.2334e-07 5.43973e-07 0)
(-6.57088e-07 4.31885e-07 0)
(-5.23739e-07 3.42494e-07 0)
(-4.1693e-07 2.71293e-07 0)
(-3.31495e-07 2.14652e-07 0)
(-2.63249e-07 1.69647e-07 0)
(-2.08804e-07 1.33931e-07 0)
(-1.65425e-07 1.0562e-07 0)
(-1.30907e-07 8.3205e-08 0)
(-1.03475e-07 6.54781e-08 0)
(-8.16996e-08 5.14747e-08 0)
(-6.44359e-08 4.04248e-08 0)
(-5.07651e-08 3.1715e-08 0)
(-3.9952e-08 2.48571e-08 0)
(-3.14092e-08 1.94631e-08 0)
(-2.46674e-08 1.52248e-08 0)
(-1.9353e-08 1.18981e-08 0)
(-1.51682e-08 9.2896e-09 0)
(-1.18765e-08 7.24622e-09 0)
(-9.29006e-09 5.64713e-09 0)
(-7.25987e-09 4.39693e-09 0)
(-5.66793e-09 3.42045e-09 0)
(-4.42091e-09 2.65848e-09 0)
(-3.44506e-09 2.06444e-09 0)
(-2.68215e-09 1.60177e-09 0)
(-2.08629e-09 1.24172e-09 0)
(-1.62137e-09 9.61799e-10 0)
(-1.25893e-09 7.44355e-10 0)
(-9.76667e-10 5.7559e-10 0)
(-7.57037e-10 4.44733e-10 0)
(-5.86297e-10 3.43346e-10 0)
(-4.5369e-10 2.6486e-10 0)
(-3.50795e-10 2.04152e-10 0)
(-2.71008e-10 1.57228e-10 0)
(-2.09211e-10 1.20997e-10 0)
(-1.6139e-10 9.30346e-11 0)
(-1.24411e-10 7.14716e-11 0)
(-9.58536e-11 5.48533e-11 0)
(-7.38122e-11 4.20619e-11 0)
(-5.68351e-11 3.22042e-11 0)
(-4.37728e-11 2.46187e-11 0)
(-3.37394e-11 1.87709e-11 0)
(-2.60684e-11 1.42582e-11 0)
(-2.02231e-11 1.07681e-11 0)
(-1.58129e-11 8.04922e-12 0)
(-1.25253e-11 5.90878e-12 0)
(-1.01262e-11 4.20766e-12 0)
(-8.46413e-12 2.80185e-12 0)
(-7.41954e-12 1.60838e-12 0)
(-6.90212e-12 5.22296e-13 0)
(-0.00753284 0.0072342 0)
(-0.00667174 0.00629446 0)
(-0.00589259 0.00546338 0)
(-0.00518992 0.00473045 0)
(-0.0045583 0.00408587 0)
(-0.00399244 0.00352058 0)
(-0.00348714 0.00302619 0)
(-0.00303742 0.00259502 0)
(-0.00263847 0.00222 0)
(-0.0022857 0.00189471 0)
(-0.00197479 0.00161333 0)
(-0.00170162 0.00137056 0)
(-0.00146238 0.00116168 0)
(-0.00125351 0.000982419 0)
(-0.00107172 0.000828973 0)
(-0.000913975 0.000697962 0)
(-0.000777496 0.000586385 0)
(-0.000659773 0.000491597 0)
(-0.000558525 0.000411267 0)
(-0.000471692 0.000343352 0)
(-0.000397427 0.00028607 0)
(-0.000334081 0.000237868 0)
(-0.000280195 0.000197399 0)
(-0.000234478 0.000163499 0)
(-0.000195793 0.000135164 0)
(-0.000163142 0.000111531 0)
(-0.000135654 9.18617e-05 0)
(-0.000112567 7.5525e-05 0)
(-9.32221e-05 6.19836e-05 0)
(-7.70499e-05 5.07816e-05 0)
(-6.35601e-05 4.15329e-05 0)
(-5.23324e-05 3.39115e-05 0)
(-4.30076e-05 2.7643e-05 0)
(-3.52796e-05 2.24966e-05 0)
(-2.88882e-05 1.82792e-05 0)
(-2.3613e-05 1.48293e-05 0)
(-1.92678e-05 1.2012e-05 0)
(-1.56957e-05 9.71528e-06 0)
(-1.27646e-05 7.84609e-06 0)
(-1.0364e-05 6.32733e-06 0)
(-8.40156e-06 5.09528e-06 0)
(-6.80008e-06 4.09739e-06 0)
(-5.49546e-06 3.2904e-06 0)
(-4.43449e-06 2.63877e-06 0)
(-3.57309e-06 2.11338e-06 0)
(-2.87487e-06 1.69039e-06 0)
(-2.30981e-06 1.35032e-06 0)
(-1.85324e-06 1.0773e-06 0)
(-1.48489e-06 8.58418e-07 0)
(-1.18815e-06 6.8317e-07 0)
(-9.49466e-07 5.43045e-07 0)
(-7.57747e-07 4.3115e-07 0)
(-6.03971e-07 3.41913e-07 0)
(-4.80801e-07 2.70834e-07 0)
(-3.82278e-07 2.14289e-07 0)
(-3.03577e-07 1.69361e-07 0)
(-2.40792e-07 1.33706e-07 0)
(-1.90768e-07 1.05443e-07 0)
(-1.50963e-07 8.30661e-08 0)
(-1.19328e-07 6.53692e-08 0)
(-9.42165e-08 5.13894e-08 0)
(-7.4308e-08 4.03581e-08 0)
(-5.85429e-08 3.16629e-08 0)
(-4.60733e-08 2.48164e-08 0)
(-3.62216e-08 1.94314e-08 0)
(-2.8447e-08 1.52001e-08 0)
(-2.23183e-08 1.18789e-08 0)
(-1.74924e-08 9.27469e-09 0)
(-1.36964e-08 7.23465e-09 0)
(-1.07136e-08 5.63816e-09 0)
(-8.37238e-09 4.38999e-09 0)
(-6.53651e-09 3.41509e-09 0)
(-5.09842e-09 2.65434e-09 0)
(-3.97302e-09 2.06125e-09 0)
(-3.09321e-09 1.5993e-09 0)
(-2.40605e-09 1.23983e-09 0)
(-1.86987e-09 9.60337e-10 0)
(-1.4519e-09 7.4324e-10 0)
(-1.12637e-09 5.74738e-10 0)
(-8.73082e-10 4.44076e-10 0)
(-6.76171e-10 3.42846e-10 0)
(-5.23241e-10 2.64472e-10 0)
(-4.04567e-10 2.03859e-10 0)
(-3.1256e-10 1.57011e-10 0)
(-2.41289e-10 1.20831e-10 0)
(-1.86138e-10 9.29053e-11 0)
(-1.43487e-10 7.13764e-11 0)
(-1.10549e-10 5.47874e-11 0)
(-8.51318e-11 4.20034e-11 0)
(-6.55482e-11 3.21627e-11 0)
(-5.04846e-11 2.45845e-11 0)
(-3.89135e-11 1.87441e-11 0)
(-3.00686e-11 1.42411e-11 0)
(-2.33325e-11 1.07583e-11 0)
(-1.82364e-11 8.03213e-12 0)
(-1.44412e-11 5.90634e-12 0)
(-1.16833e-11 4.20278e-12 0)
(-9.76011e-12 2.79697e-12 0)
(-8.55687e-12 1.60594e-12 0)
(-7.97112e-12 5.19856e-13 0)
(-0.0085316 0.00721986 0)
(-0.00755633 0.00628198 0)
(-0.00667387 0.00545255 0)
(-0.00587803 0.00472107 0)
(-0.00516267 0.00407777 0)
(-0.00452178 0.0035136 0)
(-0.00394949 0.0030202 0)
(-0.00344015 0.00258987 0)
(-0.0029883 0.0022156 0)
(-0.00258876 0.00189096 0)
(-0.00223662 0.00161013 0)
(-0.00192723 0.00136785 0)
(-0.00165627 0.00115938 0)
(-0.00141971 0.000980471 0)
(-0.00121382 0.00082733 0)
(-0.00103516 0.000696578 0)
(-0.000880583 0.000585223 0)
(-0.000747251 0.000490622 0)
(-0.000632578 0.000410451 0)
(-0.000534232 0.000342672 0)
(-0.00045012 0.000285503 0)
(-0.000378375 0.000237396 0)
(-0.000317345 0.000197008 0)
(-0.000265567 0.000163175 0)
(-0.000221753 0.000134896 0)
(-0.000184773 0.00011131 0)
(-0.00015364 9.16795e-05 0)
(-0.000127492 7.53751e-05 0)
(-0.000105582 6.18606e-05 0)
(-8.72657e-05 5.06808e-05 0)
(-7.19873e-05 4.14505e-05 0)
(-5.92709e-05 3.38442e-05 0)
(-4.87098e-05 2.75881e-05 0)
(-3.99571e-05 2.2452e-05 0)
(-3.27183e-05 1.8243e-05 0)
(-2.67437e-05 1.47999e-05 0)
(-2.18224e-05 1.19882e-05 0)
(-1.77767e-05 9.69604e-06 0)
(-1.4457e-05 7.83056e-06 0)
(-1.17382e-05 6.31481e-06 0)
(-9.51549e-06 5.08521e-06 0)
(-7.70168e-06 4.0893e-06 0)
(-6.2241e-06 3.2839e-06 0)
(-5.02245e-06 2.63357e-06 0)
(-4.04685e-06 2.10922e-06 0)
(-3.25605e-06 1.68706e-06 0)
(-2.61607e-06 1.34766e-06 0)
(-2.09896e-06 1.07519e-06 0)
(-1.68177e-06 8.56735e-07 0)
(-1.34569e-06 6.81833e-07 0)
(-1.07536e-06 5.41984e-07 0)
(-8.5822e-07 4.30309e-07 0)
(-6.84056e-07 3.41247e-07 0)
(-5.44554e-07 2.70308e-07 0)
(-4.32968e-07 2.13874e-07 0)
(-3.43832e-07 1.69033e-07 0)
(-2.72721e-07 1.33448e-07 0)
(-2.16065e-07 1.0524e-07 0)
(-1.70981e-07 8.29067e-08 0)
(-1.35152e-07 6.52442e-08 0)
(-1.06711e-07 5.12914e-08 0)
(-8.41624e-08 4.02814e-08 0)
(-6.63067e-08 3.16029e-08 0)
(-5.21836e-08 2.47696e-08 0)
(-4.10255e-08 1.93949e-08 0)
(-3.22198e-08 1.51717e-08 0)
(-2.52784e-08 1.18568e-08 0)
(-1.98125e-08 9.2575e-09 0)
(-1.5513e-08 7.2213e-09 0)
(-1.21347e-08 5.62781e-09 0)
(-9.48294e-09 4.38198e-09 0)
(-7.40359e-09 3.40889e-09 0)
(-5.77475e-09 2.64954e-09 0)
(-4.50009e-09 2.05755e-09 0)
(-3.50357e-09 1.59645e-09 0)
(-2.72526e-09 1.23763e-09 0)
(-2.11796e-09 9.5865e-10 0)
(-1.64454e-09 7.41939e-10 0)
(-1.27583e-09 5.73747e-10 0)
(-9.88931e-10 4.43317e-10 0)
(-7.65903e-10 3.4226e-10 0)
(-5.92679e-10 2.64026e-10 0)
(-4.58256e-10 2.03512e-10 0)
(-3.54041e-10 1.56747e-10 0)
(-2.73315e-10 1.20628e-10 0)
(-2.10842e-10 9.27613e-11 0)
(-1.62532e-10 7.12593e-11 0)
(-1.25227e-10 5.46995e-11 0)
(-9.64344e-11 4.19399e-11 0)
(-7.42539e-11 3.21139e-11 0)
(-5.7189e-11 2.45504e-11 0)
(-4.40852e-11 1.87172e-11 0)
(-3.40542e-11 1.42118e-11 0)
(-2.64297e-11 1.07437e-11 0)
(-2.06649e-11 8.02725e-12 0)
(-1.63571e-11 5.89658e-12 0)
(-1.32356e-11 4.19057e-12 0)
(-1.1061e-11 2.79209e-12 0)
(-9.69665e-12 1.59618e-12 0)
(-9.02791e-12 5.17415e-13 0)
(-0.00952825 0.00720374 0)
(-0.00843905 0.00626796 0)
(-0.00745351 0.00544038 0)
(-0.0065647 0.00471053 0)
(-0.00576577 0.00406866 0)
(-0.00505001 0.00350575 0)
(-0.00441087 0.00301345 0)
(-0.00384202 0.00258409 0)
(-0.00333738 0.00221065 0)
(-0.00289117 0.00188673 0)
(-0.0024979 0.00160653 0)
(-0.00215237 0.00136479 0)
(-0.00184975 0.00115679 0)
(-0.00158556 0.000978282 0)
(-0.00135562 0.000825482 0)
(-0.00115608 0.000695022 0)
(-0.000983452 0.000583916 0)
(-0.000834545 0.000489527 0)
(-0.000706476 0.000409535 0)
(-0.00059664 0.000341906 0)
(-0.000502702 0.000284866 0)
(-0.000422576 0.000236866 0)
(-0.000354417 0.000196568 0)
(-0.00029659 0.000162811 0)
(-0.000247658 0.000134595 0)
(-0.000206359 0.000111061 0)
(-0.000171589 9.14747e-05 0)
(-0.000142386 7.52067e-05 0)
(-0.000117916 6.17224e-05 0)
(-9.746e-05 5.05675e-05 0)
(-8.03967e-05 4.13578e-05 0)
(-6.61948e-05 3.37686e-05 0)
(-5.43999e-05 2.75265e-05 0)
(-4.46247e-05 2.24018e-05 0)
(-3.65403e-05 1.82022e-05 0)
(-2.98678e-05 1.47668e-05 0)
(-2.43717e-05 1.19614e-05 0)
(-1.98533e-05 9.6744e-06 0)
(-1.61458e-05 7.8131e-06 0)
(-1.31094e-05 6.30074e-06 0)
(-1.06271e-05 5.07388e-06 0)
(-8.60139e-06 4.08019e-06 0)
(-6.95119e-06 3.2766e-06 0)
(-5.60917e-06 2.62771e-06 0)
(-4.5196e-06 2.10453e-06 0)
(-3.63642e-06 1.68332e-06 0)
(-2.92169e-06 1.34468e-06 0)
(-2.34417e-06 1.07281e-06 0)
(-1.87824e-06 8.5484e-07 0)
(-1.5029e-06 6.80327e-07 0)
(-1.20099e-06 5.40789e-07 0)
(-9.58484e-07 4.29362e-07 0)
(-7.63973e-07 3.40497e-07 0)
(-6.08174e-07 2.69715e-07 0)
(-4.83553e-07 2.13405e-07 0)
(-3.84003e-07 1.68664e-07 0)
(-3.04585e-07 1.33157e-07 0)
(-2.41309e-07 1.05011e-07 0)
(-1.90959e-07 8.27268e-08 0)
(-1.50943e-07 6.5103e-08 0)
(-1.19179e-07 5.11807e-08 0)
(-9.39965e-08 4.01947e-08 0)
(-7.40546e-08 3.15351e-08 0)
(-5.82814e-08 2.47167e-08 0)
(-4.58195e-08 1.93535e-08 0)
(-3.5985e-08 1.51395e-08 0)
(-2.82325e-08 1.18317e-08 0)
(-2.21279e-08 9.23799e-09 0)
(-1.73261e-08 7.20615e-09 0)
(-1.3553e-08 5.61605e-09 0)
(-1.05913e-08 4.37287e-09 0)
(-8.26895e-09 3.40183e-09 0)
(-6.44975e-09 2.64409e-09 0)
(-5.02611e-09 2.05334e-09 0)
(-3.91313e-09 1.5932e-09 0)
(-3.04385e-09 1.23512e-09 0)
(-2.36556e-09 9.56722e-10 0)
(-1.83681e-09 7.40455e-10 0)
(-1.42499e-09 5.72605e-10 0)
(-1.10457e-09 4.42441e-10 0)
(-8.55463e-10 3.41587e-10 0)
(-6.61984e-10 2.63511e-10 0)
(-5.1185e-10 2.0312e-10 0)
(-3.95444e-10 1.56445e-10 0)
(-3.05275e-10 1.20399e-10 0)
(-2.35509e-10 9.25758e-11 0)
(-1.81544e-10 7.11275e-11 0)
(-1.39868e-10 5.45922e-11 0)
(-1.0772e-10 4.18618e-11 0)
(-8.29402e-11 3.20504e-11 0)
(-6.38812e-11 2.44967e-11 0)
(-4.92496e-11 1.86831e-11 0)
(-3.80422e-11 1.41923e-11 0)
(-2.95171e-11 1.07095e-11 0)
(-2.30835e-11 8.01749e-12 0)
(-1.82804e-11 5.88437e-12 0)
(-1.47878e-11 4.18813e-12 0)
(-1.23569e-11 2.78965e-12 0)
(-1.08291e-11 1.5913e-12 0)
(-1.00823e-11 5.19856e-13 0)
(-0.0105226 0.00718584 0)
(-0.00931969 0.00625238 0)
(-0.0082313 0.00542686 0)
(-0.00724974 0.00469882 0)
(-0.00636745 0.00405855 0)
(-0.00557699 0.00349704 0)
(-0.00487115 0.00300596 0)
(-0.00424295 0.00257767 0)
(-0.00368565 0.00220516 0)
(-0.00319287 0.00188205 0)
(-0.00275856 0.00160254 0)
(-0.00237697 0.0013614 0)
(-0.00204278 0.00115391 0)
(-0.00175102 0.000975851 0)
(-0.00149708 0.000823431 0)
(-0.00127672 0.000693295 0)
(-0.00108608 0.000582465 0)
(-0.000921632 0.00048831 0)
(-0.000780199 0.000408517 0)
(-0.000658901 0.000341057 0)