/*--------------------------------*- C++ -*----------------------------------*\
| =========                 |                                                 |
| \\      /  F ield         | OpenFOAM: The Open Source CFD Toolbox           |
|  \\    /   O peration     | Version:  2406                                  |
|   \\  /    A nd           | Website:  www.openfoam.com                      |
|    \\/     M anipulation  |                                                 |
\*---------------------------------------------------------------------------*/
FoamFile
{
    version     2.0;
    format      ascii;
    arch        "LSB;label=32;scalar=64";
    class       volScalarField;
    location    "10";
    object      gradTx;
}
// * * * * * * * * * * * * * * * * * * * * * * * * * * * * * * * * * * * * * //

dimensions      [0 -1 0 1 0 0 0];

internalField   nonuniform List<scalar> 
20000
(
-2.28968
-2.02794
-1.79112
-1.57754
-1.38554
-1.21353
-1.05996
-0.923265
-0.801976
-0.694754
-0.60027
-0.51723
-0.444495
-0.38101
-0.325764
-0.277819
-0.236331
-0.200542
-0.169765
-0.143373
-0.120802
-0.10155
-0.0851704
-0.0712731
-0.0595132
-0.0495879
-0.0412322
-0.0342149
-0.0283352
-0.0234199
-0.0193198
-0.0159072
-0.0130729
-0.0107238
-0.00878107
-0.00717758
-0.00585676
-0.00477092
-0.00387996
-0.00315027
-0.00255374
-0.00206695
-0.00167039
-0.0013479
-0.00108607
-0.000873834
-0.00070208
-0.0005633
-0.000451336
-0.000361141
-0.000288591
-0.000230316
-0.000183575
-0.000146137
-0.000116191
-9.22693e-05
-7.31857e-05
-5.7981e-05
-4.58823e-05
-3.6267e-05
-2.86347e-05
-2.25838e-05
-1.77922e-05
-1.40022e-05
-1.1008e-05
-8.64513e-06
-6.78249e-06
-5.31583e-06
-4.16218e-06
-3.25566e-06
-2.54412e-06
-1.98626e-06
-1.54922e-06
-1.2072e-06
-9.39893e-07
-7.3106e-07
-5.68123e-07
-4.41114e-07
-3.42215e-07
-2.65243e-07
-2.05425e-07
-1.58951e-07
-1.22913e-07
-9.49352e-08
-7.32969e-08
-5.65437e-08
-4.35874e-08
-3.35842e-08
-2.5846e-08
-1.99063e-08
-1.53322e-08
-1.18239e-08
-9.13714e-09
-7.06102e-09
-5.54001e-09
-4.38538e-09
-3.54161e-09
-2.9643e-09
-2.59792e-09
-2.40918e-09
-6.86849
-6.08331
-5.37288
-4.73221
-4.15629
-3.64032
-3.17958
-2.76954
-2.40576
-2.08411
-1.80064
-1.55155
-1.33339
-1.14295
-0.977212
-0.83338
-0.708929
-0.601577
-0.509256
-0.430087
-0.362377
-0.304623
-0.255489
-0.213801
-0.178525
-0.148752
-0.123687
-0.102637
-0.0849989
-0.0702539
-0.0579546
-0.0477175
-0.0392153
-0.0321688
-0.026341
-0.0215309
-0.0175688
-0.0143116
-0.0116389
-0.00945002
-0.0076606
-0.00620034
-0.00501078
-0.00404337
-0.00325794
-0.00262129
-0.00210607
-0.00168977
-0.0013539
-0.00108334
-0.000865704
-0.000690895
-0.000550683
-0.000438377
-0.000348546
-0.000276787
-0.000219541
-0.000173931
-0.000137637
-0.000108793
-8.58983e-05
-6.77467e-05
-5.3373e-05
-4.20041e-05
-3.30221e-05
-2.59338e-05
-2.03463e-05
-1.59465e-05
-1.24858e-05
-9.76649e-06
-7.63208e-06
-5.95847e-06
-4.64745e-06
-3.6215e-06
-2.81947e-06
-2.19309e-06
-1.70431e-06
-1.32333e-06
-1.0266e-06
-7.95719e-07
-6.16251e-07
-4.76863e-07
-3.68683e-07
-2.84828e-07
-2.19913e-07
-1.6962e-07
-1.3074e-07
-1.00753e-07
-7.75713e-08
-5.973e-08
-4.59743e-08
-3.54605e-08
-2.73892e-08
-2.12608e-08
-1.65978e-08
-1.3145e-08
-1.06359e-08
-8.89289e-09
-7.77156e-09
-7.26086e-09
-11.4456
-10.1372
-8.95332
-7.88569
-6.92601
-6.06621
-5.29844
-4.61514
-4.00896
-3.47295
-3.00055
-2.58548
-2.22196
-1.90461
-1.62842
-1.38873
-1.18135
-1.00247
-0.848626
-0.716697
-0.603864
-0.507619
-0.425742
-0.356274
-0.297492
-0.24788
-0.206112
-0.171034
-0.141642
-0.117071
-0.0965751
-0.079516
-0.0653478
-0.0536056
-0.0438942
-0.0358788
-0.0292764
-0.0238486
-0.019395
-0.0157474
-0.0127656
-0.0103322
-0.00834992
-0.00673784
-0.00542901
-0.00436811
-0.00350955
-0.00281582
-0.00225613
-0.00180527
-0.00144261
-0.00115131
-0.000917658
-0.000730512
-0.000580817
-0.000461239
-0.000365844
-0.000289839
-0.000229359
-0.000181294
-0.000143142
-0.000112894
-8.89415e-05
-6.99962e-05
-5.50286e-05
-4.32166e-05
-3.39055e-05
-2.65737e-05
-2.08066e-05
-1.62752e-05
-1.27184e-05
-9.92938e-06
-7.74469e-06
-6.03504e-06
-4.69853e-06
-3.65467e-06
-2.84018e-06
-2.20528e-06
-1.71082e-06
-1.32606e-06
-1.02697e-06
-7.94687e-07
-6.14442e-07
-4.74665e-07
-3.6644e-07
-2.82652e-07
-2.17892e-07
-1.67888e-07
-1.29285e-07
-9.95204e-08
-7.66609e-08
-5.90972e-08
-4.56413e-08
-3.54161e-08
-2.76668e-08
-2.19158e-08
-1.77303e-08
-1.47993e-08
-1.29785e-08
-1.20903e-08
-16.0199
-14.1886
-12.5316
-11.0372
-9.694
-8.4906
-7.416
-6.4596
-5.61115
-4.86093
-4.19972
-3.61878
-3.10998
-2.66581
-2.27921
-1.94373
-1.65348
-1.40311
-1.18779
-1.00313
-0.8452
-0.710488
-0.595889
-0.498659
-0.416385
-0.346947
-0.288487
-0.239389
-0.198251
-0.163859
-0.135172
-0.111295
-0.0914641
-0.0750291
-0.0614365
-0.0502178
-0.0409768
-0.0333798
-0.0271462
-0.022041
-0.0178674
-0.0144615
-0.011687
-0.00943066
-0.00759874
-0.00611385
-0.00491216
-0.00394118
-0.00315782
-0.00252676
-0.00201916
-0.00161144
-0.00128441
-0.00102247
-0.000812949
-0.00064558
-0.000512059
-0.000405678
-0.000321028
-0.000253752
-0.000200352
-0.000158015
-0.00012449
-9.79725e-05
-7.70226e-05
-6.04898e-05
-4.74572e-05
-3.7195e-05
-2.9123e-05
-2.27804e-05
-1.78019e-05
-1.38982e-05
-1.08403e-05
-8.44737e-06
-6.57662e-06
-5.11552e-06
-3.97548e-06
-3.08681e-06
-2.39467e-06
-1.85615e-06
-1.43748e-06
-1.11238e-06
-8.60068e-07
-6.64457e-07
-5.12912e-07
-3.95639e-07
-3.05e-07
-2.3499e-07
-1.80966e-07
-1.39322e-07
-1.0727e-07
-8.27227e-08
-6.39044e-08
-4.95826e-08
-3.87579e-08
-3.06644e-08
-2.48357e-08
-2.0739e-08
-1.81744e-08
-1.69087e-08
-20.5902
-18.2365
-16.1067
-14.1861
-12.4596
-10.9129
-9.53172
-8.30247
-7.21196
-6.24771
-5.39787
-4.65119
-3.99724
-3.42634
-2.92945
-2.49825
-2.1252
-1.80341
-1.52666
-1.28932
-1.08633
-0.913181
-0.765888
-0.640921
-0.535177
-0.445929
-0.370791
-0.307686
-0.254811
-0.210607
-0.173735
-0.143046
-0.117558
-0.0964338
-0.0789635
-0.0645442
-0.0526669
-0.0429026
-0.0348907
-0.028329
-0.0229648
-0.0185873
-0.0150212
-0.0121212
-0.00976661
-0.00785809
-0.00631357
-0.00506558
-0.00405873
-0.00324764
-0.00259522
-0.00207118
-0.00165085
-0.00131418
-0.00104488
-0.000829766
-0.000658152
-0.000521421
-0.00041262
-0.000326151
-0.000257515
-0.000203099
-0.000160009
-0.000125926
-9.89989e-05
-7.77491e-05
-6.09982e-05
-4.7808e-05
-3.74329e-05
-2.92806e-05
-2.28817e-05
-1.78641e-05
-1.39336e-05
-1.08579e-05
-8.45334e-06
-6.57531e-06
-5.10999e-06
-3.9677e-06
-3.07806e-06
-2.38585e-06
-1.84773e-06
-1.42982e-06
-1.10553e-06
-8.54095e-07
-6.59317e-07
-5.08571e-07
-3.92042e-07
-3.02058e-07
-2.32636e-07
-1.79101e-07
-1.37923e-07
-1.06315e-07
-8.21565e-08
-6.37157e-08
-4.97935e-08
-3.94462e-08
-3.19189e-08
-2.66676e-08
-2.3348e-08
-2.17715e-08
-25.1555
-22.2799
-19.6779
-17.3314
-15.2222
-13.3325
-11.6451
-10.1433
-8.811
-7.63295
-6.59468
-5.68245
-4.88351
-4.18602
-3.57896
-3.05216
-2.5964
-2.20326
-1.86515
-1.57519
-1.32718
-1.11565
-0.935697
-0.783025
-0.653836
-0.544801
-0.453005
-0.375908
-0.311308
-0.257303
-0.212255
-0.174761
-0.143622
-0.117815
-0.0964709
-0.0788547
-0.064344
-0.0524149
-0.0426266
-0.0346101
-0.0280565
-0.0227084
-0.0183517
-0.0148087
-0.0119321
-0.0096004
-0.00771343
-0.00618873
-0.00495864
-0.00396772
-0.00317065
-0.00253041
-0.00201689
-0.00160557
-0.00127657
-0.00101375
-0.000804087
-0.000637039
-0.000504113
-0.000398472
-0.000314617
-0.000248135
-0.00019549
-0.00015385
-0.000120952
-9.49906e-05
-7.45252e-05
-5.84101e-05
-4.57343e-05
-3.57742e-05
-2.79562e-05
-2.18259e-05
-1.70239e-05
-1.3266e-05
-1.03282e-05
-8.03371e-06
-6.24338e-06
-4.84776e-06
-3.76082e-06
-2.91509e-06
-2.25764e-06
-1.74698e-06
-1.35072e-06
-1.04355e-06
-8.05589e-07
-6.21436e-07
-4.79028e-07
-3.69094e-07
-2.84228e-07
-2.18825e-07
-1.68521e-07
-1.29907e-07
-1.00386e-07
-7.7871e-08
-6.08624e-08
-4.82281e-08
-3.90021e-08
-3.25961e-08
-2.85327e-08
-2.65676e-08
-29.7145
-26.3177
-23.2443
-20.4725
-17.9809
-15.7488
-13.7556
-11.9816
-10.4079
-9.01631
-7.78986
-6.7123
-5.76858
-4.94468
-4.22759
-3.60532
-3.06696
-2.60258
-2.20319
-1.86066
-1.56771
-1.31784
-1.10528
-0.924935
-0.772335
-0.64354
-0.535107
-0.444037
-0.367729
-0.303935
-0.250723
-0.206434
-0.169651
-0.139166
-0.113954
-0.0931456
-0.0760052
-0.0619141
-0.050352
-0.0408826
-0.0331413
-0.026824
-0.0216777
-0.0174925
-0.0140946
-0.0113404
-0.0091114
-0.00731037
-0.00585735
-0.00468684
-0.0037453
-0.00298903
-0.00238244
-0.00189658
-0.00150794
-0.00119749
-0.000949828
-0.000752503
-0.000595486
-0.000470697
-0.000371644
-0.000293113
-0.000230926
-0.000181738
-0.000142877
-0.00011221
-8.80348e-05
-6.89987e-05
-5.40252e-05
-4.22596e-05
-3.30245e-05
-2.57829e-05
-2.01103e-05
-1.56713e-05
-1.22009e-05
-9.49035e-06
-7.37546e-06
-5.72676e-06
-4.44277e-06
-3.44369e-06
-2.66701e-06
-2.06379e-06
-1.59573e-06
-1.23279e-06
-9.51683e-07
-7.34146e-07
-5.65936e-07
-4.36029e-07
-3.35765e-07
-2.58538e-07
-1.99118e-07
-1.53477e-07
-1.18583e-07
-9.19931e-08
-7.19313e-08
-5.69766e-08
-4.60632e-08
-3.85025e-08
-3.37508e-08
-3.13971e-08
-34.2662
-30.3491
-26.8048
-23.6085
-20.7353
-18.1612
-15.8627
-13.817
-12.0021
-10.3974
-8.98312
-7.7405
-6.65222
-5.70211
-4.87517
-4.15759
-3.53676
-3.00125
-2.54068
-2.14568
-1.80786
-1.5197
-1.27458
-1.06662
-0.890643
-0.74212
-0.617077
-0.512056
-0.424059
-0.350493
-0.289129
-0.238055
-0.195638
-0.160484
-0.13141
-0.107413
-0.0876476
-0.0713981
-0.0580649
-0.047145
-0.0382179
-0.0309329
-0.0249984
-0.0201721
-0.0162537
-0.0130775
-0.0105071
-0.00843022
-0.00675461
-0.0054048
-0.00431903
-0.00344692
-0.00274741
-0.00218712
-0.00173895
-0.00138094
-0.00109534
-0.000867786
-0.000686715
-0.00054281
-0.000428582
-0.00033802
-0.000266306
-0.000209583
-0.000164769
-0.000129403
-0.000101524
-7.95713e-05
-6.23035e-05
-4.87353e-05
-3.80852e-05
-2.9734e-05
-2.31922e-05
-1.80729e-05
-1.40707e-05
-1.09449e-05
-8.50585e-06
-6.60457e-06
-5.12376e-06
-3.97157e-06
-3.07584e-06
-2.38017e-06
-1.84034e-06
-1.42181e-06
-1.0976e-06
-8.46723e-07
-6.52711e-07
-5.02876e-07
-3.87257e-07
-2.98173e-07
-2.2965e-07
-1.77014e-07
-1.36779e-07
-1.06137e-07
-8.29559e-08
-6.56919e-08
-5.31464e-08
-4.43978e-08
-3.89244e-08
-3.62599e-08
-38.8094
-34.373
-30.3588
-26.7386
-23.4845
-20.5692
-17.9659
-15.6489
-13.5935
-11.776
-10.1742
-8.76679
-7.53421
-6.45813
-5.52155
-4.70883
-4.00569
-3.39918
-2.87754
-2.43017
-2.04755
-1.7212
-1.44357
-1.20804
-1.00873
-0.840517
-0.698895
-0.579949
-0.480284
-0.396964
-0.327464
-0.269618
-0.221576
-0.181761
-0.148832
-0.121655
-0.0992683
-0.0808644
-0.0657634
-0.0533958
-0.0432851
-0.0350342
-0.0283128
-0.0228467
-0.0184087
-0.0148115
-0.0119003
-0.00954799
-0.00765022
-0.00612144
-0.00489171
-0.00390397
-0.00311171
-0.00247712
-0.00196953
-0.00156406
-0.00124058
-0.000982859
-0.000777778
-0.000614792
-0.000485417
-0.000382847
-0.000301623
-0.000237378
-0.000186621
-0.000146565
-0.000114989
-9.01252e-05
-7.05674e-05
-5.51997e-05
-4.3137e-05
-3.36782e-05
-2.62688e-05
-2.04705e-05
-1.59374e-05
-1.23969e-05
-9.63438e-06
-7.48084e-06
-5.80361e-06
-4.49856e-06
-3.48402e-06
-2.69604e-06
-2.08457e-06
-1.6105e-06
-1.24328e-06
-9.59099e-07
-7.39342e-07
-5.69644e-07
-4.38671e-07
-3.37774e-07
-2.60147e-07
-2.0054e-07
-1.54909e-07
-1.20226e-07
-9.40026e-08
-7.44071e-08
-6.02074e-08
-5.03153e-08
-4.41092e-08
-4.10671e-08
-43.3431
-38.3884
-33.9053
-29.8622
-26.228
-22.972
-20.0646
-17.477
-15.1815
-13.1517
-11.3627
-9.79092
-8.41435
-7.21257
-6.16658
-5.25891
-4.47363
-3.79627
-3.21369
-2.71406
-2.28674
-1.92226
-1.61221
-1.34916
-1.12657
-0.938707
-0.78054
-0.6477
-0.536391
-0.443337
-0.365717
-0.301114
-0.24746
-0.202994
-0.166218
-0.135866
-0.110864
-0.0903107
-0.0734457
-0.0596333
-0.0483416
-0.0391269
-0.0316203
-0.0255156
-0.0205592
-0.0165418
-0.0132905
-0.0106634
-0.00854395
-0.00683657
-0.00546319
-0.00436005
-0.00347524
-0.00276653
-0.00219964
-0.00174679
-0.00138553
-0.00109769
-0.000868654
-0.000686625
-0.000542135
-0.000427581
-0.000336868
-0.000265116
-0.000208429
-0.000163693
-0.000128427
-0.000100658
-7.88147e-05
-6.16512e-05
-4.81788e-05
-3.76147e-05
-2.93393e-05
-2.28633e-05
-1.78005e-05
-1.38462e-05
-1.07607e-05
-8.35546e-06
-6.48216e-06
-5.02457e-06
-3.89142e-06
-3.0113e-06
-2.32836e-06
-1.79884e-06
-1.38867e-06
-1.07131e-06
-8.25828e-07
-6.36247e-07
-4.90008e-07
-3.77287e-07
-2.9059e-07
-2.24032e-07
-1.7305e-07
-1.3427e-07
-1.05005e-07
-8.31557e-08
-6.72684e-08
-5.62106e-08
-4.92606e-08
-4.58633e-08
-47.8661
-42.3944
-37.4434
-32.9784
-28.9649
-25.3692
-22.1584
-19.3008
-16.7657
-14.5241
-12.5484
-10.8126
-9.29242
-7.96522
-6.81008
-5.80769
-4.94047
-4.19242
-3.54905
-2.99728
-2.52537
-2.12285
-1.78045
-1.48995
-1.24414
-1.03667
-0.861994
-0.71529
-0.592365
-0.4896
-0.40388
-0.332535
-0.273282
-0.224176
-0.183563
-0.150044
-0.122433
-0.0997347
-0.0811099
-0.0658562
-0.0533862
-0.0432099
-0.03492
-0.0281783
-0.0227047
-0.018268
-0.0146774
-0.0117762
-0.00943557
-0.00755003
-0.00603333
-0.00481507
-0.00383793
-0.00305525
-0.0024292
-0.0019291
-0.00153014
-0.00121226
-0.000959318
-0.000758292
-0.000598723
-0.000472213
-0.000372031
-0.000292791
-0.000230187
-0.000180781
-0.000141835
-0.000111167
-8.70433e-05
-6.80881e-05
-5.32093e-05
-4.15423e-05
-3.2403e-05
-2.52509e-05
-1.96594e-05
-1.52922e-05
-1.18846e-05
-9.22816e-06
-7.15926e-06
-5.54943e-06
-4.29795e-06
-3.32592e-06
-2.5716e-06
-1.98679e-06
-1.53382e-06
-1.18322e-06
-9.12148e-07
-7.02771e-07
-5.412e-07
-4.16767e-07
-3.20954e-07
-2.47413e-07
-1.91158e-07
-1.48326e-07
-1.15963e-07
-9.18376e-08
-7.42961e-08
-6.2117e-08
-5.4412e-08
-5.06817e-08
-52.3773
-46.3899
-40.9723
-36.0865
-31.6947
-27.7602
-24.2468
-21.1198
-18.3458
-15.8929
-13.7311
-11.8317
-10.1682
-8.71591
-7.4519
-6.35504
-5.40609
-4.58754
-3.88353
-3.27976
-2.76337
-2.32292
-1.94825
-1.63037
-1.36139
-1.13437
-0.943234
-0.782704
-0.648194
-0.535743
-0.441944
-0.363875
-0.299038
-0.245303
-0.200863
-0.164184
-0.133972
-0.109134
-0.0887541
-0.0720628
-0.0584175
-0.0472823
-0.0382111
-0.030834
-0.0248446
-0.0199897
-0.0160608
-0.0128861
-0.0103249
-0.00826163
-0.00660198
-0.00526891
-0.00419967
-0.00334323
-0.00265817
-0.00211094
-0.00167437
-0.00132653
-0.00104975
-0.000829775
-0.000655165
-0.00051673
-0.000407105
-0.000320395
-0.000251889
-0.000197826
-0.000155208
-0.000121649
-9.52512e-05
-7.45089e-05
-5.82272e-05
-4.54601e-05
-3.54591e-05
-2.76325e-05
-2.15137e-05
-1.67347e-05
-1.30057e-05
-1.00987e-05
-7.83471e-06
-6.07302e-06
-4.70349e-06
-3.63977e-06
-2.81429e-06
-2.17432e-06
-1.67856e-06
-1.2949e-06
-9.98235e-07
-7.69129e-07
-5.92315e-07
-4.56091e-07
-3.51241e-07
-2.70783e-07
-2.09233e-07
-1.62337e-07
-1.26921e-07
-1.00531e-07
-8.13349e-08
-6.79679e-08
-5.95635e-08
-5.54778e-08
-56.8755
-50.3739
-44.4911
-39.1857
-34.4167
-30.1443
-26.3291
-22.9336
-19.9213
-17.2578
-14.9103
-12.8478
-11.0415
-9.46445
-8.09188
-6.90082
-5.87037
-4.98152
-4.21706
-3.56143
-3.00069
-2.52242
-2.11556
-1.77039
-1.47831
-1.23179
-1.02424
-0.849925
-0.703862
-0.581753
-0.479898
-0.395125
-0.324719
-0.26637
-0.218113
-0.178284
-0.145477
-0.118507
-0.0963763
-0.0782516
-0.0634345
-0.051343
-0.0414928
-0.0334821
-0.0269783
-0.0217065
-0.0174401
-0.0139928
-0.0112116
-0.0089712
-0.00716902
-0.00572146
-0.00456038
-0.00363039
-0.0028865
-0.00229226
-0.00181819
-0.00144048
-0.00113992
-0.000901056
-0.000711448
-0.000561122
-0.00044208
-0.000347922
-0.000273531
-0.000214824
-0.000168544
-0.000132102
-0.000103436
-8.09119e-05
-6.32313e-05
-4.93672e-05
-3.85067e-05
-3.00077e-05
-2.3363e-05
-1.81733e-05
-1.41238e-05
-1.0967e-05
-8.50834e-06
-6.59521e-06
-5.10795e-06
-3.95279e-06
-3.05633e-06
-2.36131e-06
-1.82298e-06
-1.40628e-06
-1.08413e-06
-8.35321e-07
-6.43297e-07
-4.95315e-07
-3.81473e-07
-2.94076e-07
-2.2724e-07
-1.76315e-07
-1.37845e-07
-1.0919e-07
-8.83182e-08
-7.38187e-08
-6.47149e-08
-6.02962e-08
-61.3598
-54.3455
-47.9989
-42.2752
-37.1303
-32.5209
-28.405
-24.7417
-21.492
-18.6185
-16.0859
-13.8608
-11.912
-10.2107
-8.72986
-7.4449
-6.33321
-5.37428
-4.54954
-3.84222
-3.23728
-2.72129
-2.28236
-1.90997
-1.59487
-1.32891
-1.105
-0.916936
-0.759356
-0.62762
-0.517734
-0.426277
-0.35032
-0.28737
-0.235309
-0.19234
-0.156947
-0.12785
-0.103975
-0.0844211
-0.0684358
-0.055391
-0.0447642
-0.036122
-0.0291054
-0.0234179
-0.0188152
-0.0150961
-0.0120957
-0.00967856
-0.00773429
-0.0061726
-0.00491998
-0.00391666
-0.00311411
-0.00247302
-0.00196157
-0.00155408
-0.00122982
-0.000972118
-0.000767558
-0.000605377
-0.000476948
-0.000375365
-0.000295107
-0.000231769
-0.00018184
-0.000142523
-0.000111597
-8.72955e-05
-6.82203e-05
-5.32625e-05
-4.15453e-05
-3.23757e-05
-2.52068e-05
-1.96076e-05
-1.52386e-05
-1.18327e-05
-9.17998e-06
-7.1159e-06
-5.51124e-06
-4.26489e-06
-3.29767e-06
-2.54781e-06
-1.96693e-06
-1.51736e-06
-1.16975e-06
-9.01279e-07
-6.94123e-07
-5.34461e-07
-4.11626e-07
-3.17357e-07
-2.45171e-07
-1.90237e-07
-1.48725e-07
-1.17828e-07
-9.53237e-08
-7.96807e-08
-6.98219e-08
-6.50702e-08
-65.8288
-58.3037
-51.4948
-45.3542
-39.8346
-34.8895
-30.4738
-26.5438
-23.0573
-19.9745
-17.2575
-14.8703
-12.7796
-10.9543
-9.36569
-7.98714
-6.79448
-5.76571
-4.8809
-4.12207
-3.47306
-2.91949
-2.44859
-2.04908
-1.71103
-1.4257
-1.18548
-0.983721
-0.814664
-0.673332
-0.555443
-0.457323
-0.375834
-0.3083
-0.252447
-0.206349
-0.168378
-0.137161
-0.111548
-0.0905698
-0.0734203
-0.0594253
-0.0480246
-0.0387529
-0.0312253
-0.0251236
-0.0201857
-0.0161957
-0.0129767
-0.0103835
-0.00829766
-0.00662222
-0.00527837
-0.00420196
-0.00334096
-0.00265317
-0.00210447
-0.0016673
-0.00131942
-0.00104294
-0.000823481
-0.000649485
-0.0005117
-0.000402716
-0.000316611
-0.000248659
-0.000195092
-0.00015291
-0.00011973
-9.36583e-05
-7.3193e-05
-5.71451e-05
-4.45739e-05
-3.4736e-05
-2.70446e-05
-2.10373e-05
-1.63498e-05
-1.26955e-05
-9.84948e-06
-7.63489e-06
-5.91323e-06
-4.57601e-06
-3.53825e-06
-2.73369e-06
-2.11047e-06
-1.62808e-06
-1.25511e-06
-9.6706e-07
-7.44771e-07
-5.73497e-07
-4.41669e-07
-3.40528e-07
-2.6309e-07
-2.04115e-07
-1.59617e-07
-1.26443e-07
-1.02296e-07
-8.55094e-08
-7.49178e-08
-6.9833e-08
-70.2817
-62.2476
-54.9781
-48.4221
-42.5291
-37.2496
-32.5352
-28.3393
-24.617
-21.3257
-18.4248
-15.8762
-13.644
-11.6953
-9.99921
-8.52741
-7.25408
-6.15572
-5.21106
-4.40089
-3.70799
-3.11697
-2.61422
-2.18769
-1.82677
-1.52214
-1.26567
-1.05026
-0.86977
-0.718877
-0.593014
-0.488257
-0.401256
-0.329154
-0.269523
-0.220307
-0.179767
-0.146439
-0.119093
-0.0966961
-0.0783866
-0.063445
-0.0512731
-0.0413743
-0.0333375
-0.0268231
-0.0215511
-0.0172913
-0.0138545
-0.011086
-0.00885899
-0.00707022
-0.00563545
-0.00448624
-0.00356699
-0.00283268
-0.00224686
-0.00178011
-0.00140869
-0.00111351
-0.000879202
-0.000693435
-0.000546328
-0.00042997
-0.000338039
-0.000265488
-0.000208296
-0.00016326
-0.000127835
-9.99984e-05
-7.8148e-05
-6.1014e-05
-4.75919e-05
-3.7088e-05
-2.8876e-05
-2.2462e-05
-1.74571e-05
-1.35554e-05
-1.05166e-05
-8.1521e-06
-6.31383e-06
-4.88601e-06
-3.77801e-06
-2.91894e-06
-2.25349e-06
-1.73845e-06
-1.34021e-06
-1.0326e-06
-7.95242e-07
-6.12388e-07
-4.71634e-07
-3.6362e-07
-2.80953e-07
-2.17981e-07
-1.70453e-07
-1.35003e-07
-1.09235e-07
-9.13158e-08
-8.00138e-08
-7.45626e-08
-74.7172
-66.176
-58.4478
-51.478
-45.2131
-39.6004
-34.5885
-30.1278
-26.1706
-22.6715
-19.5876
-16.8781
-14.5051
-12.4334
-10.6303
-9.06558
-7.71188
-6.54421
-5.53993
-4.67863
-3.942
-3.31368
-2.77921
-2.32576
-1.94206
-1.6182
-1.34555
-1.11655
-0.924661
-0.764246
-0.630438
-0.519071
-0.426579
-0.349926
-0.286532
-0.23421
-0.191112
-0.155681
-0.126609
-0.102799
-0.0833336
-0.0674491
-0.054509
-0.0439855
-0.0354415
-0.028516
-0.0229113
-0.0183826
-0.0147289
-0.0117857
-0.00941814
-0.00751647
-0.00599116
-0.00476941
-0.00379215
-0.00301148
-0.00238869
-0.00189248
-0.00149762
-0.00118381
-0.000934709
-0.000737216
-0.000580822
-0.000457118
-0.000359384
-0.000282253
-0.00022145
-0.000173571
-0.000135909
-0.000106314
-8.30842e-05
-6.48682e-05
-5.05984e-05
-3.94311e-05
-3.07004e-05
-2.38813e-05
-1.85602e-05
-1.44121e-05
-1.11813e-05
-8.66737e-06
-6.71293e-06
-5.1949e-06
-4.0169e-06
-3.10351e-06
-2.39597e-06
-1.8484e-06
-1.42498e-06
-1.09792e-06
-8.45557e-07
-6.51101e-07
-5.01488e-07
-3.86624e-07
-2.98739e-07
-2.31792e-07
-1.81244e-07
-1.43552e-07
-1.16152e-07
-9.7089e-08
-8.51097e-08
-7.9281e-08
-79.1342
-70.0882
-61.903
-54.5213
-47.886
-41.9415
-36.6332
-31.9088
-27.7177
-24.0118
-20.7456
-17.8759
-15.3626
-13.1684
-11.2587
-9.60151
-8.16779
-6.93109
-5.86744
-4.95522
-4.17503
-3.50958
-2.94351
-2.46325
-2.05687
-1.71387
-1.42509
-1.18255
-0.979324
-0.809425
-0.667708
-0.549756
-0.451796
-0.370612
-0.303471
-0.248055
-0.202409
-0.164884
-0.134093
-0.108876
-0.08826
-0.0714365
-0.0577314
-0.0465858
-0.0375368
-0.0302018
-0.0242658
-0.0194694
-0.0155997
-0.0124825
-0.00997497
-0.00796088
-0.00634539
-0.00505141
-0.00401637
-0.00318955
-0.00252994
-0.00200439
-0.00158618
-0.00125382
-0.000989988
-0.000780816
-0.000615174
-0.000484156
-0.000380641
-0.000298949
-0.00023455
-0.000183839
-0.000143949
-0.000112605
-8.80003e-05
-6.87067e-05
-5.35927e-05
-4.17648e-05
-3.25175e-05
-2.52948e-05
-1.96589e-05
-1.52653e-05
-1.18433e-05
-9.18056e-06
-7.11045e-06
-5.50257e-06
-4.2548e-06
-3.28733e-06
-2.5379e-06
-1.95792e-06
-1.50943e-06
-1.16298e-06
-8.95684e-07
-6.89715e-07
-5.31175e-07
-4.09539e-07
-3.16458e-07
-2.45537e-07
-1.92002e-07
-1.52078e-07
-1.23035e-07
-1.02884e-07
-9.01279e-08
-8.39995e-08
-83.5318
-73.983
-65.343
-57.551
-50.5471
-44.2722
-38.669
-33.682
-29.258
-25.3462
-21.8984
-18.8693
-16.2163
-13.9002
-11.8843
-10.1351
-8.62168
-7.31625
-6.1935
-5.23059
-4.40704
-3.70461
-3.10708
-2.60014
-2.17117
-1.80911
-1.50429
-1.24827
-1.03375
-0.854405
-0.704812
-0.580306
-0.476902
-0.391207
-0.320334
-0.261839
-0.213657
-0.174047
-0.141545
-0.114926
-0.0931647
-0.0754063
-0.0609396
-0.0491747
-0.0396227
-0.0318802
-0.0256143
-0.0205514
-0.0164667
-0.0131762
-0.0105293
-0.00840333
-0.00669806
-0.00533217
-0.0042396
-0.00336684
-0.00267056
-0.0021158
-0.00167436
-0.00132352
-0.00104502
-0.000824225
-0.000649376
-0.000511074
-0.000401806
-0.000315572
-0.000247593
-0.000194063
-0.000151955
-0.000118868
-9.2895e-05
-7.25285e-05
-5.6574e-05
-4.40883e-05
-3.43267e-05
-2.67023e-05
-2.07528e-05
-1.61148e-05
-1.25025e-05
-9.69157e-06
-7.50628e-06
-5.80891e-06
-4.49166e-06
-3.47041e-06
-2.67926e-06
-2.06692e-06
-1.59348e-06
-1.22778e-06
-9.45577e-07
-7.2814e-07
-5.60818e-07
-4.32365e-07
-3.34077e-07
-2.59248e-07
-2.02705e-07
-1.6056e-07
-1.29907e-07
-1.08591e-07
-9.51794e-08
-8.87068e-08
-87.9087
-77.8596
-68.7669
-60.5666
-53.1956
-46.5919
-40.6951
-35.4469
-30.7911
-26.6743
-23.0459
-19.858
-17.066
-14.6286
-12.5071
-10.6661
-9.07344
-7.69961
-6.51803
-5.50466
-4.63796
-3.89872
-3.26988
-2.73638
-2.28493
-1.90391
-1.58311
-1.31368
-1.08791
-0.899174
-0.741742
-0.610712
-0.501891
-0.411705
-0.337119
-0.275559
-0.224852
-0.183166
-0.148961
-0.120948
-0.0980463
-0.0793575
-0.0641328
-0.0517514
-0.041699
-0.0335507
-0.0269565
-0.0216283
-0.0173296
-0.0138667
-0.0110811
-0.0088437
-0.00704908
-0.00561161
-0.0044618
-0.00354329
-0.00281053
-0.0022267
-0.00176212
-0.00139289
-0.0010998
-0.000867433
-0.000683419
-0.000537868
-0.000422872
-0.000332118
-0.000260576
-0.000204239
-0.000159924
-0.000125101
-9.77672e-05
-7.63328e-05
-5.95417e-05
-4.64011e-05
-3.61276e-05
-2.81033e-05
-2.18418e-05
-1.69605e-05
-1.31586e-05
-1.02002e-05
-7.9003e-06
-6.11386e-06
-4.72752e-06
-3.65262e-06
-2.81994e-06
-2.1755e-06
-1.67719e-06
-1.29228e-06
-9.95259e-07
-7.66365e-07
-5.90261e-07
-4.55092e-07
-3.51652e-07
-2.72871e-07
-2.13363e-07
-1.69009e-07
-1.36735e-07
-1.1432e-07
-1.00187e-07
-9.33809e-08
-92.2639
-81.717
-72.1738
-63.5673
-55.8311
-48.9002
-42.7113
-37.203
-32.3166
-27.9958
-24.1876
-20.8418
-17.9115
-15.3533
-13.1267
-11.1946
-9.52296
-8.08107
-6.84095
-5.77738
-4.86774
-4.09188
-3.43188
-2.87195
-2.39814
-1.99823
-1.66154
-1.37876
-1.14181
-0.943721
-0.77849
-0.640968
-0.526755
-0.432101
-0.35382
-0.289211
-0.235992
-0.192241
-0.156341
-0.12694
-0.102904
-0.0832891
-0.0673102
-0.0543154
-0.0437649
-0.035213
-0.0282921
-0.0226999
-0.0181882
-0.0145537
-0.0116302
-0.0092819
-0.00739836
-0.00588968
-0.00468289
-0.00371888
-0.00294981
-0.00233705
-0.00184945
-0.00146192
-0.00115431
-0.000910427
-0.000717294
-0.00056453
-0.000443835
-0.000348583
-0.000273494
-0.000214365
-0.000167853
-0.000131305
-0.000102616
-8.01184e-05
-6.24948e-05
-4.87027e-05
-3.79197e-05
-2.94975e-05
-2.29255e-05
-1.7802e-05
-1.38116e-05
-1.07065e-05
-8.29241e-06
-6.41738e-06
-4.96219e-06
-3.83399e-06
-2.95997e-06
-2.28352e-06
-1.7605e-06
-1.35645e-06
-1.0447e-06
-8.04457e-07
-6.19615e-07
-4.77707e-07
-3.69127e-07
-2.86438e-07
-2.23943e-07
-1.77425e-07
-1.4353e-07
-1.20015e-07
-1.05205e-07
-9.80105e-08
-96.5964
-85.5542
-75.5629
-66.5522
-58.4528
-51.1965
-44.7169
-38.95
-33.8341
-29.3104
-25.3234
-21.8205
-18.7526
-16.0742
-13.7431
-11.7202
-9.97014
-8.46054
-7.16218
-6.04867
-5.09632
-4.28402
-3.59304
-3.00681
-2.51075
-2.09206
-1.73956
-1.4435
-1.19543
-0.988036
-0.815045
-0.671065
-0.55149
-0.452391
-0.370434
-0.302791
-0.247073
-0.201268
-0.163683
-0.132901
-0.107736
-0.0872001
-0.0704709
-0.0568659
-0.0458201
-0.0368666
-0.0296207
-0.0237659
-0.0190424
-0.0152372
-0.0121764
-0.00971782
-0.00774583
-0.00616629
-0.00490283
-0.00389355
-0.00308836
-0.00244682
-0.00193632
-0.0015306
-0.00120854
-0.000953198
-0.000750994
-0.000591054
-0.000464689
-0.000364963
-0.000286346
-0.000224439
-0.000175742
-0.000137476
-0.000107439
-8.38846e-05
-6.54327e-05
-5.09925e-05
-3.97027e-05
-3.08846e-05
-2.40036e-05
-1.86393e-05
-1.44613e-05
-1.12101e-05
-8.68255e-06
-6.71927e-06
-5.19569e-06
-4.01438e-06
-3.09929e-06
-2.39103e-06
-1.84337e-06
-1.42034e-06
-1.09388e-06
-8.42337e-07
-6.48803e-07
-5.00244e-07
-3.86513e-07
-2.99916e-07
-2.34512e-07
-1.8574e-07
-1.50313e-07
-1.25688e-07
-1.10145e-07
-1.02651e-07
-100.905
-89.3703
-78.9333
-69.5207
-61.06
-53.4801
-46.7115
-40.6873
-35.3432
-30.6178
-26.4529
-22.7938
-19.5891
-16.7912
-14.3561
-12.243
-10.4148
-8.83792
-7.48165
-6.31846
-5.32364
-4.47511
-3.7533
-3.14092
-2.62274
-2.18538
-1.81716
-1.50789
-1.24875
-1.03211
-0.851399
-0.700997
-0.576088
-0.47257
-0.386957
-0.316296
-0.258093
-0.210245
-0.170984
-0.138829
-0.112541
-0.0910897
-0.0736143
-0.0594025
-0.0478639
-0.0385111
-0.030942
-0.024826
-0.0198918
-0.0159169
-0.0127196
-0.0101513
-0.00809138
-0.00644139
-0.00512157
-0.00406726
-0.00322615
-0.002556
-0.00202272
-0.0015989
-0.00126247
-0.000995735
-0.000784509
-0.000617432
-0.000485429
-0.000381252
-0.000299128
-0.000234458
-0.000183588
-0.000143614
-0.000112236
-8.76302e-05
-6.83547e-05
-5.32698e-05
-4.14759e-05
-3.22641e-05
-2.50758e-05
-1.9472e-05
-1.51074e-05
-1.1711e-05
-9.07058e-06
-7.0196e-06
-5.42794e-06
-4.19383e-06
-3.23783e-06
-2.49794e-06
-1.9258e-06
-1.48385e-06
-1.14283e-06
-8.8004e-07
-6.77824e-07
-5.22626e-07
-4.03821e-07
-3.13338e-07
-2.45015e-07
-1.94078e-07
-1.57041e-07
-1.31306e-07
-1.15075e-07
-1.07248e-07
-105.189
-93.1643
-82.2843
-72.4721
-63.6522
-55.7505
-48.6945
-42.4146
-36.8436
-31.9176
-27.5759
-23.7614
-20.4207
-17.5041
-14.9656
-12.7628
-10.857
-9.21312
-7.79927
-6.5867
-5.54964
-4.66509
-3.91264
-3.27427
-2.73408
-2.27816
-1.8943
-1.5719
-1.30176
-1.07592
-0.887543
-0.730756
-0.600544
-0.492631
-0.403384
-0.329724
-0.26905
-0.21917
-0.178242
-0.144722
-0.117319
-0.0949568
-0.0767395
-0.0619244
-0.049896
-0.0401461
-0.0322557
-0.0258801
-0.0207363
-0.0165927
-0.0132596
-0.0105824
-0.00843494
-0.0067149
-0.00533904
-0.00423997
-0.00336315
-0.00266454
-0.00210862
-0.0016668
-0.00131609
-0.00103803
-0.000817831
-0.00064366
-0.00050605
-0.000397449
-0.000311836
-0.00024442
-0.000191388
-0.000149717
-0.000117006
-9.13544e-05
-7.12599e-05
-5.5534e-05
-4.3239e-05
-3.36357e-05
-2.6142e-05
-2.03e-05
-1.57498e-05
-1.22091e-05
-9.45636e-06
-7.31819e-06
-5.65886e-06
-4.37229e-06
-3.37566e-06
-2.60424e-06
-2.00776e-06
-1.54703e-06
-1.19149e-06
-9.17488e-07
-7.0669e-07
-5.44864e-07
-4.21019e-07
-3.26716e-07
-2.5544e-07
-2.02338e-07
-1.63747e-07
-1.3689e-07
-1.19993e-07
-1.11833e-07
-109.447
-96.9354
-85.6149
-75.4056
-66.2287
-58.0071
-50.6656
-44.1315
-38.335
-33.2095
-28.6922
-24.7232
-21.2473
-18.2126
-15.5713
-13.2794
-11.2965
-9.58604
-8.11496
-6.85332
-5.77428
-4.85392
-4.07102
-3.4068
-2.84475
-2.37037
-1.97098
-1.63553
-1.35445
-1.11947
-0.923468
-0.760335
-0.624852
-0.512571
-0.419712
-0.34307
-0.27994
-0.228042
-0.185457
-0.15058
-0.122068
-0.0988004
-0.0798458
-0.064431
-0.0519157
-0.0417712
-0.0335614
-0.0269277
-0.0215758
-0.0172644
-0.0137964
-0.0110108
-0.00877642
-0.00698675
-0.0055552
-0.00441164
-0.00349932
-0.00277243
-0.002194
-0.00173429
-0.00136938
-0.00108006
-0.000850952
-0.000669728
-0.000526546
-0.000413548
-0.000324468
-0.000254321
-0.000199142
-0.000155783
-0.000121746
-9.50563e-05
-7.41478e-05
-5.77847e-05
-4.49916e-05
-3.49992e-05
-2.72018e-05
-2.1123e-05
-1.63884e-05
-1.27042e-05
-9.83988e-06
-7.61501e-06
-5.88842e-06
-4.54967e-06
-3.51258e-06
-2.70993e-06
-2.08925e-06
-1.60983e-06
-1.23983e-06
-9.54758e-07
-7.35378e-07
-5.66991e-07
-4.38105e-07
-3.39961e-07
-2.65854e-07
-2.10554e-07
-1.70408e-07
-1.42486e-07
-1.24867e-07
-1.16362e-07
-113.677
-100.683
-88.9245
-78.3205
-68.7889
-60.2494
-52.6241
-45.8374
-39.8169
-34.4933
-29.8013
-25.6789
-22.0686
-18.9166
-16.1732
-13.7927
-11.7331
-9.9566
-8.42866
-7.11824
-5.99749
-5.04155
-4.22838
-3.5385
-2.95472
-2.462
-2.04717
-1.69875
-1.40681
-1.16275
-0.959166
-0.789726
-0.649006
-0.532385
-0.435936
-0.356332
-0.290762
-0.236857
-0.192626
-0.156401
-0.126787
-0.10262
-0.0829324
-0.0669217
-0.0539226
-0.043386
-0.0348588
-0.0279687
-0.0224099
-0.0179318
-0.0143298
-0.0114365
-0.00911574
-0.00725689
-0.00576999
-0.00458222
-0.00363463
-0.00287963
-0.00227885
-0.00180136
-0.00142234
-0.00112184
-0.000883864
-0.000695632
-0.000546914
-0.000429545
-0.00033702
-0.00026416
-0.000206847
-0.00016181
-0.000126458
-9.87349e-05
-7.70174e-05
-6.00213e-05
-4.67332e-05
-3.63541e-05
-2.82549e-05
-2.19409e-05
-1.7023e-05
-1.31962e-05
-1.0221e-05
-7.90998e-06
-6.11653e-06
-4.72594e-06
-3.6487e-06
-2.81494e-06
-2.17024e-06
-1.67223e-06
-1.2879e-06
-9.91784e-07
-7.63911e-07
-5.88996e-07
-4.55114e-07
-3.53173e-07
-2.76146e-07
-2.18736e-07