/*--------------------------------*- C++ -*----------------------------------*\
| =========                 |                                                 |
| \\      /  F ield         | OpenFOAM: The Open Source CFD Toolbox           |
|  \\    /   O peration     | Version:  2406                                  |
|   \\  /    A nd           | Website:  www.openfoam.com                      |
|    \\/     M anipulation  |                                                 |
\*---------------------------------------------------------------------------*/
FoamFile
{
    version     2.0;
    format      ascii;
    arch        "LSB;label=32;scalar=64";
    class       volVectorField;
    location    "145";
    object      flux;
}
// * * * * * * * * * * * * * * * * * * * * * * * * * * * * * * * * * * * * * //

dimensions      [0 1 -1 1 0 0 0];

internalField   nonuniform List<vector> 
20000
(
(0.00208671 -0.0349454 0)
(0.00198944 -0.0308705 0)
(0.00189395 -0.0269882 0)
(0.00180033 -0.0232952 0)
(0.00170876 -0.0197873 0)
(0.00161937 -0.0164604 0)
(0.00153223 -0.0133102 0)
(0.00144717 -0.0103321 0)
(0.00136446 -0.00752186 0)
(0.00128431 -0.00487443 0)
(0.00120651 -0.00238494 0)
(0.00113104 -4.87716e-05 0)
(0.00105804 0.00213892 0)
(0.000987559 0.00418315 0)
(0.000919577 0.00608895 0)
(0.00085405 0.00786125 0)
(0.000790953 0.00950493 0)
(0.00073028 0.0110249 0)
(0.000672025 0.0124259 0)
(0.00061617 0.0137128 0)
(0.000562686 0.0148904 0)
(0.000511533 0.0159634 0)
(0.000462669 0.0169364 0)
(0.000416049 0.017814 0)
(0.000371627 0.0186005 0)
(0.000329354 0.0193004 0)
(0.000289182 0.0199178 0)
(0.000251061 0.020457 0)
(0.000214936 0.020922 0)
(0.000180755 0.0213167 0)
(0.000148461 0.021645 0)
(0.000117999 0.0219105 0)
(8.93104e-05 0.022117 0)
(6.23381e-05 0.0222677 0)
(3.70237e-05 0.0223663 0)
(1.33092e-05 0.0224158 0)
(-8.86362e-06 0.0224195 0)
(-2.95527e-05 0.0223804 0)
(-4.88156e-05 0.0223013 0)
(-6.67095e-05 0.0221851 0)
(-8.32909e-05 0.0220345 0)
(-9.86157e-05 0.021852 0)
(-0.000112739 0.0216401 0)
(-0.000125715 0.0214011 0)
(-0.000137596 0.0211372 0)
(-0.000148436 0.0208507 0)
(-0.000158286 0.0205435 0)
(-0.000167194 0.0202176 0)
(-0.000175211 0.0198748 0)
(-0.000182384 0.0195168 0)
(-0.00018876 0.0191453 0)
(-0.000194383 0.0187618 0)
(-0.000199298 0.0183678 0)
(-0.000203547 0.0179647 0)
(-0.000207172 0.0175537 0)
(-0.000210212 0.017136 0)
(-0.000212707 0.0167129 0)
(-0.000214694 0.0162853 0)
(-0.000216208 0.0158542 0)
(-0.000217285 0.0154205 0)
(-0.000217958 0.0149851 0)
(-0.00021826 0.0145487 0)
(-0.000218221 0.0141121 0)
(-0.000217871 0.0136759 0)
(-0.000217239 0.0132407 0)
(-0.000216352 0.012807 0)
(-0.000215236 0.0123753 0)
(-0.000213916 0.0119461 0)
(-0.000212416 0.0115197 0)
(-0.000210759 0.0110965 0)
(-0.000208967 0.0106767 0)
(-0.00020706 0.0102607 0)
(-0.000205057 0.00984852 0)
(-0.000202979 0.00944047 0)
(-0.000200842 0.00903665 0)
(-0.000198662 0.00863716 0)
(-0.000196457 0.00824205 0)
(-0.00019424 0.00785138 0)
(-0.000192027 0.00746514 0)
(-0.00018983 0.00708332 0)
(-0.000187662 0.00670587 0)
(-0.000185535 0.00633272 0)
(-0.000183459 0.00596377 0)
(-0.000181445 0.00559893 0)
(-0.000179503 0.00523804 0)
(-0.00017764 0.00488096 0)
(-0.000175867 0.00452752 0)
(-0.00017419 0.00417753 0)
(-0.000172615 0.0038308 0)
(-0.000171151 0.00348712 0)
(-0.000169801 0.00314624 0)
(-0.000168572 0.00280795 0)
(-0.000167468 0.002472 0)
(-0.000166494 0.00213812 0)
(-0.000165651 0.00180606 0)
(-0.000164945 0.00147556 0)
(-0.000164377 0.00114632 0)
(-0.000163949 0.000818088 0)
(-0.000163663 0.000490566 0)
(-0.00016352 0.000163474 0)
(0.00625962 -0.0349368 0)
(0.00596784 -0.0308629 0)
(0.00568135 -0.0269816 0)
(0.00540058 -0.0232894 0)
(0.00512596 -0.0197824 0)
(0.00485768 -0.0164563 0)
(0.00459612 -0.0133069 0)
(0.00434117 -0.0103297 0)
(0.0040932 -0.00751998 0)
(0.00385261 -0.00487313 0)
(0.00361915 -0.00238434 0)
(0.00339282 -4.88095e-05 0)
(0.00317388 0.00213835 0)
(0.00296247 0.00418212 0)
(0.00275852 0.00608747 0)
(0.00256193 0.00785933 0)
(0.00237265 0.00950259 0)
(0.00219065 0.0110221 0)
(0.00201591 0.0124228 0)
(0.00184836 0.0137094 0)
(0.00168792 0.0148867 0)
(0.00153448 0.0159595 0)
(0.0013879 0.0169322 0)
(0.00124805 0.0178096 0)
(0.00111479 0.0185959 0)
(0.00098798 0.0192956 0)
(0.000867475 0.0199129 0)
(0.000753119 0.020452 0)
(0.000644755 0.0209169 0)
(0.00054222 0.0213115 0)
(0.000445347 0.0216396 0)
(0.000353968 0.0219051 0)
(0.000267909 0.0221115 0)
(0.000186999 0.0222623 0)
(0.000111062 0.0223608 0)
(3.99243e-05 0.0224103 0)
(-2.65887e-05 0.022414 0)
(-8.86508e-05 0.0223749 0)
(-0.000146435 0.0222958 0)
(-0.000200112 0.0221797 0)
(-0.000249852 0.0220291 0)
(-0.000295823 0.0218466 0)
(-0.000338189 0.0216347 0)
(-0.000377113 0.0213958 0)
(-0.000412755 0.021132 0)
(-0.000445273 0.0208456 0)
(-0.000474818 0.0205385 0)
(-0.000501542 0.0202126 0)
(-0.000525591 0.0198699 0)
(-0.000547108 0.019512 0)
(-0.000566233 0.0191406 0)
(-0.000583101 0.0187572 0)
(-0.000597845 0.0183633 0)
(-0.000610591 0.0179602 0)
(-0.000621464 0.0175493 0)
(-0.000630585 0.0171318 0)
(-0.000638069 0.0167088 0)
(-0.000644028 0.0162812 0)
(-0.00064857 0.0158502 0)
(-0.000651801 0.0154167 0)
(-0.000653821 0.0149814 0)
(-0.000654725 0.0145451 0)
(-0.000654608 0.0141086 0)
(-0.000653559 0.0136725 0)
(-0.000651663 0.0132374 0)
(-0.000649001 0.0128038 0)
(-0.000645654 0.0123722 0)
(-0.000641694 0.0119431 0)
(-0.000637195 0.0115168 0)
(-0.000632225 0.0110937 0)
(-0.000626849 0.0106741 0)
(-0.000621128 0.0102581 0)
(-0.000615122 0.00984609 0)
(-0.000608886 0.00943815 0)
(-0.000602475 0.00903442 0)
(-0.000595938 0.00863503 0)
(-0.000589322 0.00824002 0)
(-0.000582674 0.00784944 0)
(-0.000576034 0.0074633 0)
(-0.000569444 0.00708157 0)
(-0.00056294 0.00670421 0)
(-0.000556558 0.00633115 0)
(-0.000550331 0.0059623 0)
(-0.00054429 0.00559754 0)
(-0.000538463 0.00523675 0)
(-0.000532878 0.00487976 0)
(-0.000527558 0.0045264 0)
(-0.000522526 0.0041765 0)
(-0.000517804 0.00382986 0)
(-0.00051341 0.00348626 0)
(-0.000509362 0.00314547 0)
(-0.000505675 0.00280726 0)
(-0.000502364 0.00247139 0)
(-0.000499439 0.00213759 0)
(-0.000496914 0.00180562 0)
(-0.000494795 0.00147519 0)
(-0.000493091 0.00114604 0)
(-0.000491808 0.000817886 0)
(-0.00049095 0.000490445 0)
(-0.00049052 0.000163434 0)
(0.0104309 -0.0349195 0)
(0.00994466 -0.0308476 0)
(0.00946741 -0.0269683 0)
(0.00899955 -0.0232779 0)
(0.00854193 -0.0197726 0)
(0.0080948 -0.0164482 0)
(0.00765883 -0.0133004 0)
(0.00723412 -0.0103246 0)
(0.00682099 -0.00751624 0)
(0.00641995 -0.0048707 0)
(0.00603083 -0.00238318 0)
(0.00565374 -4.88211e-05 0)
(0.00528897 0.00213728 0)
(0.00493668 0.00418007 0)
(0.00459679 0.00608449 0)
(0.00426917 0.00785547 0)
(0.00395374 0.00949791 0)
(0.00365047 0.0110167 0)
(0.00335929 0.0124166 0)
(0.0030801 0.0137026 0)
(0.00281275 0.0148794 0)
(0.00255705 0.0159516 0)
(0.00231278 0.0169239 0)
(0.00207973 0.0178008 0)
(0.00185767 0.0185867 0)
(0.00164636 0.0192861 0)
(0.00144555 0.0199031 0)
(0.00125499 0.0204419 0)
(0.00107441 0.0209065 0)
(0.000903551 0.0213009 0)
(0.000742123 0.021629 0)
(0.000589849 0.0218943 0)
(0.000446442 0.0221006 0)
(0.000311613 0.0222513 0)
(0.000185073 0.0223497 0)
(6.65296e-05 0.0223992 0)
(-4.43072e-05 0.0224029 0)
(-0.000147727 0.0223638 0)
(-0.000244018 0.0222848 0)
(-0.000333465 0.0221687 0)
(-0.000416352 0.0220182 0)
(-0.000492957 0.0218358 0)
(-0.000563555 0.021624 0)
(-0.000628419 0.0213852 0)
(-0.000687813 0.0211216 0)
(-0.000741999 0.0208353 0)
(-0.000791233 0.0205283 0)
(-0.000835765 0.0202026 0)
(-0.00087584 0.0198601 0)
(-0.000911697 0.0195024 0)
(-0.000943566 0.0191311 0)
(-0.000971675 0.0187479 0)
(-0.000996244 0.0183542 0)
(-0.00101748 0.0179514 0)
(-0.0010356 0.0175407 0)
(-0.0010508 0.0171233 0)
(-0.00106327 0.0167005 0)
(-0.0010732 0.0162732 0)
(-0.00108077 0.0158424 0)
(-0.00108616 0.0154091 0)
(-0.00108952 0.014974 0)
(-0.00109103 0.0145379 0)
(-0.00109083 0.0141016 0)
(-0.00108909 0.0136657 0)
(-0.00108593 0.0132309 0)
(-0.00108149 0.0127975 0)
(-0.00107591 0.0123661 0)
(-0.00106931 0.0119372 0)
(-0.00106182 0.0115112 0)
(-0.00105354 0.0110883 0)
(-0.00104458 0.0106688 0)
(-0.00103504 0.0102531 0)
(-0.00102503 0.00984123 0)
(-0.00101464 0.00943349 0)
(-0.00100396 0.00902997 0)
(-0.000993066 0.00863077 0)
(-0.000982042 0.00823595 0)
(-0.000970963 0.00784557 0)
(-0.000959899 0.00745961 0)
(-0.000948917 0.00707808 0)
(-0.000938079 0.0067009 0)
(-0.000927445 0.00632803 0)
(-0.000917068 0.00595936 0)
(-0.000907001 0.00559478 0)
(-0.000897291 0.00523416 0)
(-0.000887983 0.00487735 0)
(-0.000879118 0.00452417 0)
(-0.000870733 0.00417444 0)
(-0.000862864 0.00382797 0)
(-0.000855543 0.00348453 0)
(-0.000848797 0.00314392 0)
(-0.000842653 0.00280587 0)
(-0.000837135 0.00247017 0)
(-0.000832262 0.00213654 0)
(-0.000828053 0.00180473 0)
(-0.000824522 0.00147446 0)
(-0.000821683 0.00114547 0)
(-0.000819545 0.000817482 0)
(-0.000818115 0.000490203 0)
(-0.000817399 0.000163353 0)
(0.0145996 -0.0348936 0)
(0.013919 -0.0308246 0)
(0.013251 -0.0269483 0)
(0.0125963 -0.0232607 0)
(0.0119557 -0.019758 0)
(0.01133 -0.016436 0)
(0.0107197 -0.0132905 0)
(0.0101253 -0.0103169 0)
(0.00954706 -0.00751067 0)
(0.00898568 -0.00486711 0)
(0.00844103 -0.00238143 0)
(0.00791327 -4.87972e-05 0)
(0.00740277 0.0021357 0)
(0.00690969 0.00417699 0)
(0.00643393 0.00608 0)
(0.00597535 0.00784966 0)
(0.00553385 0.00949087 0)
(0.00510938 0.0110085 0)
(0.00470184 0.0124074 0)
(0.00431108 0.0136925 0)
(0.00393689 0.0148683 0)
(0.00357899 0.0159398 0)
(0.0032371 0.0169113 0)
(0.00291091 0.0177876 0)
(0.0026001 0.018573 0)
(0.00230434 0.0192718 0)
(0.00202327 0.0198884 0)
(0.00175655 0.0204268 0)
(0.00150381 0.020891 0)
(0.00126466 0.0212852 0)
(0.00103872 0.021613 0)
(0.000825585 0.0218781 0)
(0.000624864 0.0220842 0)
(0.000436151 0.0222348 0)
(0.000259038 0.0223332 0)
(9.31184e-05 0.0223827 0)
(-6.20148e-05 0.0223863 0)
(-0.000206767 0.0223473 0)
(-0.000341541 0.0222683 0)
(-0.000466736 0.0221523 0)
(-0.000582749 0.0220019 0)
(-0.000689969 0.0218196 0)
(-0.000788783 0.021608 0)
(-0.000879569 0.0213694 0)
(-0.0009627 0.0211059 0)
(-0.00103854 0.0208198 0)
(-0.00110745 0.0205131 0)
(-0.00116978 0.0201877 0)
(-0.00122587 0.0198454 0)
(-0.00127606 0.0194879 0)
(-0.00132067 0.019117 0)
(-0.00136001 0.018734 0)
(-0.0013944 0.0183406 0)
(-0.00142413 0.0179381 0)
(-0.00144949 0.0175277 0)
(-0.00147076 0.0171107 0)
(-0.00148821 0.0166881 0)
(-0.00150211 0.0162612 0)
(-0.00151271 0.0158307 0)
(-0.00152024 0.0153977 0)
(-0.00152495 0.0149629 0)
(-0.00152706 0.0145272 0)
(-0.00152679 0.0140912 0)
(-0.00152434 0.0136556 0)
(-0.00151992 0.0132211 0)
(-0.00151371 0.012788 0)
(-0.00150591 0.012357 0)
(-0.00149667 0.0119284 0)
(-0.00148618 0.0115026 0)
(-0.00147459 0.01108 0)
(-0.00146205 0.0106609 0)
(-0.0014487 0.0102455 0)
(-0.00143469 0.00983394 0)
(-0.00142015 0.0094265 0)
(-0.0014052 0.00902328 0)
(-0.00138995 0.00862437 0)
(-0.00137452 0.00822986 0)
(-0.00135901 0.00783976 0)
(-0.00134353 0.00745409 0)
(-0.00132816 0.00707283 0)
(-0.00131299 0.00669594 0)
(-0.0012981 0.00632334 0)
(-0.00128358 0.00595495 0)
(-0.00126949 0.00559064 0)
(-0.0012559 0.00523029 0)
(-0.00124287 0.00487374 0)
(-0.00123046 0.00452082 0)
(-0.00121873 0.00417135 0)
(-0.00120771 0.00382513 0)
(-0.00119746 0.00348195 0)
(-0.00118802 0.00314159 0)
(-0.00117942 0.0028038 0)
(-0.0011717 0.00246834 0)
(-0.00116488 0.00213496 0)
(-0.00115899 0.00180339 0)
(-0.00115405 0.00147337 0)
(-0.00115007 0.00114463 0)
(-0.00114708 0.000816877 0)
(-0.00114508 0.00048984 0)
(-0.00114408 0.000163232 0)
(0.0187649 -0.0348593 0)
(0.01789 -0.0307942 0)
(0.0170314 -0.0269217 0)
(0.0161898 -0.0232377 0)
(0.0153666 -0.0197385 0)
(0.0145623 -0.0164198 0)
(0.013778 -0.0132774 0)
(0.0130139 -0.0103067 0)
(0.0122708 -0.00750325 0)
(0.0115492 -0.00486232 0)
(0.0108491 -0.00237909 0)
(0.0101709 -4.87464e-05 0)
(0.00951476 0.0021336 0)
(0.00888099 0.00417287 0)
(0.00826947 0.006074 0)
(0.00768004 0.00784191 0)
(0.00711259 0.00948149 0)
(0.00656703 0.0109976 0)
(0.00604324 0.0123952 0)
(0.005541 0.0136789 0)
(0.00506005 0.0148536 0)
(0.00460005 0.015924 0)
(0.00416062 0.0168946 0)
(0.00374137 0.01777 0)
(0.00334189 0.0185546 0)
(0.00296174 0.0192528 0)
(0.00260049 0.0198687 0)
(0.00225768 0.0204066 0)
(0.00193283 0.0208704 0)
(0.00162545 0.0212641 0)
(0.00133505 0.0215916 0)
(0.00106112 0.0218565 0)
(0.000803133 0.0220624 0)
(0.000560581 0.0222128 0)
(0.000332939 0.0223111 0)
(0.000119684 0.0223605 0)
(-7.97071e-05 0.0223642 0)
(-0.000265756 0.0223252 0)
(-0.000438979 0.0222463 0)
(-0.000599892 0.0221304 0)
(-0.000749002 0.0219802 0)
(-0.000886811 0.0217981 0)
(-0.00101382 0.0215867 0)
(-0.0011305 0.0213483 0)
(-0.00123735 0.0210851 0)
(-0.00133483 0.0207993 0)
(-0.0014234 0.0204929 0)
(-0.00150351 0.0201677 0)
(-0.0015756 0.0198258 0)
(-0.00164011 0.0194687 0)
(-0.00169744 0.0190981 0)
(-0.00174801 0.0187155 0)
(-0.00179221 0.0183225 0)
(-0.00183042 0.0179204 0)
(-0.00186301 0.0175104 0)
(-0.00189035 0.0170938 0)
(-0.00191279 0.0166717 0)
(-0.00193065 0.0162451 0)
(-0.00194427 0.0158151 0)
(-0.00195396 0.0153824 0)
(-0.00196001 0.0149481 0)
(-0.00196272 0.0145128 0)
(-0.00196237 0.0140773 0)
(-0.00195923 0.0136421 0)
(-0.00195354 0.013208 0)
(-0.00194556 0.0127754 0)
(-0.00193553 0.0123448 0)
(-0.00192366 0.0119166 0)
(-0.00191017 0.0114913 0)
(-0.00189527 0.0110691 0)
(-0.00187915 0.0106504 0)
(-0.001862 0.0102353 0)
(-0.001844 0.00982423 0)
(-0.00182531 0.00941719 0)
(-0.00180609 0.00901437 0)
(-0.00178649 0.00861585 0)
(-0.00176666 0.00822173 0)
(-0.00174673 0.00783201 0)
(-0.00172682 0.00744673 0)
(-0.00170707 0.00706585 0)
(-0.00168757 0.00668933 0)
(-0.00166844 0.0063171 0)
(-0.00164977 0.00594906 0)
(-0.00163166 0.00558512 0)
(-0.00161419 0.00522512 0)
(-0.00159745 0.00486892 0)
(-0.0015815 0.00451635 0)
(-0.00156642 0.00416723 0)
(-0.00155226 0.00382136 0)
(-0.00153909 0.00347851 0)
(-0.00152695 0.00313848 0)
(-0.0015159 0.00280103 0)
(-0.00150598 0.0024659 0)
(-0.00149721 0.00213285 0)
(-0.00148964 0.00180161 0)
(-0.00148329 0.00147192 0)
(-0.00147818 0.0011435 0)
(-0.00147433 0.00081607 0)
(-0.00147176 0.000489356 0)
(-0.00147047 0.000163071 0)
(0.0229256 -0.0348163 0)
(0.0218567 -0.0307562 0)
(0.0208075 -0.0268884 0)
(0.0197794 -0.023209 0)
(0.0187736 -0.0197141 0)
(0.0177911 -0.0163995 0)
(0.0168328 -0.0132609 0)
(0.0158994 -0.010294 0)
(0.0149914 -0.007494 0)
(0.0141098 -0.00485632 0)
(0.0132546 -0.00237615 0)
(0.012426 -4.86802e-05 0)
(0.0116244 0.00213097 0)
(0.0108501 0.00416773 0)
(0.010103 0.0060665 0)
(0.00938283 0.00783222 0)
(0.00868957 0.00946977 0)
(0.00802306 0.010984 0)
(0.00738314 0.0123798 0)
(0.00676956 0.013662 0)
(0.00618198 0.0148353 0)
(0.00561998 0.0159043 0)
(0.00508312 0.0168738 0)
(0.00457091 0.0177481 0)
(0.00408285 0.0185317 0)
(0.00361842 0.019229 0)
(0.00317707 0.0198442 0)
(0.00275825 0.0203814 0)
(0.00236138 0.0208446 0)
(0.00198585 0.0212379 0)
(0.00163106 0.0215649 0)
(0.00129639 0.0218295 0)
(0.000981202 0.0220351 0)
(0.000684873 0.0221854 0)
(0.000406758 0.0222836 0)
(0.00014622 0.0223329 0)
(-9.73799e-05 0.0223366 0)
(-0.000324679 0.0222976 0)
(-0.00053631 0.0222188 0)
(-0.0007329 0.0221031 0)
(-0.00091507 0.021953 0)
(-0.00108343 0.0217712 0)
(-0.0012386 0.02156 0)
(-0.00138116 0.0213219 0)
(-0.00151169 0.021059 0)
(-0.00163079 0.0207736 0)
(-0.00173899 0.0204675 0)
(-0.00183687 0.0201428 0)
(-0.00192495 0.0198013 0)
(-0.00200375 0.0194446 0)
(-0.0020738 0.0190745 0)
(-0.00213558 0.0186924 0)
(-0.00218957 0.0182999 0)
(-0.00223626 0.0178982 0)
(-0.00227608 0.0174887 0)
(-0.00230948 0.0170726 0)
(-0.00233689 0.0166511 0)
(-0.00235872 0.016225 0)
(-0.00237535 0.0157955 0)
(-0.00238719 0.0153634 0)
(-0.00239458 0.0149296 0)
(-0.0023979 0.0144949 0)
(-0.00239747 0.0140599 0)
(-0.00239362 0.0136253 0)
(-0.00238668 0.0131917 0)
(-0.00237693 0.0127596 0)
(-0.00236467 0.0123295 0)
(-0.00235017 0.0119019 0)
(-0.00233369 0.0114771 0)
(-0.00231549 0.0110554 0)
(-0.0022958 0.0106372 0)
(-0.00227485 0.0102227 0)
(-0.00225285 0.00981209 0)
(-0.00223001 0.00940555 0)
(-0.00220653 0.00900323 0)
(-0.00218259 0.00860521 0)
(-0.00215836 0.00821157 0)
(-0.00213401 0.00782234 0)
(-0.00210969 0.00743753 0)
(-0.00208556 0.00705712 0)
(-0.00206174 0.00668106 0)
(-0.00203836 0.00630929 0)
(-0.00201556 0.00594171 0)
(-0.00199343 0.00557822 0)
(-0.00197209 0.00521866 0)
(-0.00195164 0.00486291 0)
(-0.00193215 0.00451077 0)
(-0.00191372 0.00416208 0)
(-0.00189643 0.00381663 0)
(-0.00188034 0.00347422 0)
(-0.00186551 0.00313461 0)
(-0.00185201 0.00279757 0)
(-0.00183988 0.00246285 0)
(-0.00182917 0.00213021 0)
(-0.00181992 0.00179938 0)
(-0.00181216 0.0014701 0)
(-0.00180592 0.00114208 0)
(-0.00180122 0.000815061 0)
(-0.00179808 0.000488751 0)
(-0.0017965 0.00016287 0)
(0.0270805 -0.0347646 0)
(0.0258179 -0.0307106 0)
(0.0245786 -0.0268485 0)
(0.0233642 -0.0231746 0)
(0.0221761 -0.0196848 0)
(0.0210155 -0.0163752 0)
(0.0198835 -0.0132413 0)
(0.0187809 -0.0102787 0)
(0.0177084 -0.00748288 0)
(0.016667 -0.00484912 0)
(0.0156568 -0.00237262 0)
(0.014678 -4.86018e-05 0)
(0.0137312 0.00212782 0)
(0.0128165 0.00416154 0)
(0.011934 0.0060575 0)
(0.0110833 0.00782059 0)
(0.0102644 0.00945571 0)
(0.00947711 0.0109677 0)
(0.00872123 0.0123615 0)
(0.00799645 0.0136417 0)
(0.00730238 0.0148133 0)
(0.00663853 0.0158807 0)
(0.00600436 0.0168487 0)
(0.00539932 0.0177218 0)
(0.0048228 0.0185042 0)
(0.0042742 0.0192005 0)
(0.00375287 0.0198147 0)
(0.00325814 0.0203511 0)
(0.00278934 0.0208137 0)
(0.00234575 0.0212064 0)
(0.00192666 0.0215329 0)
(0.00153134 0.0217971 0)
(0.00115903 0.0220025 0)
(0.000808995 0.0221525 0)
(0.000480477 0.0222505 0)
(0.00017272 0.0222998 0)
(-0.000115029 0.0223035 0)
(-0.000383522 0.0222645 0)
(-0.000633508 0.0221859 0)
(-0.000865727 0.0220703 0)
(-0.00108091 0.0219204 0)
(-0.00127979 0.0217389 0)
(-0.00146308 0.021528 0)
(-0.00163147 0.0212903 0)
(-0.00178567 0.0210278 0)
(-0.00192634 0.0207428 0)
(-0.00205416 0.0204372 0)
(-0.00216977 0.0201129 0)
(-0.00227381 0.0197719 0)
(-0.0023669 0.0194158 0)
(-0.00244964 0.0190462 0)
(-0.00252262 0.0186647 0)
(-0.0025864 0.0182727 0)
(-0.00264154 0.0178717 0)
(-0.00268858 0.0174628 0)
(-0.00272804 0.0170473 0)
(-0.00276042 0.0166263 0)
(-0.0027862 0.0162009 0)
(-0.00280585 0.0157721 0)
(-0.00281983 0.0153406 0)
(-0.00282856 0.0149075 0)
(-0.00283248 0.0144734 0)
(-0.00283197 0.014039 0)
(-0.00282743 0.0136051 0)
(-0.00281923 0.0131721 0)
(-0.00280771 0.0127407 0)
(-0.00279323 0.0123112 0)
(-0.0027761 0.0118842 0)
(-0.00275664 0.0114601 0)
(-0.00273514 0.011039 0)
(-0.00271188 0.0106214 0)
(-0.00268713 0.0102075 0)
(-0.00266114 0.00979753 0)
(-0.00263417 0.0093916 0)
(-0.00260643 0.00898987 0)
(-0.00257815 0.00859244 0)
(-0.00254953 0.00819938 0)
(-0.00252077 0.00781073 0)
(-0.00249204 0.00742649 0)
(-0.00246353 0.00704665 0)
(-0.0024354 0.00667115 0)
(-0.00240779 0.00629993 0)
(-0.00238085 0.0059329 0)
(-0.00235471 0.00556994 0)
(-0.0023295 0.00521092 0)
(-0.00230534 0.00485569 0)
(-0.00228232 0.00450408 0)
(-0.00226056 0.00415591 0)
(-0.00224013 0.00381097 0)
(-0.00222112 0.00346906 0)
(-0.00220361 0.00312995 0)
(-0.00218766 0.00279341 0)
(-0.00217333 0.0024592 0)
(-0.00216068 0.00212705 0)
(-0.00214975 0.00179671 0)
(-0.00214059 0.00146792 0)
(-0.00213321 0.00114039 0)
(-0.00212766 0.000813852 0)
(-0.00212395 0.000488026 0)
(-0.00212209 0.000162628 0)
(0.0312288 -0.0347043 0)
(0.0297727 -0.0306574 0)
(0.0283436 -0.026802 0)
(0.0269431 -0.0231344 0)
(0.025573 -0.0196507 0)
(0.0242346 -0.0163468 0)
(0.0229293 -0.0132183 0)
(0.0216578 -0.0102609 0)
(0.020421 -0.00746992 0)
(0.0192201 -0.00484071 0)
(0.0180551 -0.00236851 0)
(0.0169264 -4.85109e-05 0)
(0.0158345 0.00212413 0)
(0.0147798 0.00415433 0)
(0.013762 0.006047 0)
(0.012781 0.00780703 0)
(0.0118367 0.00943932 0)
(0.0109288 0.0109487 0)
(0.0100572 0.0123401 0)
(0.00922137 0.0136181 0)
(0.00842098 0.0147876 0)
(0.00765543 0.0158532 0)
(0.00692412 0.0168195 0)
(0.0062264 0.017691 0)
(0.00556157 0.0184722 0)
(0.00492893 0.0191672 0)
(0.00432773 0.0197804 0)
(0.00375723 0.0203159 0)
(0.00321661 0.0207776 0)
(0.00270508 0.0211696 0)
(0.00222179 0.0214956 0)
(0.00176591 0.0217593 0)
(0.00133657 0.0219643 0)
(0.000932918 0.0221141 0)
(0.000554077 0.0222119 0)
(0.000199178 0.0222611 0)
(-0.000132649 0.0222648 0)
(-0.000442271 0.0222259 0)
(-0.00073055 0.0221474 0)
(-0.00099834 0.022032 0)
(-0.00124649 0.0218824 0)
(-0.00147583 0.0217012 0)
(-0.00168719 0.0214907 0)
(-0.00188138 0.0212534 0)
(-0.0020592 0.0209914 0)
(-0.00222142 0.0207068 0)
(-0.00236882 0.0204018 0)
(-0.00250214 0.0200781 0)
(-0.00262212 0.0197376 0)
(-0.00272947 0.0193821 0)
(-0.00282488 0.0190132 0)
(-0.00290904 0.0186323 0)
(-0.00298259 0.0182411 0)
(-0.00304618 0.0178407 0)
(-0.00310043 0.0174325 0)
(-0.00314593 0.0170178 0)
(-0.00318326 0.0165975 0)
(-0.00321299 0.0161729 0)
(-0.00323566 0.0157447 0)
(-0.00325177 0.0153141 0)
(-0.00326185 0.0148817 0)
(-0.00326636 0.0144483 0)
(-0.00326578 0.0140147 0)
(-0.00326054 0.0135815 0)
(-0.00325108 0.0131493 0)
(-0.0032378 0.0127186 0)
(-0.0032211 0.0122899 0)
(-0.00320135 0.0118636 0)
(-0.00317891 0.0114402 0)
(-0.00315411 0.0110199 0)
(-0.00312729 0.010603 0)
(-0.00309875 0.0101898 0)
(-0.00306878 0.00978055 0)
(-0.00303768 0.00937533 0)
(-0.00300569 0.00897429 0)
(-0.00297308 0.00857755 0)
(-0.00294007 0.00818518 0)
(-0.0029069 0.0077972 0)
(-0.00287378 0.00741362 0)
(-0.0028409 0.00703444 0)
(-0.00280845 0.00665959 0)
(-0.00277662 0.00628901 0)
(-0.00274555 0.00592262 0)
(-0.00271541 0.00556029 0)
(-0.00268634 0.00520189 0)
(-0.00265848 0.00484728 0)
(-0.00263193 0.00449628 0)
(-0.00260683 0.00414871 0)
(-0.00258327 0.00380437 0)
(-0.00256135 0.00346305 0)
(-0.00254116 0.00312453 0)
(-0.00252276 0.00278857 0)
(-0.00250624 0.00245494 0)
(-0.00249166 0.00212337 0)
(-0.00247905 0.0017936 0)
(-0.00246848 0.00146537 0)
(-0.00245998 0.00113841 0)
(-0.00245358 0.000812442 0)
(-0.0024493 0.000487181 0)
(-0.00244716 0.000162346 0)
(0.0353693 -0.0346355 0)
(0.0337202 -0.0305966 0)
(0.0321016 -0.0267489 0)
(0.0305154 -0.0230885 0)
(0.0289637 -0.0196118 0)
(0.0274478 -0.0163144 0)
(0.0259694 -0.0131921 0)
(0.0245293 -0.0102406 0)
(0.0231286 -0.00745511 0)
(0.0217684 -0.00483111 0)
(0.020449 -0.00236381 0)
(0.0191706 -4.84109e-05 0)
(0.017934 0.00211993 0)
(0.0167394 0.0041461 0)
(0.0155867 0.00603501 0)
(0.0144756 0.00779155 0)
(0.0134061 0.0094206 0)
(0.0123778 0.010927 0)
(0.0113906 0.0123156 0)
(0.010444 0.0135911 0)
(0.0095375 0.0147583 0)
(0.00867045 0.0158218 0)
(0.00784218 0.0167862 0)
(0.00705194 0.017656 0)
(0.00629896 0.0184355 0)
(0.00558244 0.0191292 0)
(0.00490153 0.0197412 0)
(0.00425538 0.0202756 0)
(0.00364309 0.0207365 0)
(0.00306373 0.0211277 0)
(0.00251637 0.021453 0)
(0.00200004 0.0217162 0)
(0.00151378 0.0219208 0)
(0.00105661 0.0220702 0)
(0.00062754 0.0221679 0)
(0.000225586 0.022217 0)
(-0.000150237 0.0222207 0)
(-0.000500911 0.0221819 0)
(-0.000827411 0.0221035 0)
(-0.00113071 0.0219884 0)
(-0.00141176 0.0218391 0)
(-0.00167151 0.0216582 0)
(-0.00191089 0.0214481 0)
(-0.00213083 0.0212112 0)
(-0.00233222 0.0209498 0)
(-0.00251595 0.0206658 0)
(-0.0026829 0.0203613 0)
(-0.0028339 0.0200383 0)
(-0.00296978 0.0196985 0)
(-0.00309136 0.0193437 0)
(-0.00319942 0.0189755 0)
(-0.00329474 0.0185954 0)
(-0.00337804 0.0182049 0)
(-0.00345006 0.0178053 0)
(-0.0035115 0.017398 0)
(-0.00356304 0.016984 0)
(-0.00360532 0.0165646 0)
(-0.00363899 0.0161408 0)
(-0.00366466 0.0157135 0)
(-0.00368292 0.0152837 0)
(-0.00369433 0.0148522 0)
(-0.00369944 0.0144197 0)
(-0.00369878 0.0139869 0)
(-0.00369285 0.0135546 0)
(-0.00368213 0.0131232 0)
(-0.0036671 0.0126934 0)
(-0.00364818 0.0122655 0)
(-0.00362581 0.0118401 0)
(-0.00360039 0.0114175 0)
(-0.0035723 0.010998 0)
(-0.00354192 0.010582 0)
(-0.0035096 0.0101696 0)
(-0.00347566 0.00976116 0)
(-0.00344043 0.00935674 0)
(-0.00340421 0.0089565 0)
(-0.00336727 0.00856055 0)
(-0.00332989 0.00816895 0)
(-0.00329232 0.00778174 0)
(-0.0032548 0.00739893 0)
(-0.00321757 0.00702049 0)
(-0.00318082 0.00664639 0)
(-0.00314476 0.00627655 0)
(-0.00310957 0.00591088 0)
(-0.00307544 0.00554926 0)
(-0.00304252 0.00519158 0)
(-0.00301095 0.00483767 0)
(-0.00298089 0.00448736 0)
(-0.00295246 0.00414048 0)
(-0.00292578 0.00379683 0)
(-0.00290096 0.00345619 0)
(-0.00287808 0.00311834 0)
(-0.00285725 0.00278305 0)
(-0.00283854 0.00245007 0)
(-0.00282202 0.00211916 0)
(-0.00280774 0.00179004 0)
(-0.00279577 0.00146247 0)
(-0.00278615 0.00113616 0)
(-0.00277889 0.000810831 0)
(-0.00277405 0.000486215 0)
(-0.00277162 0.000162024 0)
(0.0395011 -0.0345581 0)
(0.0376594 -0.0305283 0)
(0.0358516 -0.0266891 0)
(0.0340802 -0.023037 0)
(0.0323472 -0.019568 0)
(0.0306543 -0.016278 0)
(0.0290031 -0.0131627 0)
(0.0273948 -0.0102177 0)
(0.0258305 -0.00743846 0)
(0.0243114 -0.00482032 0)
(0.0228378 -0.00235852 0)
(0.0214101 -4.83016e-05 0)
(0.020029 0.00211519 0)
(0.0186949 0.00413683 0)
(0.0174075 0.00602153 0)
(0.0161666 0.00777415 0)
(0.0149722 0.00939956 0)
(0.0138238 0.0109026 0)
(0.0127213 0.0122881 0)
(0.0116641 0.0135608 0)
(0.0106517 0.0147253 0)
(0.00968333 0.0157865 0)
(0.0087583 0.0167487 0)
(0.00787574 0.0176166 0)
(0.00703479 0.0183944 0)
(0.00623457 0.0190865 0)
(0.00547412 0.0196971 0)
(0.00475249 0.0202303 0)
(0.00406867 0.0206901 0)
(0.00342163 0.0210805 0)
(0.00281033 0.0214051 0)
(0.00223369 0.0216677 0)
(0.00169062 0.0218718 0)
(0.00118004 0.022021 0)
(0.000700848 0.0221184 0)
(0.000251938 0.0221674 0)
(-0.000167788 0.0221711 0)
(-0.000559427 0.0221323 0)
(-0.000924069 0.0220542 0)
(-0.0012628 0.0219393 0)
(-0.00157668 0.0217903 0)
(-0.00186677 0.0216098 0)
(-0.00213412 0.0214002 0)
(-0.00237975 0.0211639 0)
(-0.00260467 0.020903 0)
(-0.00280987 0.0206196 0)
(-0.00299631 0.0203158 0)
(-0.00316495 0.0199935 0)
(-0.00331671 0.0196545 0)
(-0.00345249 0.0193005 0)
(-0.00357318 0.0189331 0)
(-0.00367962 0.0185539 0)
(-0.00377266 0.0181642 0)
(-0.0038531 0.0177656 0)
(-0.00392171 0.0173591 0)
(-0.00397927 0.0169461 0)
(-0.00402649 0.0165276 0)
(-0.0040641 0.0161048 0)
(-0.00409276 0.0156784 0)
(-0.00411315 0.0152496 0)
(-0.00412589 0.014819 0)
(-0.0041316 0.0143875 0)
(-0.00413087 0.0139557 0)
(-0.00412424 0.0135243 0)
(-0.00411228 0.0130939 0)
(-0.00409548 0.012665 0)
(-0.00407436 0.0122381 0)
(-0.00404937 0.0118137 0)
(-0.00402098 0.011392 0)
(-0.00398962 0.0109735 0)
(-0.00395569 0.0105584 0)
(-0.00391959 0.0101469 0)
(-0.00388169 0.00973937 0)
(-0.00384234 0.00933584 0)
(-0.00380188 0.0089365 0)
(-0.00376063 0.00854143 0)
(-0.00371888 0.00815071 0)
(-0.00367693 0.00776436 0)
(-0.00363503 0.0073824 0)
(-0.00359344 0.00700481 0)
(-0.0035524 0.00663154 0)
(-0.00351213 0.00626253 0)
(-0.00347283 0.00589768 0)
(-0.00343471 0.00553687 0)
(-0.00339794 0.00517998 0)
(-0.00336269 0.00482686 0)
(-0.00332912 0.00447734 0)
(-0.00329737 0.00413123 0)
(-0.00326757 0.00378835 0)
(-0.00323984 0.00344847 0)
(-0.0032143 0.00311137 0)
(-0.00319103 0.00277683 0)
(-0.00317013 0.0024446 0)
(-0.00315168 0.00211442 0)
(-0.00313574 0.00178605 0)
(-0.00312237 0.0014592 0)
(-0.00311162 0.00113362 0)
(-0.00310352 0.00080902 0)
(-0.00309811 0.000485129 0)
(-0.0030954 0.000161662 0)
(0.0436232 -0.0344723 0)
(0.0415892 -0.0304524 0)
(0.0395929 -0.0266228 0)
(0.0376366 -0.0229797 0)
(0.0357227 -0.0195193 0)
(0.0338531 -0.0162375 0)
(0.0320297 -0.01313 0)
(0.0302535 -0.0101923 0)
(0.028526 -0.00741997 0)
(0.0268484 -0.00480833 0)
(0.025221 -0.00235266 0)
(0.0236443 -4.81816e-05 0)
(0.0221191 0.00210993 0)
(0.0206457 0.00412655 0)
(0.019224 0.00600656 0)
(0.0178537 0.00775483 0)
(0.0165345 0.0093762 0)
(0.0152664 0.0108755 0)
(0.0140488 0.0122575 0)
(0.0128813 0.0135271 0)
(0.0117632 0.0146888 0)
(0.0106938 0.0157473 0)
(0.00967225 0.0167071 0)
(0.00869759 0.0175728 0)
(0.0077689 0.0183487 0)
(0.00688516 0.0190391 0)
(0.00604536 0.0196482 0)
(0.00524843 0.0201801 0)
(0.00449325 0.0206387 0)
(0.00377869 0.0210281 0)
(0.00310359 0.0213519 0)
(0.00246678 0.0216139 0)
(0.00186704 0.0218175 0)
(0.00130318 0.0219662 0)
(0.000773983 0.0220634 0)
(0.000278229 0.0221123 0)
(-0.000185297 0.022116 0)
(-0.000617805 0.0220773 0)
(-0.0010205 0.0219994 0)
(-0.00139457 0.0218847 0)
(-0.00174121 0.0217361 0)
(-0.00206158 0.0215561 0)
(-0.00235682 0.021347 0)
(-0.00262808 0.0211113 0)
(-0.00287647 0.020851 0)
(-0.00310308 0.0205684 0)
(-0.00330898 0.0202654 0)
(-0.00349522 0.0199439 0)
(-0.00366282 0.0196057 0)
(-0.00381277 0.0192525 0)
(-0.00394605 0.0188861 0)
(-0.0040636 0.0185078 0)
(-0.00416635 0.0181191 0)
(-0.00425518 0.0177214 0)
(-0.00433095 0.017316 0)
(-0.00439452 0.016904 0)
(-0.00444667 0.0164866 0)
(-0.0044882 0.0160647 0)
(-0.00451986 0.0156395 0)
(-0.00454237 0.0152117 0)
(-0.00455644 0.0147822 0)
(-0.00456275 0.0143517 0)
(-0.00456193 0.013921 0)
(-0.00455462 0.0134907 0)
(-0.0045414 0.0130614 0)
(-0.00452286 0.0126336 0)
(-0.00449953 0.0122077 0)
(-0.00447194 0.0117843 0)
(-0.00444058 0.0113637 0)
(-0.00440595 0.0109462 0)
(-0.00436848 0.0105321 0)
(-0.00432861 0.0101217 0)
(-0.00428675 0.00971517 0)
(-0.0042433 0.00931265 0)
(-0.00419862 0.00891429 0)
(-0.00415306 0.00852021 0)
(-0.00410696 0.00813045 0)
(-0.00406062 0.00774507 0)
(-0.00401435 0.00736406 0)
(-0.00396843 0.00698741 0)
(-0.0039231 0.00661507 0)
(-0.00387863 0.00624697 0)
(-0.00383523 0.00588302 0)
(-0.00379313 0.00552311 0)
(-0.00375252 0.00516711 0)
(-0.0037136 0.00481487 0)
(-0.00367652 0.00446622 0)
(-0.00364146 0.00412097 0)
(-0.00360855 0.00377893 0)
(-0.00357793 0.0034399 0)
(-0.00354972 0.00310364 0)
(-0.00352402 0.00276993 0)
(-0.00350095 0.00243852 0)
(-0.00348057 0.00210917 0)
(-0.00346297 0.00178161 0)
(-0.0034482 0.00145558 0)
(-0.00343633 0.0011308 0)
(-0.00342738 0.00080701 0)
(-0.00342141 0.000483924 0)
(-0.00341841 0.000161261 0)
(0.0477345 -0.0343779 0)
(0.0455088 -0.0303691 0)
(0.0433243 -0.0265499 0)
(0.0411837 -0.0229168 0)
(0.0390894 -0.0194659 0)
(0.0370436 -0.0161931 0)
(0.0350483 -0.013094 0)
(0.0331048 -0.0101644 0)
(0.0312144 -0.00739965 0)
(0.0293787 -0.00479517 0)
(0.027598 -0.00234622 0)
(0.0258727 -4.80515e-05 0)
(0.0242038 0.00210415 0)
(0.0225915 0.00411525 0)
(0.0210357 0.00599011 0)
(0.0195363 0.00773359 0)