/*--------------------------------*- C++ -*----------------------------------*\
| =========                 |                                                 |
| \\      /  F ield         | OpenFOAM: The Open Source CFD Toolbox           |
|  \\    /   O peration     | Version:  2406                                  |
|   \\  /    A nd           | Website:  www.openfoam.com                      |
|    \\/     M anipulation  |                                                 |
\*---------------------------------------------------------------------------*/
FoamFile
{
    version     2.0;
    format      ascii;
    arch        "LSB;label=32;scalar=64";
    class       volScalarField;
    location    "120";
    object      gradTx;
}
// * * * * * * * * * * * * * * * * * * * * * * * * * * * * * * * * * * * * * //

dimensions      [0 -1 0 1 0 0 0];

internalField   nonuniform List<scalar> 
20000
(
4.39231
3.95519
3.54034
3.1472
2.77553
2.42434
2.09232
1.78061
1.4884
1.21354
0.955953
0.715756
0.492243
0.28442
0.0914949
-0.087091
-0.251828
-0.403255
-0.54197
-0.6686
-0.783765
-0.88806
-0.982051
-1.06628
-1.14128
-1.20756
-1.26562
-1.31593
-1.35897
-1.3952
-1.42505
-1.44894
-1.46728
-1.48047
-1.48888
-1.49286
-1.49276
-1.48891
-1.48162
-1.47118
-1.45789
-1.442
-1.42378
-1.40346
-1.38127
-1.35742
-1.33213
-1.30557
-1.27794
-1.24938
-1.22007
-1.19015
-1.15975
-1.12901
-1.09803
-1.06694
-1.03582
-1.00478
-0.973894
-0.943249
-0.912913
-0.882953
-0.853428
-0.824393
-0.795896
-0.76798
-0.740686
-0.714048
-0.688096
-0.662859
-0.63836
-0.614619
-0.591654
-0.56948
-0.54811
-0.527553
-0.507817
-0.48891
-0.470836
-0.453599
-0.4372
-0.42164
-0.406919
-0.393038
-0.379993
-0.367784
-0.356407
-0.34586
-0.336141
-0.327245
-0.31917
-0.311913
-0.305471
-0.299841
-0.29502
-0.291006
-0.287798
-0.285393
-0.28379
-0.282989
13.1759
11.8644
10.6201
9.44121
8.32533
7.2718
6.2773
5.34199
4.46429
3.63984
2.86773
2.14739
1.47674
0.85313
0.274341
-0.261328
-0.755432
-1.20963
-1.62574
-2.00561
-2.35109
-2.66396
-2.94592
-3.1986
-3.42358
-3.6224
-3.79654
-3.94747
-4.07659
-4.18525
-4.27479
-4.34646
-4.40149
-4.44105
-4.46626
-4.47821
-4.47791
-4.46635
-4.44448
-4.41318
-4.3733
-4.32564
-4.27097
-4.21002
-4.14346
-4.07194
-3.99606
-3.9164
-3.83349
-3.74784
-3.65992
-3.57016
-3.47897
-3.38674
-3.29382
-3.20054
-3.1072
-3.01408
-2.92144
-2.82951
-2.73851
-2.64864
-2.56007
-2.47298
-2.38749
-2.30375
-2.22188
-2.14197
-2.06412
-1.98841
-1.91492
-1.84371
-1.77482
-1.7083
-1.64419
-1.58253
-1.52333
-1.46661
-1.41239
-1.36068
-1.31149
-1.26482
-1.22066
-1.17902
-1.13989
-1.10326
-1.06913
-1.0375
-1.00834
-0.981655
-0.957432
-0.935663
-0.916338
-0.899449
-0.884987
-0.872947
-0.863323
-0.856108
-0.851301
-0.848898
21.9567
19.7714
17.6972
15.7325
13.873
12.1173
10.461
8.90225
7.43876
6.06499
4.77892
3.57875
2.46099
1.42157
0.456995
-0.435588
-1.25887
-2.01569
-2.70906
-3.34209
-3.91782
-4.4392
-4.90906
-5.33013
-5.70503
-6.03634
-6.32654
-6.57804
-6.7932
-6.97428
-7.12348
-7.24291
-7.33461
-7.40053
-7.44255
-7.46245
-7.46195
-7.4427
-7.40625
-7.35409
-7.28763
-7.20822
-7.11712
-7.01554
-6.90463
-6.78544
-6.659
-6.52626
-6.3881
-6.24538
-6.09886
-5.94928
-5.79733
-5.64364
-5.4888
-5.33336
-5.17782
-5.02265
-4.86827
-4.71508
-4.56344
-4.41368
-4.26609
-4.12095
-3.9785
-3.83895
-3.70252
-3.56936
-3.43963
-3.31348
-3.19101
-3.07234
-2.95754
-2.8467
-2.73987
-2.63711
-2.53846
-2.44395
-2.3536
-2.26743
-2.18546
-2.10768
-2.0341
-1.9647
-1.8995
-1.83847
-1.7816
-1.72888
-1.68029
-1.63582
-1.59546
-1.55918
-1.52698
-1.49883
-1.47474
-1.45467
-1.43863
-1.42661
-1.4186
-1.4146
30.7317
27.6736
24.7703
22.02
19.4175
16.96
14.6419
12.4601
10.4113
8.48873
6.68905
5.00929
3.44461
1.98958
0.639466
-0.609773
-1.76199
-2.82121
-3.79168
-4.67771
-5.48356
-6.21334
-6.87099
-7.46035
-7.98509
-8.4488
-8.85497
-9.20699
-9.50813
-9.76158
-9.97041
-10.1376
-10.2659
-10.3582
-10.417
-10.4448
-10.4442
-10.4172
-10.3662
-10.2932
-10.2002
-10.089
-9.96151
-9.81934
-9.66409
-9.49728
-9.3203
-9.13451
-8.94114
-8.74137
-8.53629
-8.32694
-8.11426
-7.89915
-7.68243
-7.46486
-7.24716
-7.02997
-6.81389
-6.59948
-6.38724
-6.17762
-5.97105
-5.7679
-5.56852
-5.37321
-5.18224
-4.99587
-4.8143
-4.63773
-4.46632
-4.30021
-4.13954
-3.98439
-3.83487
-3.69105
-3.55297
-3.42068
-3.29423
-3.17362
-3.05889
-2.95002
-2.84703
-2.74991
-2.65864
-2.57322
-2.49362
-2.41983
-2.35183
-2.28959
-2.23309
-2.18232
-2.13724
-2.09785
-2.06412
-2.03604
-2.01359
-1.99676
-1.98555
-1.97995
39.4984
35.5683
31.8374
28.3022
24.9573
21.7985
18.8191
16.0149
13.3814
10.9105
8.59759
6.4386
4.42733
2.55705
0.821743
-0.783812
-2.26466
-3.62601
-4.87334
-6.01217
-7.04795
-7.98594
-8.83124
-9.58874
-10.2632
-10.8592
-11.3812
-11.8337
-12.2207
-12.5465
-12.8149
-13.0297
-13.1947
-13.3133
-13.3889
-13.4247
-13.4238
-13.3891
-13.3236
-13.2297
-13.1102
-12.9673
-12.8034
-12.6207
-12.4212
-12.2068
-11.9793
-11.7405
-11.492
-11.2352
-10.9716
-10.7025
-10.4292
-10.1527
-9.87416
-9.59452
-9.31471
-9.03556
-8.75784
-8.48226
-8.20946
-7.94004
-7.67454
-7.41344
-7.15717
-6.90614
-6.66069
-6.42114
-6.18778
-5.96083
-5.74052
-5.52702
-5.32051
-5.12111
-4.92893
-4.74407
-4.5666
-4.39657
-4.23404
-4.07903
-3.93156
-3.79164
-3.65926
-3.53443
-3.41713
-3.30733
-3.20503
-3.11018
-3.02278
-2.94279
-2.87017
-2.80491
-2.74698
-2.69635
-2.653
-2.6169
-2.58805
-2.56642
-2.55201
-2.54481
48.2555
43.454
38.8964
34.5774
30.4909
26.6316
22.9916
19.5657
16.3482
13.3295
10.504
7.86629
5.40892
3.12385
1.0038
-0.957653
-2.76674
-4.4299
-5.95378
-7.34513
-8.61059
-9.75658
-10.7893
-11.7148
-12.5387
-13.2669
-13.9047
-14.4574
-14.9303
-15.3283
-15.6562
-15.9187
-16.1202
-16.2651
-16.3574
-16.4012
-16.4001
-16.3578
-16.2777
-16.163
-16.017
-15.8424
-15.6422
-15.419
-15.1752
-14.9132
-14.6354
-14.3436
-14.04
-13.7263
-13.4042
-13.0755
-12.7415
-12.4038
-12.0635
-11.7218
-11.38
-11.0389
-10.6996
-10.3629
-10.0297
-9.70051
-9.37614
-9.05714
-8.74405
-8.43736
-8.1375
-7.84484
-7.55973
-7.28246
-7.0133
-6.75247
-6.50017
-6.25656
-6.02177
-5.79592
-5.5791
-5.37138
-5.17281
-4.98343
-4.80326
-4.63232
-4.47059
-4.31808
-4.17477
-4.04063
-3.91564
-3.79977
-3.69299
-3.59526
-3.50654
-3.42682
-3.35604
-3.29418
-3.24122
-3.19712
-3.16187
-3.13545
-3.11784
-3.10904
57.001
51.3293
45.9458
40.844
36.0169
31.4581
27.1585
23.1117
19.311
15.7454
12.4078
9.29201
6.38915
3.68986
1.18562
-1.13125
-3.26813
-5.23267
-7.03274
-8.67627
-10.1711
-11.5248
-12.7447
-13.8379
-14.8112
-15.6713
-16.4247
-17.0776
-17.6362
-18.1063
-18.4936
-18.8037
-19.0418
-19.2129
-19.322
-19.3737
-19.3724
-19.3224
-19.2277
-19.0923
-18.9198
-18.7136
-18.4771
-18.2134
-17.9255
-17.616
-17.2878
-16.9432
-16.5845
-16.2139
-15.8336
-15.4452
-15.0508
-14.6518
-14.2498
-13.8462
-13.4424
-13.0396
-12.6388
-12.2411
-11.8474
-11.4586
-11.0754
-10.6986
-10.3288
-9.96651
-9.61229
-9.2666
-8.92981
-8.60229
-8.28435
-7.97626
-7.67823
-7.39046
-7.11312
-6.84634
-6.59023
-6.34486
-6.11031
-5.8866
-5.67378
-5.47185
-5.28082
-5.10067
-4.93138
-4.77294
-4.62529
-4.48842
-4.36229
-4.24684
-4.14205
-4.04787
-3.96427
-3.8912
-3.82864
-3.77655
-3.73491
-3.7037
-3.68291
-3.67251
65.7325
59.1919
52.9838
47.1005
41.534
36.2768
31.3187
26.6521
22.2691
18.1573
14.3086
10.7154
7.36778
4.25496
1.36714
-1.30455
-3.7687
-6.03414
-8.10995
-10.0053
-11.7291
-13.2902
-14.697
-15.9576
-17.08
-18.0719
-18.9407
-19.6936
-20.3377
-20.8799
-21.3265
-21.6841
-21.9586
-22.156
-22.2818
-22.3413
-22.3399
-22.2822
-22.1731
-22.0169
-21.818
-21.5802
-21.3075
-21.0034
-20.6713
-20.3145
-19.936
-19.5385
-19.1249
-18.6976
-18.259
-17.8112
-17.3563
-16.8961
-16.4326
-15.9672
-15.5015
-15.037
-14.5748
-14.1162
-13.6622
-13.2138
-12.772
-12.3374
-11.911
-11.4932
-11.0847
-10.6861
-10.2977
-9.92001
-9.55336
-9.19807
-8.85439
-8.52254
-8.20272
-7.89508
-7.59973
-7.31678
-7.04629
-6.78832
-6.5429
-6.31004
-6.08974
-5.882
-5.68678
-5.50406
-5.3338
-5.17597
-5.03051
-4.89738
-4.77654
-4.66793
-4.57152
-4.48726
-4.41512
-4.35505
-4.30703
-4.27104
-4.24706
-4.23507
74.4477
67.04
60.0087
53.3454
47.0409
41.0866
35.4711
30.1858
25.2217
20.5647
16.2058
12.1362
8.34459
4.81901
1.54833
-1.47752
-4.26833
-6.83411
-9.18515
-11.3318
-13.2842
-15.0523
-16.6456
-18.0734
-19.3447
-20.468
-21.452
-22.3047
-23.0343
-23.6483
-24.1542
-24.5591
-24.8701
-25.0936
-25.236
-25.3035
-25.3018
-25.2365
-25.1129
-24.9361
-24.7107
-24.4415
-24.1326
-23.7882
-23.4121
-23.0079
-22.5792
-22.1291
-21.6606
-21.1767
-20.6799
-20.1727
-19.6575
-19.1363
-18.6113
-18.0842
-17.5568
-17.0307
-16.5072
-15.9878
-15.4736
-14.9658
-14.4654
-13.9732
-13.4902
-13.017
-12.5544
-12.1029
-11.663
-11.2353
-10.82
-10.4176
-10.0284
-9.65252
-9.2903
-8.94186
-8.60736
-8.28689
-7.98054
-7.68837
-7.41041
-7.14667
-6.89717
-6.66187
-6.44077
-6.23383
-6.041
-5.86223
-5.69749
-5.54671
-5.40985
-5.28684
-5.17765
-5.08222
-5.0005
-4.93247
-4.87809
-4.83733
-4.81016
-4.79659
83.1446
74.8715
67.0188
59.5772
52.5361
45.8863
39.6149
33.7122
28.168
22.967
18.0989
13.5539
9.31934
5.38188
1.72915
-1.65011
-4.7669
-7.63239
-10.2581
-12.6555
-14.8361
-16.8107
-18.5902
-20.1848
-21.6045
-22.8591
-23.958
-24.9104
-25.7251
-26.4108
-26.9758
-27.4281
-27.7753
-28.025
-28.1841
-28.2594
-28.2576
-28.1847
-28.0466
-27.8491
-27.5974
-27.2967
-26.9517
-26.5671
-26.147
-25.6957
-25.2169
-24.7142
-24.191
-23.6505
-23.0957
-22.5293
-21.9538
-21.3718
-20.7855
-20.1968
-19.6078
-19.0202
-18.4356
-17.8555
-17.2812
-16.7141
-16.1552
-15.6056
-15.0661
-14.5377
-14.021
-13.5167
-13.0255
-12.5478
-12.084
-11.6346
-11.1999
-10.7801
-10.3756
-9.98644
-9.61286
-9.25495
-8.91282
-8.58651
-8.27608
-7.98154
-7.70289
-7.44011
-7.19318
-6.96206
-6.7467
-6.54705
-6.36306
-6.19467
-6.04182
-5.90444
-5.78249
-5.67591
-5.58466
-5.50868
-5.44794
-5.40242
-5.37208
-5.35692
91.821
82.6846
74.0125
65.7942
58.0185
50.6747
43.7488
37.2302
31.1074
25.3637
19.9876
14.9683
10.2918
5.94342
1.90956
-1.82229
-5.26428
-8.42879
-11.3285
-13.9761
-16.3842
-18.565
-20.5301
-22.2911
-23.859
-25.2445
-26.4581
-27.5099
-28.4096
-29.1669
-29.7908
-30.2903
-30.6738
-30.9495
-31.1252
-31.2084
-31.2063
-31.1258
-30.9734
-30.7552
-30.4773
-30.1452
-29.7642
-29.3394
-28.8756
-28.3771
-27.8483
-27.2932
-26.7154
-26.1185
-25.5058
-24.8802
-24.2448
-23.602
-22.9545
-22.3044
-21.6539
-21.005
-20.3594
-19.7187
-19.0846
-18.4582
-17.841
-17.234
-16.6383
-16.0547
-15.4841
-14.9273
-14.3847
-13.8572
-13.345
-12.8487
-12.3686
-11.9051
-11.4583
-11.0286
-10.616
-10.2207
-9.8429
-9.48254
-9.13971
-8.81444
-8.5067
-8.21651
-7.94381
-7.68857
-7.45074
-7.23026
-7.02707
-6.8411
-6.6723
-6.52059
-6.38591
-6.26821
-6.16743
-6.08353
-6.01645
-5.96618
-5.93268
-5.91593
100.475
90.4773
80.9878
71.9951
63.4865
55.4505
47.872
40.739
34.039
27.754
21.8714
16.379
11.2617
6.50351
2.0895
-1.99402
-5.76036
-9.22309
-12.3961
-15.2933
-17.9284
-20.3147
-22.465
-24.392
-26.1077
-27.6237
-28.9517
-30.1025
-31.0871
-31.9157
-32.5985
-33.145
-33.5647
-33.8663
-34.0586
-34.1497
-34.1474
-34.0593
-33.8925
-33.6538
-33.3496
-32.9862
-32.5694
-32.1045
-31.5969
-31.0515
-30.4729
-29.8655
-29.2332
-28.5801
-27.9096
-27.2251
-26.5297
-25.8264
-25.1179
-24.4065
-23.6947
-22.9846
-22.2782
-21.5771
-20.8832
-20.1979
-19.5225
-18.8583
-18.2064
-17.5678
-16.9434
-16.3341
-15.7404
-15.1631
-14.6027
-14.0596
-13.5343
-13.0271
-12.5382
-12.0679
-11.6165
-11.184
-10.7705
-10.3762
-10.0011
-9.64516
-9.30842
-8.99088
-8.69248
-8.41318
-8.15294
-7.91168
-7.68934
-7.48585
-7.30114
-7.13513
-6.98776
-6.85897
-6.74869
-6.65687
-6.58348
-6.52847
-6.49181
-6.47348
109.104
98.2476
87.9432
78.1781
68.9388
60.2127
51.9833
44.2377
36.9623
30.1376
23.7498
17.7857
12.2289
7.062
2.26892
-2.16524
-6.25501
-10.0151
-13.4606
-16.6067
-19.4681
-22.0593
-24.3944
-26.4869
-28.3498
-29.9961
-31.4381
-32.6878
-33.7569
-34.6567
-35.3981
-35.9916
-36.4473
-36.7748
-36.9836
-37.0825
-37.08
-36.9844
-36.8032
-36.544
-36.2138
-35.8191
-35.3665
-34.8617
-34.3105
-33.7183
-33.09
-32.4304
-31.7438
-31.0346
-30.3065
-29.5632
-28.8082
-28.0445
-27.275
-26.5026
-25.7297
-24.9586
-24.1914
-23.4302
-22.6767
-21.9325
-21.1991
-20.4779
-19.77
-19.0766
-18.3986
-17.7369
-17.0923
-16.4654
-15.8568
-15.2671
-14.6966
-14.1458
-13.615
-13.1044
-12.6141
-12.1445
-11.6955
-11.2674
-10.86
-10.4735
-10.1078
-9.76303
-9.439
-9.13572
-8.85313
-8.59115
-8.34971
-8.12875
-7.92817
-7.74791
-7.58788
-7.44803
-7.32828
-7.22858
-7.14888
-7.08914
-7.04933
-7.02943
117.706
105.994
94.8769
84.3419
74.3742
64.96
56.0818
47.7255
39.8765
32.5137
25.6223
19.188
13.193
7.61875
2.4478
-2.33593
-6.74812
-10.8047
-14.5219
-17.916
-21.003
-23.7985
-26.3177
-28.5752
-30.585
-32.3611
-33.9168
-35.265
-36.4184
-37.3892
-38.189
-38.8293
-39.3209
-39.6743
-39.8995
-40.0062
-40.0035
-39.9003
-39.7049
-39.4252
-39.069
-38.6432
-38.1549
-37.6103
-37.0157
-36.3767
-35.6989
-34.9872
-34.2466
-33.4814
-32.696
-31.8941
-31.0795
-30.2556
-29.4255
-28.5921
-27.7583
-26.9264
-26.0988
-25.2775
-24.4646
-23.6617
-22.8705
-22.0924
-21.3287
-20.5806
-19.8492
-19.1353
-18.4399
-17.7635
-17.107
-16.4708
-15.8554
-15.2611
-14.6884
-14.1375
-13.6087
-13.102
-12.6176
-12.1557
-11.7162
-11.2993
-10.9048
-10.5328
-10.1832
-9.85601
-9.55113
-9.2685
-9.00803
-8.76964
-8.55325
-8.35877
-8.18613
-8.03525
-7.90606
-7.7985
-7.71252
-7.64807
-7.60512
-7.58365
126.279
113.714
101.787
90.4848
79.7911
69.6913
60.1665
51.2016
42.7808
34.8818
27.4885
20.5855
14.1539
8.17362
2.62607
-2.50604
-7.23956
-11.5916
-15.5795
-19.2208
-22.5327
-25.5319
-28.2346
-30.6564
-32.8127
-34.7181
-36.3871
-37.8335
-39.0709
-40.1124
-40.9705
-41.6574
-42.1848
-42.5639
-42.8055
-42.92
-42.9171
-42.8064
-42.5967
-42.2967
-41.9145
-41.4578
-40.9338
-40.3496
-39.7117
-39.0262
-38.299
-37.5355
-36.7409
-35.92
-35.0773
-34.2171
-33.3431
-32.4592
-31.5686
-30.6746
-29.78
-28.8875
-27.9996
-27.1186
-26.2464
-25.3851
-24.5362
-23.7015
-22.8822
-22.0796
-21.2949
-20.529
-19.7829
-19.0573
-18.353
-17.6704
-17.0102
-16.3727
-15.7583
-15.1672
-14.5998
-14.0563
-13.5366
-13.0411
-12.5696
-12.1222
-11.699
-11.2999
-10.9249
-10.5739
-10.2468
-9.94356
-9.66412
-9.40837
-9.17622
-8.96757
-8.78236
-8.62049
-8.48189
-8.36649
-8.27425
-8.20511
-8.15903
-8.136
134.821
121.406
108.672
96.6055
85.1884
74.4054
64.2363
54.665
45.6746
37.2412
29.3479
21.978
15.1113
8.72648
2.8037
-2.67553
-7.72922
-12.3756
-16.6333
-20.521
-24.0569
-27.259
-30.1445
-32.7301
-35.0323
-37.0666
-38.8484
-40.3927
-41.7138
-42.8257
-43.7418
-44.4752
-45.0383
-45.443
-45.701
-45.8232
-45.8202
-45.7019
-45.4781
-45.1578
-44.7497
-44.2621
-43.7027
-43.079
-42.3979
-41.666
-40.8896
-40.0745
-39.2262
-38.3497
-37.4501
-36.5316
-35.5985
-34.6548
-33.704
-32.7495
-31.7944
-30.8416
-29.8936
-28.9529
-28.0218
-27.1022
-26.1959
-25.3047
-24.43
-23.5731
-22.7353
-21.9176
-21.1211
-20.3464
-19.5944
-18.8657
-18.1608
-17.4802
-16.8242
-16.1932
-15.5874
-15.0071
-14.4523
-13.9232
-13.4198
-12.9422
-12.4904
-12.0643
-11.6639
-11.2891
-10.9399
-10.6162
-10.3178
-10.0448
-9.79692
-9.57417
-9.37642
-9.2036
-9.05563
-8.93243
-8.83394
-8.76012
-8.71093
-8.68634
143.329
129.067
115.531
102.702
90.5647
79.1011
68.2903
58.1149
48.557
39.5915
31.2001
23.3651
16.0649
9.27719
2.98064
-2.84436
-8.21697
-13.1566
-17.683
-21.816
-25.5751
-28.9793
-32.0469
-34.7958
-37.2432
-39.4059
-41.3002
-42.9419
-44.3464
-45.5284
-46.5024
-47.282
-47.8806
-48.311
-48.5852
-48.7151
-48.7119
-48.5862
-48.3482
-48.0077
-47.5739
-47.0555
-46.4608
-45.7977
-45.0736
-44.2956
-43.4702
-42.6036
-41.7017
-40.77
-39.8135
-38.8371
-37.8452
-36.8419
-35.8311
-34.8163
-33.801
-32.788
-31.7802
-30.7802
-29.7903
-28.8126
-27.8492
-26.9017
-25.9717
-25.0608
-24.1701
-23.3009
-22.454
-21.6305
-20.831
-20.0563
-19.3069
-18.5833
-17.886
-17.2151
-16.5711
-15.9542
-15.3644
-14.8019
-14.2667
-13.759
-13.2786
-12.8256
-12.4
-12.0016
-11.6303
-11.2862
-10.969
-10.6787
-10.4152
-10.1784
-9.96817
-9.78444
-9.62713
-9.49615
-9.39146
-9.31298
-9.26068
-9.23454
151.802
136.698
122.36
108.774
95.9186
83.7773
72.3274
61.5505
51.4276
41.9321
33.0446
24.7464
17.0146
9.82561
3.15684
-3.01249
-8.70269
-13.9343
-18.7283
-23.1057
-27.0871
-30.6925
-33.9414
-36.8528
-39.4449
-41.7355
-43.7417
-45.4805
-46.968
-48.22
-49.2515
-50.0772
-50.7112
-51.167
-51.4574
-51.595
-51.5916
-51.4585
-51.2065
-50.8458
-50.3863
-49.8372
-49.2074
-48.5051
-47.7382
-46.9142
-46.04
-45.1222
-44.167
-43.1802
-42.1672
-41.133
-40.0825
-39.0199
-37.9493
-36.8746
-35.7992
-34.7263
-33.6589
-32.5998
-31.5514
-30.5159
-29.4955
-28.492
-27.5071
-26.5423
-25.599
-24.6784
-23.7814
-22.9092
-22.0625
-21.242
-20.4483
-19.6819
-18.9433
-18.2329
-17.5508
-16.8973
-16.2727
-15.6769
-15.1102
-14.5724
-14.0636
-13.5839
-13.133
-12.7111
-12.3179
-11.9534
-11.6174
-11.31
-11.0309
-10.7801
-10.5575
-10.3629
-10.1963
-10.0575
-9.94665
-9.86353
-9.80815
-9.78046
160.238
144.294
129.16
114.818
101.249
88.4328
76.3467
64.971
54.2854
44.2622
34.881
26.1216
17.9602
10.3716
3.33226
-3.17988
-9.18626
-14.7086
-19.7691
-24.3897
-28.5923
-32.3981
-35.8276
-38.9008
-41.6369
-44.0547
-46.1725
-48.0079
-49.5781
-50.8996
-51.9884
-52.86
-53.5293
-54.0103
-54.317
-54.4622
-54.4586
-54.3181
-54.052
-53.6713
-53.1863
-52.6067
-51.9419
-51.2006
-50.3911
-49.5213
-48.5985
-47.6297
-46.6214
-45.5798
-44.5104
-43.4188
-42.3099
-41.1882
-40.0582
-38.9237
-37.7886
-36.6561
-35.5294
-34.4114
-33.3047
-32.2117
-31.1346
-30.0753
-29.0357
-28.0173
-27.0216
-26.0497
-25.103
-24.1823
-23.2885
-22.4224
-21.5846
-20.7757
-19.996
-19.2461
-18.5261
-17.8363
-17.177
-16.5481
-15.9498
-15.3822
-14.8452
-14.3387
-13.8628
-13.4174
-13.0024
-12.6176
-12.263
-11.9385
-11.6439
-11.3792
-11.1441
-10.9387
-10.7629
-10.6164
-10.4994
-10.4117
-10.3532
-10.324
168.634
151.855
135.928
120.835
106.554
93.0666
80.3471
68.3753
57.1298
46.5815
36.7087
27.4903
18.9012
10.915
3.50686
-3.34648
-9.66757
-15.4793
-20.8049
-25.6677
-30.0905
-34.0957
-37.7049
-40.9391
-43.8186
-46.3631
-48.5919
-50.5235
-52.1759
-53.5666
-54.7125
-55.6298
-56.3341
-56.8404
-57.1631
-57.3159
-57.3121
-57.1642
-56.8843
-56.4836
-55.9732
-55.3632
-54.6636
-53.8834
-53.0315
-52.1161
-51.145
-50.1254
-49.0643
-47.9681
-46.8427
-45.6939
-44.5268
-43.3464
-42.1572
-40.9633
-39.7686
-38.5768
-37.3911
-36.2145
-35.0498
-33.8996
-32.766
-31.6512
-30.5571
-29.4854
-28.4374
-27.4147
-26.4183
-25.4494
-24.5088
-23.5973
-22.7156
-21.8643
-21.0438
-20.2545
-19.4968
-18.7709
-18.077
-17.4152
-16.7856
-16.1882
-15.623
-15.0901
-14.5892
-14.1205
-13.6837
-13.2788
-12.9056
-12.5641
-12.254
-11.9754
-11.7281
-11.5119
-11.3268
-11.1727
-11.0495
-10.9572
-10.8957
-10.8649
176.989
159.378
142.662
126.821
111.833
97.6773
84.3278
71.7629
59.9602
48.8893
38.5274
28.8523
19.8377
11.4558
3.6806
-3.51226
-10.1465
-16.2461
-21.8356
-26.9393
-31.5813
-35.7849
-39.573
-42.9674
-45.9895
-48.6601
-50.9993
-53.0265
-54.7608
-56.2205
-57.4232
-58.3859
-59.1251
-59.6564
-59.9951
-60.1555
-60.1515
-59.9963
-59.7025
-59.282
-58.7462
-58.1061
-57.3717
-56.5529
-55.6588
-54.6981
-53.6788
-52.6087
-51.4951
-50.3445
-49.1634
-47.9577
-46.7328
-45.4939
-44.2457
-42.9927
-41.7389
-40.488
-39.2435
-38.0087
-36.7863
-35.579
-34.3893
-33.2193
-32.071
-30.9461
-29.8463
-28.7729
-27.7272
-26.7102
-25.723
-24.7664
-23.841
-22.9475
-22.0863
-21.258
-20.4628
-19.7009
-18.9726
-18.278
-17.6172
-16.9902
-16.397
-15.8377
-15.312
-14.82
-14.3616
-13.9366
-13.545
-13.1865
-12.8611
-12.5687
-12.3091
-12.0822
-11.888
-11.7263
-11.597
-11.5001
-11.4355
-11.4032
185.3
166.862
149.361
132.776
117.084
102.264
88.2876
75.1327
62.7758
51.185
40.3365
30.2071
20.7692
11.9937
3.85342
-3.67717
-10.6229
-17.009
-22.8609
-28.2043
-33.0642
-37.4653
-41.4312
-44.9851
-48.1491
-50.9451
-53.3941
-55.5165
-57.3323
-58.8605
-60.1196
-61.1275
-61.9014
-62.4577
-62.8123
-62.9803
-62.9761
-62.8136
-62.5059
-62.0657
-61.5048
-60.8346
-60.0658
-59.2085
-58.2724
-57.2665
-56.1994
-55.0791
-53.9131
-52.7086
-51.472
-50.2097
-48.9273
-47.6302
-46.3234
-45.0115
-43.6988
-42.3892
-41.0863
-39.7934
-38.5137
-37.2497
-36.0041
-34.7792
-33.577
-32.3993
-31.2478
-30.124
-29.0292
-27.9645
-26.9309
-25.9293
-24.9605
-24.025
-23.1235
-22.2562
-21.4236
-20.626
-19.8635
-19.1363
-18.4444
-17.788
-17.167
-16.5813
-16.031
-15.5159
-15.036
-14.5911
-14.181
-13.8057
-13.4651
-13.1589
-12.8871
-12.6496
-12.4462
-12.2769
-12.1415
-12.0401
-11.9725
-11.9387
193.565
174.305
156.023
138.699
122.307
106.825
92.2256
78.484
65.5758
53.4681
42.1358
31.5545
21.6956
12.5287
4.0253
-3.84117
-11.0967
-17.7676
-23.8806
-29.4623
-34.5391
-39.1364
-43.2793
-46.9916
-50.2968
-53.2175
-55.7757
-57.9928
-59.8896
-61.4859
-62.8012
-63.8541
-64.6625
-65.2436
-65.614
-65.7895
-65.7851
-65.6153
-65.294
-64.8341
-64.2482
-63.5481
-62.745
-61.8495
-60.8716
-59.8209
-58.7062
-57.5359
-56.3179
-55.0596
-53.7679
-52.4492
-51.1096
-49.7547
-48.3896
-47.0192
-45.648
-44.2799
-42.9189
-41.5684
-40.2315
-38.9112
-37.6101
-36.3305
-35.0747
-33.8444
-32.6416
-31.4677
-30.324
-29.2118
-28.1322
-27.0859
-26.0739
-25.0967
-24.1549
-23.2489
-22.3792
-21.546
-20.7495
-19.9898
-19.2671
-18.5814
-17.9327
-17.321
-16.7461
-16.208
-15.7067
-15.2419
-14.8135
-14.4215
-14.0657
-13.7459
-13.4619
-13.2138
-13.0014
-12.8245
-12.6831
-12.5771
-12.5065
-12.4712
201.782
181.705
162.647
144.587
127.499
111.36
96.1409
81.8159
68.3597
55.738
43.9246
32.8941
22.6166
13.0605
4.19618
-4.00423
-11.5678
-18.5219
-24.8944
-30.7131
-36.0054
-40.7979
-45.1166
-48.9866
-52.4321
-55.4768
-58.1436
-60.4548
-62.4321
-64.0962
-65.4673
-66.5649
-67.4076
-68.0134
-68.3995
-68.5824
-68.5779
-68.4009
-68.0659
-67.5865
-66.9757
-66.2459
-65.4087
-64.4752
-63.4558
-62.3605
-61.1984
-59.9785
-58.7088
-57.3971
-56.0505
-54.6759
-53.2794
-51.8669
-50.4439
-49.0153
-47.5859
-46.1598
-44.741
-43.3331
-41.9395
-40.5631
-39.2068
-37.8729
-36.5637
-35.2812
-34.0273
-32.8036
-31.6114
-30.452
-29.3265
-28.2358
-27.1808
-26.1621
-25.1803
-24.2359
-23.3293
-22.4607
-21.6304
-20.8385
-20.0851
-19.3703
-18.694
-18.0563
-17.457
-16.8961
-16.3735
-15.8889
-15.4424
-15.0338
-14.6628
-14.3294
-14.0334
-13.7748
-13.5533
-13.3689
-13.2215
-13.1111
-13.0374
-13.0006
209.95
189.06
169.231
150.439
132.66
115.868
100.032
85.1276
71.1267
57.9941
45.7026
34.2256
23.5321
13.5892
4.36602
-4.1663
-12.036
-19.2716
-25.902
-31.9563
-37.4628
-42.4493
-46.9429
-50.9695
-54.5544
-57.7223
-60.4971
-62.9019
-64.9592
-66.6907
-68.1173
-69.2593
-70.1361
-70.7665
-71.1682
-71.3585
-71.3537
-71.1696
-70.8211
-70.3223
-69.6868
-68.9274
-68.0563
-67.085
-66.0243
-64.8847
-63.6756
-62.4062
-61.0852
-59.7203
-58.3193
-56.889
-55.436
-53.9664
-52.4858
-50.9994
-49.512
-48.0282
-46.552
-45.0871
-43.6371
-42.205
-40.7937
-39.4059
-38.0437
-36.7093
-35.4047
-34.1314
-32.8909
-31.6846
-30.5135
-29.3787
-28.281
-27.2211
-26.1996
-25.2169
-24.2736
-23.3698
-22.5059
-21.682
-20.8981
-20.1543
-19.4507
-18.7872
-18.1636
-17.58
-17.0362
-16.5321
-16.0675
-15.6423
-15.2563
-14.9094
-14.6015
-14.3324
-14.1019
-13.9101
-13.7567
-13.6418
-13.5652
-13.5269
218.066
196.368
175.772
156.255
137.788
120.347
103.899
88.4183
73.8762
60.2359
47.4693
35.5487
24.4417
14.1145
4.53479
-4.32734
-12.5012
-20.0165
-26.9033
-33.1916
-38.911
-44.0903
-48.7575
-52.9398
-56.6633
-59.9537
-62.8357
-65.3335
-67.4703
-69.2687
-70.7504
-71.9366
-72.8473
-73.502
-73.9193
-74.1169
-74.112
-73.9208
-73.5587
-73.0406
-72.3806
-71.5918
-70.6871
-69.6782
-68.5766
-67.3928
-66.137
-64.8186
-63.4465
-62.0289
-60.5737
-59.0881
-57.579
-56.0525
-54.5146
-52.9708
-51.426
-49.8848
-48.3515
-46.83
-45.3239
-43.8365
-42.3707
-40.9291
-39.5143
-38.1284
-36.7733
-35.4508
-34.1623
-32.9094
-31.693
-30.5144
-29.3742
-28.2733
-27.2123
-26.1917
-25.2119
-24.2732
-23.3759
-22.5201
-21.7059
-20.9334
-20.2026
-19.5134
-18.8658
-18.2596
-17.6948
-17.1712
-16.6886
-16.247
-15.8461
-15.4858
-15.1659
-14.8864
-14.6471
-14.4478
-14.2885
-14.1691
-14.0895
-14.0498
226.128
203.628
182.271
162.032
142.882
124.796
107.741
91.6872
76.6074
62.4629
49.2243
36.863
25.3454
14.6363
4.70244
-4.48732
-12.9634
-20.7566
-27.8979
-34.4187
-40.3495
-45.7204
-50.5601
-54.897
-58.7582
-62.1702
-65.1588
-67.7489
-69.9647
-71.8296
-73.3662
-74.5962
-75.5406
-76.2194
-76.6521
-76.8571
-76.852
-76.6537
-76.2782
-75.741
-75.0565
-74.2386
-73.3004
-72.2543
-71.1119
-69.8844
-68.5822
-67.215
-65.7921
-64.3222
-62.8131
-61.2726
-59.7077
-58.1248
-56.5301
-54.9292
-53.3272
-51.729
-50.1391
-48.5614
-46.9996
-45.4572
-43.9371
-42.4423
-40.9752
-39.538
-38.1328
-36.7614
-35.4253
-34.1261
-32.8648
-31.6425
-30.4602
-29.3186
-28.2184
-27.1601
-26.144
-25.1706
-24.2401
-23.3527
-22.5084
-21.7073
-20.9495
-20.2348
-19.5632
-18.9347
-18.349
-17.806
-17.3056
-16.8476
-16.4319
-16.0583
-15.7266
-15.4368
-15.1886
-14.9819
-14.8168
-14.6929
-14.6104
-14.5692
234.134
210.837
188.724
167.769
147.941
129.215
111.555
94.9335
79.3198
64.6744
50.9671
38.1681
26.2427
15.1545
4.86892
-4.64619
-13.4224
-21.4914
-28.8857
-35.6373
-41.7781
-47.3391
-52.3503
-56.8407
-60.8386
-64.3714
-67.4658
-70.1476
-72.4419
-74.3728
-75.9637
-77.2373
-78.2151
-78.9181
-79.3661
-79.5783
-79.573
-79.3677
-78.9789
-78.4227
-77.714
-76.8671
-75.8957
-74.8125
-73.6297
-72.3587
-71.0104
-69.5948
-68.1216
-66.5995
-65.0371
-63.442
-61.8217
-60.1828
-58.5316
-56.874
-55.2153
-53.5606
-51.9143
-50.2807
-48.6637
-47.0666
-45.4928
-43.945
-42.4259
-40.9379
-39.4829
-38.063
-36.6796
-35.3343
-34.0284
-32.7628
-31.5387
-30.3567
-29.2175
-28.1217
-27.0697
-26.0618
-25.0984
-24.1795
-23.3053
-22.4759
-21.6912
-20.9513
-20.2559
-19.6051
-18.9986
-18.4364
-17.9183
-17.4441
-17.0137
-16.6269
-16.2834
-15.9833
-15.7263
-15.5124
-15.3414
-15.2132
-15.1277
-15.085
242.083
217.995
195.131
173.464
152.964
133.602
115.342
98.1563
82.0125
66.87
52.6974
39.4639
27.1336
15.6689
5.03421
-4.80391
-13.878
-22.221
-29.8663
-36.8471
-43.1965
-48.9462
-54.1275
-58.7704
-62.904
-66.5568
-69.7562
-72.529
-74.9012
-76.8976
-78.5426
-79.8594
-80.8704
-81.5972
-82.0604
-82.2798
-82.2744
-82.0621
-81.6602
-81.085
-80.3522
-79.4766
-78.4722
-77.3522
-76.1293
-74.8152
-73.4211
-71.9575
-70.4342
-68.8605
-67.245
-65.5958
-63.9204
-62.2259
-60.5186
-58.8047
-57.0898
-55.3788
-53.6767
-51.9877
-50.3157
-48.6645
-47.0372
-45.4369
-43.8662
-42.3277
-40.8233
-39.3551
-37.9248
-36.5339
-35.1836
-33.8751
-32.6094
-31.3872
-30.2094
-29.0764
-27.9886
-26.9466
-25.9504
-25.0004
-24.0965
-23.2389
-22.4276
-21.6625
-20.9436
-20.2706
-19.6436
-19.0623
-18.5266
-18.0363
-17.5913
-17.1913
-16.8362
-16.5259
-16.2602
-16.039
-15.8622
-15.7296
-15.6413
-15.5971
249.972
225.099
201.49
179.117
157.948
137.955
119.101
101.355
84.6851
69.0491
54.4147
40.7499
28.0178
16.1795
5.19825
-4.96045
-14.3302
-22.9451
-30.8395
-38.0479
-44.6041
-50.5413
-55.8914
-60.6855
-64.9539
-68.7257
-72.0294
-74.8926
-77.342
-79.4035
-81.1021
-82.4618
-83.5058
-84.2562
-84.7345
-84.9611
-84.9554
-84.7362
-84.3212
-83.7273
-82.9707
-82.0665
-81.0294
-79.8729
-78.6101
-77.2532
-75.8136
-74.3023
-72.7294
-71.1044
-69.4363
-67.7334
-66.0034
-64.2536
-62.4908
-60.721
-58.9502
-57.1835
-55.4259
-53.6818
-51.9553
-50.2503
-48.57
-46.9175
-45.2957
-43.707
-42.1536
-40.6376
-39.1607
-37.7244
-36.3301
-34.979
-33.672
-32.41
-31.1938
-30.0239
-28.9007
-27.8247
-26.7961
-25.8151
-24.8818
-23.9962
-23.1585
-22.3684
-21.626
-20.9312
-20.2837
-19.6835
-19.1303
-18.6241
-18.1645
-17.7515
-17.3849
-17.0645
-16.7901
-16.5617
-16.3791
-16.2422
-16.151
-16.1054
257.799
232.147
207.799
184.725
162.894
142.275
122.83
104.529
87.3367
71.2112
56.1185
42.0259
28.8951
16.6861
5.36101
-5.11576
-14.7789
-23.6635
-31.8051
-39.2392
-46.0008
-52.1238
-57.6415
-62.5857
-66.9877
-70.8776
-74.2848
-77.2376
-79.7637
-81.8898
-83.6415
-85.0438
-86.1205
-86.8945
-87.3877
-87.6214
-87.6156
-87.3895
-86.9615
-86.349
-85.5687
-84.6362
-83.5666
-82.3739
-81.0715
-79.6721
-78.1875
-76.6289
-75.0067
-73.3308
-71.6105
-69.8542
-68.0701
-66.2655
-64.4475
-62.6223
-60.796
-58.974
-57.1613
-55.3627
-53.5822
-51.8237
-50.0908
-48.3866
-46.714
-45.0755
-43.4735
-41.91
-40.3869
-38.9056
-37.4677
-36.0742
-34.7263
-33.4249
-32.1705
-30.964
-29.8057
-28.6959
-27.6351
-26.6234
-25.6608
-24.7476
-23.8836
-23.0688
-22.3032
-21.5866
-20.9189
-20.2998
-19.7294
-19.2072
-18.7333
-18.3074
-17.9292
-17.5988
-17.3158
-17.0803
-16.8919
-16.7508
-16.6567
-16.6097
265.562
239.138
214.057
190.288
167.8
146.559
126.529
107.676
89.9668
73.3557
57.8085
43.2915
29.7653
17.1886
5.52245
-5.26981
-15.224
-24.3761
-32.7629
-40.4209
-47.3861
-53.6935
-59.3773
-64.4705
-69.005
-73.0121
-76.5218
-79.5636
-82.1658
-84.3559
-86.1604
-87.6049
-88.714
-89.5112
-90.0194
-90.2601
-90.2541
-90.0212
-89.5803
-88.9494
-88.1455
-87.185
-86.0831
-84.8545
-83.513
-82.0714
-80.5421
-78.9365
-77.2655
-75.5392
-73.767
-71.9579
-70.12
-68.2611
-66.3883
-64.5081
-62.6268
-60.75
-58.8827
-57.0299
-55.1958
-53.3844
-51.5993
-49.8437
-48.1208
-46.433
-44.7827
-43.1721
-41.6031
-40.0772
-38.596
-37.1606
-35.7721
-34.4314
-33.1393
-31.8964
-30.7032
-29.5601
-28.4673
-27.4251
-26.4336
-25.4928
-24.6028
-23.7635
-22.9748
-22.2367
-21.5488
-20.9112
-20.3235
-19.7857
-19.2974
-18.8587
-18.4692
-18.1288
-17.8373
-17.5946
-17.4006
-17.2552
-17.1583
-17.1099
273.26
246.07
220.262
195.804
172.664
150.808
130.197
110.798
92.5747
75.4821
59.4842
44.5464
30.6281
17.6868
5.68252
-5.42257
-15.6653
-25.0827
-33.7126
-41.5926
-48.7597
-55.25
-61.0985
-66.3393
-71.0053
-75.1285
-78.74
-81.8699
-84.5476
-86.8011
-88.6579
-90.1443
-91.2855
-92.1059
-92.6288
-92.8765
-92.8703
-92.6306
-92.177
-91.5278
-90.7006
-89.7122
-88.5785
-87.3143
-85.9338
-84.4504
-82.8768
-81.2247
-79.5052
-77.7288
-75.9053
-74.0437
-72.1526
-70.2398
-68.3127
-66.3781
-64.4422
-62.5109
-60.5896
-58.683
-56.7957
-54.9318
-53.095
-51.2886
-49.5157
-47.7789
-46.0809
-44.4236
-42.8091
-41.239
-39.7148
-38.2378
-36.809
-35.4295
-34.1
-32.821
-31.5932
-30.417
-29.2925
-28.2201
-27.1999
-26.2318
-25.316
-24.4524
-23.6408
-22.8812
-22.1735
-21.5173
-20.9126
-20.3592
-19.8568
-19.4053
-19.0045
-18.6543
-18.3543
-18.1046
-17.905
-17.7554
-17.6557
-17.6059
280.891
252.941
226.412
201.272
177.485
155.019
133.833
113.892
95.1597
77.5898
61.1453
45.7903
31.4833
18.1807
5.84119
-5.57398
-16.1027
-25.7831
-34.654
-42.754
-50.1212
-56.7928
-62.8047
-68.1918
-72.9881
-77.2264