/*--------------------------------*- C++ -*----------------------------------*\
| =========                 |                                                 |
| \\      /  F ield         | OpenFOAM: The Open Source CFD Toolbox           |
|  \\    /   O peration     | Version:  2406                                  |
|   \\  /    A nd           | Website:  www.openfoam.com                      |
|    \\/     M anipulation  |                                                 |
\*---------------------------------------------------------------------------*/
FoamFile
{
    version     2.0;
    format      ascii;
    arch        "LSB;label=32;scalar=64";
    class       volVectorField;
    location    "40";
    object      flux;
}
// * * * * * * * * * * * * * * * * * * * * * * * * * * * * * * * * * * * * * //

dimensions      [0 1 -1 1 0 0 0];

internalField   nonuniform List<vector> 
20000
(
(-0.00230842 0.0834312 0)
(-0.00220838 0.0789159 0)
(-0.00211107 0.0745982 0)
(-0.00201652 0.0704721 0)
(-0.00192465 0.0665327 0)
(-0.00183548 0.0627741 0)
(-0.00174917 0.059191 0)
(-0.00166584 0.0557777 0)
(-0.00158514 0.0525283 0)
(-0.00150709 0.0494377 0)
(-0.00143199 0.0465002 0)
(-0.00135971 0.0437099 0)
(-0.00129006 0.0410617 0)
(-0.00122301 0.0385501 0)
(-0.00115863 0.0361699 0)
(-0.0010969 0.0339159 0)
(-0.00103773 0.0317826 0)
(-0.000981049 0.0297652 0)
(-0.000926784 0.0278587 0)
(-0.000874887 0.0260583 0)
(-0.000825312 0.0243593 0)
(-0.000778006 0.0227572 0)
(-0.000732908 0.0212475 0)
(-0.00068995 0.0198258 0)
(-0.000649062 0.0184879 0)
(-0.000610175 0.0172297 0)
(-0.00057322 0.0160473 0)
(-0.00053813 0.014937 0)
(-0.00050484 0.0138949 0)
(-0.000473283 0.0129177 0)
(-0.000443394 0.0120019 0)
(-0.000415109 0.0111443 0)
(-0.000388364 0.0103416 0)
(-0.000363095 0.0095909 0)
(-0.00033924 0.0088893 0)
(-0.000316738 0.00823402 0)
(-0.00029553 0.00762242 0)
(-0.000275556 0.00705197 0)
(-0.000256759 0.00652027 0)
(-0.000239085 0.006025 0)
(-0.000222477 0.00556399 0)
(-0.000206886 0.00513515 0)
(-0.000192259 0.0047365 0)
(-0.000178547 0.00436616 0)
(-0.000165703 0.00402235 0)
(-0.000153681 0.00370339 0)
(-0.000142437 0.00340767 0)
(-0.000131929 0.00313368 0)
(-0.000122115 0.00287999 0)
(-0.000112957 0.00264525 0)
(-0.000104418 0.00242818 0)
(-9.6461e-05 0.0022276 0)
(-8.90522e-05 0.00204236 0)
(-8.2159e-05 0.00187141 0)
(-7.57502e-05 0.00171375 0)
(-6.97961e-05 0.00156843 0)
(-6.42685e-05 0.00143458 0)
(-5.91407e-05 0.00131137 0)
(-5.43871e-05 0.00119803 0)
(-4.99837e-05 0.00109384 0)
(-4.59076e-05 0.00099811 0)
(-4.21373e-05 0.000910218 0)
(-3.86523e-05 0.000829571 0)
(-3.54334e-05 0.000755618 0)
(-3.24624e-05 0.000687846 0)
(-2.97223e-05 0.000625777 0)
(-2.71969e-05 0.000568965 0)
(-2.48711e-05 0.000516996 0)
(-2.27308e-05 0.000469486 0)
(-2.07627e-05 0.000426078 0)
(-1.89542e-05 0.000386441 0)
(-1.72938e-05 0.000350266 0)
(-1.57704e-05 0.00031727 0)
(-1.4374e-05 0.000287188 0)
(-1.3095e-05 0.000259777 0)
(-1.19246e-05 0.000234811 0)
(-1.08545e-05 0.000212082 0)
(-9.8771e-06 0.000191396 0)
(-8.98531e-06 0.000172576 0)
(-8.17253e-06 0.000155457 0)
(-7.43267e-06 0.000139888 0)
(-6.76012e-06 0.000125728 0)
(-6.14967e-06 0.000112849 0)
(-5.59656e-06 0.000101131 0)
(-5.09639e-06 9.04643e-05 0)
(-4.64516e-06 8.07468e-05 0)
(-4.23919e-06 7.18848e-05 0)
(-3.87513e-06 6.37911e-05 0)
(-3.54997e-06 5.63852e-05 0)
(-3.26096e-06 4.95921e-05 0)
(-3.00565e-06 4.33421e-05 0)
(-2.78184e-06 3.75702e-05 0)
(-2.58761e-06 3.22155e-05 0)
(-2.42125e-06 2.72205e-05 0)
(-2.2813e-06 2.25311e-05 0)
(-2.16654e-06 1.80958e-05 0)
(-2.07593e-06 1.38654e-05 0)
(-2.00868e-06 9.79258e-06 0)
(-1.96417e-06 5.83122e-06 0)
(-1.94202e-06 1.93637e-06 0)
(-0.00692472 0.0834106 0)
(-0.00662463 0.0788963 0)
(-0.00633268 0.0745796 0)
(-0.00604895 0.0704547 0)
(-0.00577339 0.0665163 0)
(-0.00550617 0.0627587 0)
(-0.00524723 0.0591763 0)
(-0.00499694 0.0557639 0)
(-0.0047549 0.0525154 0)
(-0.00452102 0.0494255 0)
(-0.00429573 0.0464886 0)
(-0.00407877 0.0436991 0)
(-0.00386978 0.0410515 0)
(-0.00366871 0.0385407 0)
(-0.00347563 0.0361611 0)
(-0.00329045 0.0339075 0)
(-0.00311295 0.0317747 0)
(-0.0029429 0.0297578 0)
(-0.00278011 0.0278518 0)
(-0.00262443 0.0260519 0)
(-0.00247573 0.0243533 0)
(-0.00233383 0.0227516 0)
(-0.00219855 0.0212423 0)
(-0.00206968 0.0198209 0)
(-0.00194703 0.0184833 0)
(-0.00183037 0.0172254 0)
(-0.00171952 0.0160434 0)
(-0.00161426 0.0149333 0)
(-0.00151439 0.0138915 0)
(-0.00141973 0.0129145 0)
(-0.00133007 0.011999 0)
(-0.00124522 0.0111415 0)
(-0.001165 0.010339 0)
(-0.00108919 0.00958853 0)
(-0.00101764 0.00888711 0)
(-0.000950137 0.00823199 0)
(-0.000886517 0.00762054 0)
(-0.0008266 0.00705023 0)
(-0.000770215 0.00651866 0)
(-0.000717195 0.00602351 0)
(-0.000667378 0.00556262 0)
(-0.000620606 0.00513388 0)
(-0.000576728 0.00473533 0)
(-0.000535596 0.00436508 0)
(-0.000497067 0.00402136 0)
(-0.000461005 0.00370248 0)
(-0.000427276 0.00340683 0)
(-0.000395753 0.0031329 0)
(-0.000366315 0.00287927 0)
(-0.000338844 0.00264459 0)
(-0.000313228 0.00242758 0)
(-0.000289359 0.00222705 0)
(-0.000267135 0.00204186 0)
(-0.000246457 0.00187095 0)
(-0.000227232 0.00171332 0)
(-0.000209371 0.00156804 0)
(-0.00019279 0.00143423 0)
(-0.000177407 0.00131105 0)
(-0.000163148 0.00119774 0)
(-0.000149939 0.00109357 0)
(-0.000137712 0.000997864 0)
(-0.000126401 0.000909993 0)
(-0.000115947 0.000829366 0)
(-0.000106291 0.000755432 0)
(-9.73792e-05 0.000687677 0)
(-8.91594e-05 0.000625622 0)
(-8.15839e-05 0.000568824 0)
(-7.46073e-05 0.000516868 0)
(-6.81869e-05 0.00046937 0)
(-6.2283e-05 0.000425973 0)
(-5.6858e-05 0.000386345 0)
(-5.1877e-05 0.00035018 0)
(-4.73074e-05 0.000317191 0)
(-4.31184e-05 0.000287117 0)
(-3.92817e-05 0.000259713 0)
(-3.57707e-05 0.000234754 0)
(-3.25608e-05 0.00021203 0)
(-2.96289e-05 0.000191349 0)
(-2.69537e-05 0.000172533 0)
(-2.45156e-05 0.000155419 0)
(-2.22962e-05 0.000139853 0)
(-2.02787e-05 0.000125697 0)
(-1.84475e-05 0.000112821 0)
(-1.67883e-05 0.000101106 0)
(-1.52879e-05 9.0442e-05 0)
(-1.39343e-05 8.07269e-05 0)
(-1.27165e-05 7.18671e-05 0)
(-1.16245e-05 6.37754e-05 0)
(-1.0649e-05 5.63713e-05 0)
(-9.78208e-06 4.95799e-05 0)
(-9.01621e-06 4.33315e-05 0)
(-8.34484e-06 3.7561e-05 0)
(-7.76218e-06 3.22075e-05 0)
(-7.26315e-06 2.72138e-05 0)
(-6.84335e-06 2.25255e-05 0)
(-6.49908e-06 1.80914e-05 0)
(-6.22729e-06 1.3862e-05 0)
(-6.02554e-06 9.79018e-06 0)
(-5.89204e-06 5.82979e-06 0)
(-5.82557e-06 1.9359e-06 0)
(-0.0115394 0.0833695 0)
(-0.0110393 0.0788574 0)
(-0.0105526 0.0745428 0)
(-0.0100798 0.07042 0)
(-0.00962067 0.0664834 0)
(-0.00917547 0.0627277 0)
(-0.00874404 0.0591472 0)
(-0.00832676 0.0557363 0)
(-0.00792345 0.0524895 0)
(-0.0075339 0.0494011 0)
(-0.00715845 0.0464656 0)
(-0.00679678 0.0436775 0)
(-0.00644849 0.0410313 0)
(-0.00611349 0.0385217 0)
(-0.0057918 0.0361432 0)
(-0.00548322 0.0338907 0)
(-0.00518741 0.031759 0)
(-0.00490401 0.0297431 0)
(-0.00463273 0.027838 0)
(-0.00437332 0.026039 0)
(-0.00412553 0.0243413 0)
(-0.00388908 0.0227404 0)
(-0.00366365 0.0212318 0)
(-0.00344891 0.0198111 0)
(-0.00324452 0.0184742 0)
(-0.00305012 0.0172169 0)
(-0.00286539 0.0160354 0)
(-0.00268999 0.0149259 0)
(-0.00252357 0.0138846 0)
(-0.00236583 0.0129082 0)
(-0.00221642 0.011993 0)
(-0.00207503 0.011136 0)
(-0.00194134 0.0103339 0)
(-0.00181503 0.0095838 0)
(-0.00169578 0.00888272 0)
(-0.0015833 0.00822793 0)
(-0.00147728 0.00761678 0)
(-0.00137744 0.00704676 0)
(-0.00128348 0.00651544 0)
(-0.00119513 0.00602054 0)
(-0.00111211 0.00555987 0)
(-0.00103417 0.00513135 0)
(-0.000961056 0.00473299 0)
(-0.000892513 0.00436293 0)
(-0.000828309 0.00401938 0)
(-0.000768215 0.00370065 0)
(-0.000712009 0.00340515 0)
(-0.000659481 0.00313136 0)
(-0.000610425 0.00287785 0)
(-0.000564648 0.00264329 0)
(-0.000521961 0.00242639 0)
(-0.000482186 0.00222595 0)
(-0.000445151 0.00204085 0)
(-0.000410694 0.00187003 0)
(-0.000378657 0.00171248 0)
(-0.000348894 0.00156727 0)
(-0.000321263 0.00143352 0)
(-0.000295631 0.0013104 0)
(-0.000271868 0.00119715 0)
(-0.000249857 0.00109303 0)
(-0.000229481 0.000997371 0)
(-0.000210634 0.000909544 0)
(-0.000193214 0.000828957 0)
(-0.000177123 0.000755059 0)
(-0.000162272 0.000687337 0)
(-0.000148575 0.000625314 0)
(-0.000135951 0.000568544 0)
(-0.000124325 0.000516613 0)
(-0.000113626 0.000469139 0)
(-0.000103788 0.000425763 0)
(-9.47478e-05 0.000386155 0)
(-8.64475e-05 0.000350007 0)
(-7.88326e-05 0.000317035 0)
(-7.18522e-05 0.000286976 0)
(-6.54588e-05 0.000259585 0)
(-5.96081e-05 0.000234638 0)
(-5.4259e-05 0.000211925 0)
(-4.93733e-05 0.000191255 0)
(-4.49155e-05 0.000172448 0)
(-4.08526e-05 0.000155342 0)
(-3.71542e-05 0.000139784 0)
(-3.37922e-05 0.000125635 0)
(-3.07408e-05 0.000112766 0)
(-2.79759e-05 0.000101056 0)
(-2.54757e-05 9.03974e-05 0)
(-2.32201e-05 8.06871e-05 0)
(-2.11907e-05 7.18316e-05 0)
(-1.93709e-05 6.37439e-05 0)
(-1.77455e-05 5.63435e-05 0)
(-1.63008e-05 4.95554e-05 0)
(-1.50245e-05 4.33101e-05 0)
(-1.39058e-05 3.75425e-05 0)
(-1.29348e-05 3.21917e-05 0)
(-1.21033e-05 2.72003e-05 0)
(-1.14037e-05 2.25144e-05 0)
(-1.083e-05 1.80824e-05 0)
(-1.03771e-05 1.38552e-05 0)
(-1.00409e-05 9.78536e-06 0)
(-9.81845e-06 5.82693e-06 0)
(-9.7077e-06 1.93494e-06 0)
(-0.0161512 0.0833078 0)
(-0.0154514 0.0787993 0)
(-0.0147702 0.0744876 0)
(-0.0141083 0.0703678 0)
(-0.0134656 0.0664342 0)
(-0.0128424 0.0626813 0)
(-0.0122386 0.0591034 0)
(-0.0116546 0.0556951 0)
(-0.0110901 0.0524506 0)
(-0.0105449 0.0493645 0)
(-0.0100194 0.0464312 0)
(-0.00951309 0.0436452 0)
(-0.0090256 0.0410009 0)
(-0.00855678 0.0384932 0)
(-0.00810656 0.0361165 0)
(-0.00767465 0.0338656 0)
(-0.00726058 0.0317355 0)
(-0.0068639 0.0297211 0)
(-0.0064842 0.0278174 0)
(-0.00612113 0.0260197 0)
(-0.00577431 0.0243233 0)
(-0.00544337 0.0227236 0)
(-0.00512785 0.0212161 0)
(-0.00482729 0.0197964 0)
(-0.00454121 0.0184605 0)
(-0.00426912 0.0172042 0)
(-0.00401056 0.0160236 0)
(-0.00376505 0.0149148 0)
(-0.00353213 0.0138744 0)
(-0.00331134 0.0128986 0)
(-0.00310222 0.0119842 0)
(-0.00290433 0.0111278 0)
(-0.0027172 0.0103263 0)
(-0.00254041 0.0095767 0)
(-0.00237351 0.00887614 0)
(-0.00221608 0.00822183 0)
(-0.00206769 0.00761114 0)
(-0.00192794 0.00704154 0)
(-0.00179643 0.00651062 0)
(-0.00167277 0.00601608 0)
(-0.00155657 0.00555575 0)
(-0.00144749 0.00512755 0)
(-0.00134515 0.00472949 0)
(-0.00124921 0.0043597 0)
(-0.00115935 0.0040164 0)
(-0.00107524 0.00369791 0)
(-0.000996567 0.00340262 0)
(-0.000923045 0.00312904 0)
(-0.000854384 0.00287572 0)
(-0.000790312 0.00264133 0)
(-0.000730565 0.00242459 0)
(-0.000674894 0.0022243 0)
(-0.000623058 0.00203934 0)
(-0.000574829 0.00186864 0)
(-0.00052999 0.00171121 0)
(-0.000488332 0.00156611 0)
(-0.000449658 0.00143246 0)
(-0.000413781 0.00130943 0)
(-0.000380522 0.00119626 0)
(-0.000349713 0.00109222 0)
(-0.000321195 0.000996633 0)
(-0.000294815 0.000908871 0)
(-0.000270433 0.000828343 0)
(-0.000247911 0.0007545 0)
(-0.000227125 0.000686828 0)
(-0.000207953 0.000624851 0)
(-0.000190284 0.000568123 0)
(-0.000174012 0.000516231 0)
(-0.000159037 0.000468791 0)
(-0.000145267 0.000425448 0)
(-0.000132614 0.000385869 0)
(-0.000120997 0.000349748 0)
(-0.000110338 0.0003168 0)
(-0.000100568 0.000286763 0)
(-9.16197e-05 0.000259393 0)
(-8.34308e-05 0.000234464 0)
(-7.59439e-05 0.000211768 0)
(-6.91056e-05 0.000191113 0)
(-6.28661e-05 0.000172321 0)
(-5.71795e-05 0.000155227 0)
(-5.20031e-05 0.000139681 0)
(-4.72975e-05 0.000125542 0)
(-4.30265e-05 0.000112682 0)
(-3.91566e-05 0.000100982 0)
(-3.56571e-05 9.03305e-05 0)
(-3.25001e-05 8.06274e-05 0)
(-2.96597e-05 7.17785e-05 0)
(-2.71126e-05 6.36968e-05 0)
(-2.48375e-05 5.63018e-05 0)
(-2.28155e-05 4.95188e-05 0)
(-2.10292e-05 4.32781e-05 0)
(-1.94633e-05 3.75147e-05 0)
(-1.81043e-05 3.21679e-05 0)
(-1.69404e-05 2.71802e-05 0)
(-1.59613e-05 2.24978e-05 0)
(-1.51583e-05 1.80691e-05 0)
(-1.45244e-05 1.3845e-05 0)
(-1.40538e-05 9.77813e-06 0)
(-1.37425e-05 5.82262e-06 0)
(-1.35874e-05 1.93352e-06 0)
(-0.0207588 0.0832253 0)
(-0.0198595 0.0787214 0)
(-0.0189841 0.0744141 0)
(-0.0181333 0.0702983 0)
(-0.0173072 0.0663686 0)
(-0.0165062 0.0626193 0)
(-0.0157302 0.059045 0)
(-0.0149795 0.0556401 0)
(-0.014254 0.0523988 0)
(-0.0135533 0.0493158 0)
(-0.0128778 0.0463854 0)
(-0.012227 0.0436021 0)
(-0.0116005 0.0409605 0)
(-0.010998 0.0384551 0)
(-0.0104193 0.0360808 0)
(-0.00986418 0.0338322 0)
(-0.00933196 0.0317041 0)
(-0.00882209 0.0296917 0)
(-0.00833407 0.0277899 0)
(-0.00786742 0.025994 0)
(-0.00742167 0.0242993 0)
(-0.00699632 0.0227012 0)
(-0.00659079 0.0211951 0)
(-0.00620448 0.0197769 0)
(-0.00583678 0.0184423 0)
(-0.00548707 0.0171872 0)
(-0.00515474 0.0160077 0)
(-0.00483918 0.0149001 0)
(-0.00453981 0.0138607 0)
(-0.00425603 0.0128859 0)
(-0.00398726 0.0119723 0)
(-0.00373291 0.0111168 0)
(-0.0034924 0.0103161 0)
(-0.00326516 0.00956724 0)
(-0.00305065 0.00886737 0)
(-0.0028483 0.00821371 0)
(-0.00265758 0.00760362 0)
(-0.00247796 0.00703458 0)
(-0.00230893 0.00650419 0)
(-0.00214999 0.00601014 0)
(-0.00200065 0.00555026 0)
(-0.00186044 0.00512248 0)
(-0.0017289 0.00472481 0)
(-0.0016056 0.00435539 0)
(-0.0014901 0.00401243 0)
(-0.00138199 0.00369425 0)
(-0.00128088 0.00339926 0)
(-0.00118638 0.00312595 0)
(-0.00109813 0.00287288 0)
(-0.00101578 0.00263872 0)
(-0.000938989 0.00242219 0)
(-0.000867435 0.00222211 0)
(-0.000800811 0.00203733 0)
(-0.000738823 0.0018668 0)
(-0.000681191 0.00170952 0)
(-0.000627648 0.00156456 0)
(-0.000577941 0.00143104 0)
(-0.000531829 0.00130814 0)
(-0.000489082 0.00119508 0)
(-0.000449483 0.00109114 0)
(-0.000412829 0.000995648 0)
(-0.000378924 0.000907973 0)
(-0.000347585 0.000827525 0)
(-0.000318638 0.000753755 0)
(-0.000291921 0.00068615 0)
(-0.00026728 0.000624234 0)
(-0.000244571 0.000567562 0)
(-0.000223656 0.000515721 0)
(-0.000204409 0.000468329 0)
(-0.000186711 0.000425028 0)
(-0.000170448 0.000385488 0)
(-0.000155516 0.000349402 0)
(-0.000141817 0.000316487 0)
(-0.00012926 0.00028648 0)
(-0.000117758 0.000259137 0)
(-0.000107233 0.000234233 0)
(-9.761e-05 0.000211559 0)
(-8.88208e-05 0.000190924 0)
(-8.08013e-05 0.000172151 0)
(-7.34923e-05 0.000155074 0)
(-6.68391e-05 0.000139543 0)
(-6.0791e-05 0.000125418 0)
(-5.53015e-05 0.000112571 0)
(-5.03276e-05 0.000100882 0)
(-4.58298e-05 9.02413e-05 0)
(-4.17721e-05 8.05478e-05 0)
(-3.81213e-05 7.17076e-05 0)
(-3.48476e-05 6.36339e-05 0)
(-3.19235e-05 5.62463e-05 0)
(-2.93245e-05 4.94699e-05 0)
(-2.70286e-05 4.32354e-05 0)
(-2.5016e-05 3.74777e-05 0)
(-2.32693e-05 3.21361e-05 0)
(-2.17733e-05 2.71534e-05 0)
(-2.05149e-05 2.24756e-05 0)
(-1.94828e-05 1.80513e-05 0)
(-1.86681e-05 1.38313e-05 0)
(-1.80633e-05 9.76849e-06 0)
(-1.76631e-05 5.81688e-06 0)
(-1.74638e-05 1.93161e-06 0)
(-0.0253613 0.0831224 0)
(-0.0242626 0.0786241 0)
(-0.0231933 0.0743221 0)
(-0.0221538 0.0702115 0)
(-0.0211446 0.0662866 0)
(-0.020166 0.062542 0)
(-0.0192179 0.0589721 0)
(-0.0183008 0.0555713 0)
(-0.0174144 0.0523341 0)
(-0.0165584 0.0492548 0)
(-0.0157331 0.0463281 0)
(-0.014938 0.0435482 0)
(-0.0141725 0.0409099 0)
(-0.0134365 0.0384076 0)
(-0.0127295 0.0360362 0)
(-0.0120513 0.0337903 0)
(-0.011401 0.031665 0)
(-0.0107781 0.029655 0)
(-0.0101819 0.0277556 0)
(-0.00961177 0.0259619 0)
(-0.00906721 0.0242693 0)
(-0.00854755 0.0226731 0)
(-0.00805211 0.0211689 0)
(-0.00758015 0.0197525 0)
(-0.00713091 0.0184195 0)
(-0.00670366 0.0171659 0)
(-0.00629764 0.0159879 0)
(-0.00591212 0.0148817 0)
(-0.00554638 0.0138435 0)
(-0.00519968 0.0128699 0)
(-0.00487131 0.0119575 0)
(-0.00456056 0.011103 0)
(-0.00426673 0.0103033 0)
(-0.00398912 0.00955542 0)
(-0.00372704 0.00885642 0)
(-0.00347983 0.00820356 0)
(-0.00324682 0.00759423 0)
(-0.00302738 0.00702589 0)
(-0.00282087 0.00649615 0)
(-0.00262669 0.00600271 0)
(-0.00244423 0.00554341 0)
(-0.00227294 0.00511615 0)
(-0.00211224 0.00471898 0)
(-0.00196159 0.00435001 0)
(-0.00182048 0.00400747 0)
(-0.0016884 0.00368969 0)
(-0.00156487 0.00339506 0)
(-0.00144943 0.00312209 0)
(-0.00134161 0.00286933 0)
(-0.001241 0.00263546 0)
(-0.00114718 0.0024192 0)
(-0.00105976 0.00221936 0)
(-0.000978366 0.00203481 0)
(-0.000902634 0.00186449 0)
(-0.000832224 0.00170741 0)
(-0.00076681 0.00156263 0)
(-0.000706082 0.00142927 0)
(-0.000649745 0.00130652 0)
(-0.00059752 0.0011936 0)
(-0.000549143 0.00108979 0)
(-0.000504361 0.000994418 0)
(-0.000462939 0.000906852 0)
(-0.000424651 0.000826503 0)
(-0.000389286 0.000752824 0)
(-0.000356646 0.000685303 0)
(-0.000326542 0.000623463 0)
(-0.000298797 0.000566861 0)
(-0.000273245 0.000515084 0)
(-0.000249731 0.00046775 0)
(-0.000228108 0.000424503 0)
(-0.000208239 0.000385012 0)
(-0.000189997 0.000348971 0)
(-0.000173261 0.000316097 0)
(-0.000157919 0.000286126 0)
(-0.000143867 0.000258817 0)
(-0.000131008 0.000233943 0)
(-0.000119252 0.000211298 0)
(-0.000108514 0.000190689 0)
(-9.87165e-05 0.000171938 0)
(-8.9787e-05 0.000154882 0)
(-8.16586e-05 0.000139371 0)
(-7.42696e-05 0.000125264 0)
(-6.7563e-05 0.000112432 0)
(-6.14862e-05 0.000100757 0)
(-5.59912e-05 9.01299e-05 0)
(-5.10338e-05 8.04484e-05 0)
(-4.65736e-05 7.16191e-05 0)
(-4.25739e-05 6.35554e-05 0)
(-3.90016e-05 5.61768e-05 0)
(-3.58264e-05 4.94089e-05 0)
(-3.30214e-05 4.3182e-05 0)
(-3.05626e-05 3.74315e-05 0)
(-2.84286e-05 3.20965e-05 0)
(-2.66009e-05 2.71199e-05 0)
(-2.50634e-05 2.24479e-05 0)
(-2.38026e-05 1.8029e-05 0)
(-2.28071e-05 1.38143e-05 0)
(-2.20683e-05 9.75644e-06 0)
(-2.15793e-05 5.8097e-06 0)
(-2.13359e-05 1.92923e-06 0)
(-0.0299576 0.0829991 0)
(-0.0286598 0.0785074 0)
(-0.0273967 0.0742119 0)
(-0.0261688 0.0701073 0)
(-0.0249767 0.0661882 0)
(-0.0238207 0.0624492 0)
(-0.0227009 0.0588846 0)
(-0.0216175 0.0554888 0)
(-0.0205705 0.0522564 0)
(-0.0195593 0.0491818 0)
(-0.0185844 0.0462593 0)
(-0.0176453 0.0434836 0)
(-0.0167411 0.0408491 0)
(-0.0158716 0.0383506 0)
(-0.0150366 0.0359827 0)
(-0.0142354 0.0337402 0)
(-0.0134673 0.031618 0)
(-0.0127314 0.029611 0)
(-0.0120272 0.0277144 0)
(-0.0113537 0.0259234 0)
(-0.0107105 0.0242333 0)
(-0.0100967 0.0226395 0)
(-0.00951144 0.0211375 0)
(-0.00895394 0.0197231 0)
(-0.00842329 0.0183921 0)
(-0.0079186 0.0171405 0)
(-0.00743899 0.0159642 0)
(-0.00698361 0.0148596 0)
(-0.00655157 0.013823 0)
(-0.00614204 0.0128508 0)
(-0.00575416 0.0119398 0)
(-0.00538709 0.0110866 0)
(-0.00504001 0.010288 0)
(-0.00471208 0.00954124 0)
(-0.00440251 0.00884328 0)
(-0.00411049 0.00819139 0)
(-0.00383526 0.00758296 0)
(-0.00357604 0.00701546 0)
(-0.00333211 0.00648651 0)
(-0.00310273 0.00599381 0)
(-0.00288721 0.00553518 0)
(-0.00268487 0.00510856 0)
(-0.00249505 0.00471197 0)
(-0.0023171 0.00434355 0)
(-0.00215042 0.00400153 0)
(-0.0019944 0.00368422 0)
(-0.00184848 0.00339003 0)
(-0.00171211 0.00311745 0)
(-0.00158476 0.00286508 0)
(-0.00146591 0.00263155 0)
(-0.00135509 0.00241561 0)
(-0.00125183 0.00221607 0)
(-0.00115568 0.00203179 0)
(-0.00106622 0.00186172 0)
(-0.000983052 0.00170488 0)
(-0.000905783 0.00156031 0)
(-0.000834049 0.00142715 0)
(-0.000767502 0.00130458 0)
(-0.000705812 0.00119183 0)
(-0.000648666 0.00108817 0)
(-0.000595769 0.000992943 0)
(-0.000546839 0.000905506 0)
(-0.000501612 0.000825277 0)
(-0.000459839 0.000751707 0)
(-0.000421283 0.000684286 0)
(-0.000385722 0.000622538 0)
(-0.000352949 0.00056602 0)
(-0.000322767 0.00051432 0)
(-0.000294991 0.000467056 0)
(-0.000269449 0.000423873 0)
(-0.00024598 0.00038444 0)
(-0.000224431 0.000348453 0)
(-0.000204662 0.000315628 0)
(-0.000186539 0.000285702 0)
(-0.000169941 0.000258433 0)
(-0.000154752 0.000233596 0)
(-0.000140865 0.000210984 0)
(-0.000128181 0.000190406 0)
(-0.000116607 0.000171683 0)
(-0.00010606 0.000154653 0)
(-9.6458e-05 0.000139164 0)
(-8.77299e-05 0.000125078 0)
(-7.98077e-05 0.000112265 0)
(-7.26297e-05 0.000100608 0)
(-6.61388e-05 8.99963e-05 0)
(-6.02829e-05 8.03291e-05 0)
(-5.50143e-05 7.15129e-05 0)
(-5.02898e-05 6.34612e-05 0)
(-4.607e-05 5.60936e-05 0)
(-4.23194e-05 4.93356e-05 0)
(-3.9006e-05 4.3118e-05 0)
(-3.61016e-05 3.7376e-05 0)
(-3.35809e-05 3.20489e-05 0)
(-3.14219e-05 2.70797e-05 0)
(-2.96058e-05 2.24146e-05 0)
(-2.81164e-05 1.80023e-05 0)
(-2.69406e-05 1.37938e-05 0)
(-2.60678e-05 9.74198e-06 0)
(-2.54903e-05 5.8011e-06 0)
(-2.52028e-05 1.92637e-06 0)
(-0.0345465 0.0828554 0)
(-0.0330499 0.0783713 0)
(-0.0315933 0.0740833 0)
(-0.0301774 0.0699858 0)
(-0.0288027 0.0660735 0)
(-0.0274696 0.062341 0)
(-0.0261782 0.0587825 0)
(-0.0249289 0.0553927 0)
(-0.0237215 0.0521659 0)
(-0.0225555 0.0490966 0)
(-0.0214312 0.0461792 0)
(-0.0203482 0.0434083 0)
(-0.0193055 0.0407784 0)
(-0.0183029 0.0382842 0)
(-0.0173399 0.0359204 0)
(-0.016416 0.0336817 0)
(-0.0155302 0.0315632 0)
(-0.0146816 0.0295597 0)
(-0.0138695 0.0276664 0)
(-0.0130929 0.0258785 0)
(-0.0123512 0.0241913 0)
(-0.0116433 0.0226002 0)
(-0.0109684 0.0211009 0)
(-0.0103255 0.019689 0)
(-0.00971359 0.0183603 0)
(-0.00913158 0.0171108 0)
(-0.00857851 0.0159366 0)
(-0.00805336 0.0148339 0)
(-0.00755515 0.013799 0)
(-0.00708288 0.0128286 0)
(-0.00663559 0.0119191 0)
(-0.00621229 0.0110673 0)
(-0.00581204 0.0102702 0)
(-0.00543388 0.00952471 0)
(-0.00507689 0.00882795 0)
(-0.00474014 0.0081772 0)
(-0.00442275 0.00756982 0)
(-0.00412383 0.00700331 0)
(-0.00384253 0.00647527 0)
(-0.00357801 0.00598342 0)
(-0.00332948 0.00552559 0)
(-0.00309614 0.00509971 0)
(-0.00287724 0.00470381 0)
(-0.00267204 0.00433603 0)
(-0.00247982 0.0039946 0)
(-0.00229991 0.00367783 0)
(-0.00213164 0.00338415 0)
(-0.00197438 0.00311205 0)
(-0.00182751 0.00286011 0)
(-0.00169046 0.00262699 0)
(-0.00156266 0.00241143 0)
(-0.00144358 0.00221223 0)
(-0.00133271 0.00202827 0)
(-0.00122955 0.0018585 0)
(-0.00113364 0.00170192 0)
(-0.00104453 0.00155761 0)
(-0.00096181 0.00142468 0)
(-0.000885069 0.00130232 0)
(-0.000813929 0.00118977 0)
(-0.00074803 0.00108629 0)
(-0.00068703 0.000991223 0)
(-0.000630605 0.000903938 0)
(-0.00057845 0.000823847 0)
(-0.000530277 0.000750405 0)
(-0.000485815 0.0006831 0)
(-0.000444808 0.000621459 0)
(-0.000407014 0.000565039 0)
(-0.000372208 0.000513429 0)
(-0.000340178 0.000466247 0)
(-0.000310724 0.000423139 0)
(-0.000283659 0.000383775 0)
(-0.00025881 0.00034785 0)
(-0.000236012 0.000315081 0)
(-0.000215114 0.000285207 0)
(-0.000195973 0.000257985 0)
(-0.000178457 0.000233192 0)
(-0.000162443 0.000210619 0)
(-0.000147816 0.000190076 0)
(-0.000134469 0.000171386 0)
(-0.000122306 0.000154385 0)
(-0.000111234 0.000138923 0)
(-0.000101168 0.000124861 0)
(-9.20328e-05 0.000112071 0)
(-8.37552e-05 0.000100434 0)
(-7.627e-05 8.98404e-05 0)
(-6.95171e-05 8.019e-05 0)
(-6.34415e-05 7.13891e-05 0)
(-5.79933e-05 6.33513e-05 0)
(-5.31271e-05 5.59964e-05 0)
(-4.88019e-05 4.92502e-05 0)
(-4.4981e-05 4.30434e-05 0)
(-4.16317e-05 3.73113e-05 0)
(-3.87248e-05 3.19934e-05 0)
(-3.62352e-05 2.70328e-05 0)
(-3.41409e-05 2.23758e-05 0)
(-3.24234e-05 1.79711e-05 0)
(-3.10674e-05 1.37699e-05 0)
(-3.0061e-05 9.72512e-06 0)
(-2.93949e-05 5.79105e-06 0)
(-2.90634e-05 1.92303e-06 0)
(-0.0391269 0.0826912 0)
(-0.0374319 0.078216 0)
(-0.0357822 0.0739364 0)
(-0.0341786 0.0698471 0)
(-0.0326216 0.0659426 0)
(-0.0311117 0.0622174 0)
(-0.0296491 0.058666 0)
(-0.0282342 0.0552829 0)
(-0.0268666 0.0520625 0)
(-0.025546 0.0489992 0)
(-0.0242727 0.0460876 0)
(-0.0230461 0.0433222 0)
(-0.0218652 0.0406975 0)
(-0.0207296 0.0382083 0)
(-0.019639 0.0358491 0)
(-0.0185926 0.033615 0)
(-0.0175893 0.0315006 0)
(-0.0166282 0.0295011 0)
(-0.0157084 0.0276116 0)
(-0.0148289 0.0258272 0)
(-0.0139888 0.0241433 0)
(-0.0131871 0.0225554 0)
(-0.0124227 0.0210591 0)
(-0.0116946 0.0196499 0)
(-0.0110015 0.0183239 0)
(-0.0103423 0.0170768 0)
(-0.00971591 0.015905 0)
(-0.00912113 0.0148044 0)
(-0.00855686 0.0137717 0)
(-0.00802198 0.0128031 0)
(-0.00751538 0.0118955 0)
(-0.00703596 0.0110454 0)
(-0.00658264 0.0102499 0)
(-0.00615435 0.00950583 0)
(-0.00575002 0.00881045 0)
(-0.00536862 0.00816099 0)
(-0.00500914 0.00755481 0)
(-0.00467059 0.00698943 0)
(-0.00435199 0.00646243 0)
(-0.00405241 0.00597156 0)
(-0.00377093 0.00551464 0)
(-0.00350665 0.0050896 0)
(-0.00325873 0.00469448 0)
(-0.00302631 0.00432743 0)
(-0.00280861 0.00398668 0)
(-0.00260485 0.00367054 0)
(-0.00241427 0.00337744 0)
(-0.00223615 0.00310588 0)
(-0.00206982 0.00285444 0)
(-0.0019146 0.00262178 0)
(-0.00176985 0.00240665 0)
(-0.00163499 0.00220784 0)
(-0.00150941 0.00202425 0)
(-0.00139257 0.00185481 0)
(-0.00128394 0.00169855 0)
(-0.00118302 0.00155452 0)
(-0.00108933 0.00142186 0)
(-0.00100242 0.00129974 0)
(-0.000921846 0.00118741 0)
(-0.000847209 0.00108414 0)
(-0.000778121 0.000989258 0)
(-0.000714215 0.000902146 0)
(-0.000655145 0.000822214 0)
(-0.000600585 0.000748917 0)
(-0.000550228 0.000681746 0)
(-0.000503784 0.000620227 0)
(-0.000460979 0.000563919 0)
(-0.000421559 0.000512411 0)
(-0.000385281 0.000465323 0)
(-0.000351922 0.0004223 0)
(-0.000321269 0.000383014 0)
(-0.000293124 0.00034716 0)
(-0.000267304 0.000314457 0)
(-0.000243635 0.000284642 0)
(-0.000221956 0.000257474 0)
(-0.000202118 0.00023273 0)
(-0.00018398 0.000210202 0)
(-0.000167414 0.000189699 0)
(-0.000152298 0.000171046 0)
(-0.000138522 0.000154079 0)
(-0.000125982 0.000138648 0)
(-0.000114582 0.000124614 0)
(-0.000104235 0.000111849 0)
(-9.48601e-05 0.000100235 0)
(-8.63825e-05 8.96624e-05 0)
(-7.87342e-05 8.00311e-05 0)
(-7.18531e-05 7.12477e-05 0)
(-6.56825e-05 6.32258e-05 0)
(-6.01711e-05 5.58855e-05 0)
(-5.52725e-05 4.91526e-05 0)
(-5.0945e-05 4.29581e-05 0)
(-4.71515e-05 3.72374e-05 0)
(-4.38593e-05 3.193e-05 0)
(-4.10395e-05 2.69793e-05 0)
(-3.86675e-05 2.23315e-05 0)
(-3.67223e-05 1.79355e-05 0)
(-3.51866e-05 1.37426e-05 0)
(-3.40467e-05 9.70586e-06 0)
(-3.32924e-05 5.77959e-06 0)
(-3.29169e-05 1.91923e-06 0)
(-0.0436977 0.0825065 0)
(-0.0418047 0.0780413 0)
(-0.0399622 0.0737713 0)
(-0.0381713 0.0696911 0)
(-0.0364324 0.0657953 0)
(-0.0347462 0.0620784 0)
(-0.0331127 0.058535 0)
(-0.0315325 0.0551594 0)
(-0.0300052 0.0519462 0)
(-0.0285303 0.0488898 0)
(-0.0271083 0.0459847 0)
(-0.0257383 0.0432254 0)
(-0.0244195 0.0406066 0)
(-0.0231513 0.0381229 0)
(-0.0219332 0.0357691 0)
(-0.0207645 0.0335399 0)
(-0.0196441 0.0314303 0)
(-0.0185707 0.0294353 0)
(-0.0175434 0.0275499 0)
(-0.0165612 0.0257695 0)
(-0.0156229 0.0240894 0)
(-0.0147276 0.0225051 0)
(-0.0138739 0.021012 0)
(-0.0130607 0.0196061 0)
(-0.0122867 0.0182829 0)
(-0.0115505 0.0170387 0)
(-0.0108509 0.0158694 0)
(-0.0101867 0.0147714 0)
(-0.00955646 0.0137409 0)
(-0.0089591 0.0127745 0)
(-0.00839332 0.0118689 0)
(-0.0078579 0.0110207 0)
(-0.00735162 0.010227 0)
(-0.00687329 0.0094846 0)
(-0.00642173 0.00879078 0)
(-0.00599578 0.00814276 0)
(-0.00559431 0.00753794 0)
(-0.0052162 0.00697382 0)
(-0.00486039 0.006448 0)
(-0.00452581 0.00595823 0)
(-0.00421144 0.00550232 0)
(-0.0039163 0.00507823 0)
(-0.00363941 0.004684 0)
(-0.00337985 0.00431777 0)
(-0.00313671 0.00397777 0)
(-0.00290914 0.00366234 0)
(-0.0026963 0.0033699 0)
(-0.00249738 0.00309895 0)
(-0.00231161 0.00284807 0)
(-0.00213826 0.00261593 0)
(-0.00197661 0.00240127 0)
(-0.00182598 0.00220291 0)
(-0.00168574 0.00201973 0)
(-0.00155525 0.00185067 0)
(-0.00143393 0.00169476 0)
(-0.00132122 0.00155105 0)
(-0.00121659 0.00141868 0)
(-0.00111952 0.00129684 0)
(-0.00102953 0.00118476 0)
(-0.000946179 0.00108172 0)
(-0.00086902 0.000987049 0)
(-0.000797649 0.000900131 0)
(-0.000731678 0.000820378 0)
(-0.000670745 0.000747245 0)
(-0.000614505 0.000680224 0)
(-0.000562635 0.000618843 0)
(-0.00051483 0.00056266 0)
(-0.000470805 0.000511267 0)
(-0.000430289 0.000464284 0)
(-0.000393033 0.000421357 0)
(-0.000358799 0.000382159 0)
(-0.000327367 0.000346385 0)
(-0.00029853 0.000313755 0)
(-0.000272096 0.000284006 0)
(-0.000247885 0.000256899 0)
(-0.000225729 0.00023221 0)
(-0.000205473 0.000209732 0)
(-0.000186971 0.000189276 0)
(-0.00017009 0.000170664 0)
(-0.000154704 0.000153735 0)
(-0.000140699 0.000138338 0)
(-0.000127968 0.000124336 0)
(-0.000116412 0.000111599 0)
(-0.000105942 0.000100011 0)
(-9.64736e-05 8.94623e-05 0)
(-8.79319e-05 7.98525e-05 0)
(-8.02469e-05 7.10887e-05 0)
(-7.33555e-05 6.30847e-05 0)
(-6.72002e-05 5.57608e-05 0)
(-6.17293e-05 4.9043e-05 0)
(-5.68963e-05 4.28622e-05 0)
(-5.26597e-05 3.71543e-05 0)
(-4.89829e-05 3.18588e-05 0)
(-4.58338e-05 2.69191e-05 0)
(-4.31847e-05 2.22816e-05 0)
(-4.10122e-05 1.78955e-05 0)
(-3.92971e-05 1.3712e-05 0)
(-3.8024e-05 9.6842e-06 0)
(-3.71816e-05 5.76669e-06 0)
(-3.67622e-05 1.91494e-06 0)
(-0.0482577 0.0823015 0)
(-0.0461671 0.0778474 0)
(-0.0441324 0.073588 0)
(-0.0421545 0.0695179 0)
(-0.0402342 0.0656318 0)
(-0.038372 0.0619242 0)
(-0.0365681 0.0583895 0)
(-0.034823 0.0550224 0)
(-0.0331363 0.0518171 0)
(-0.0315075 0.0487683 0)
(-0.0299371 0.0458704 0)
(-0.0284241 0.043118 0)
(-0.0269677 0.0405057 0)
(-0.0255672 0.0380282 0)
(-0.024222 0.0356802 0)
(-0.0229314 0.0334566 0)
(-0.021694 0.0313522 0)
(-0.0205086 0.0293621 0)
(-0.0193741 0.0274815 0)
(-0.0182894 0.0257055 0)
(-0.0172532 0.0240296 0)
(-0.0162645 0.0224491 0)
(-0.0153217 0.0209598 0)
(-0.0144237 0.0195573 0)
(-0.0135688 0.0182375 0)
(-0.0127558 0.0169964 0)
(-0.0119832 0.01583 0)
(-0.0112497 0.0147347 0)
(-0.0105537 0.0137068 0)
(-0.009894 0.0127428 0)
(-0.00926918 0.0118394 0)
(-0.00867789 0.0109934 0)
(-0.00811878 0.0102016 0)
(-0.00759054 0.00946103 0)
(-0.00709185 0.00876893 0)
(-0.00662146 0.00812253 0)
(-0.00617809 0.00751921 0)
(-0.00576053 0.00695649 0)
(-0.00536759 0.00643198 0)
(-0.00499809 0.00594342 0)
(-0.00465092 0.00548865 0)
(-0.00432497 0.00506561 0)
(-0.00401919 0.00467236 0)
(-0.00373254 0.00430704 0)
(-0.00346404 0.00396789 0)
(-0.00321272 0.00365324 0)
(-0.00297766 0.00336153 0)
(-0.00275799 0.00309125 0)
(-0.00255283 0.00284099 0)
(-0.00236139 0.00260943 0)
(-0.00218287 0.00239531 0)
(-0.00201653 0.00219744 0)
(-0.00186165 0.00201471 0)
(-0.00171754 0.00184607 0)
(-0.00158357 0.00169054 0)
(-0.0014591 0.0015472 0)
(-0.00134354 0.00141516 0)
(-0.00123634 0.00129362 0)
(-0.00113697 0.00118181 0)
(-0.00104492 0.00107903 0)
(-0.000959705 0.000984597 0)
(-0.000880886 0.000897895 0)
(-0.000808031 0.00081834 0)
(-0.00074074 0.000745389 0)
(-0.000678631 0.000678534 0)
(-0.000621348 0.000617305 0)
(-0.000568554 0.000561262 0)
(-0.000519935 0.000509997 0)
(-0.000475191 0.000463131 0)
(-0.000434047 0.00042031 0)