/*--------------------------------*- C++ -*----------------------------------*\
| =========                 |                                                 |
| \\      /  F ield         | OpenFOAM: The Open Source CFD Toolbox           |
|  \\    /   O peration     | Version:  2406                                  |
|   \\  /    A nd           | Website:  www.openfoam.com                      |
|    \\/     M anipulation  |                                                 |
\*---------------------------------------------------------------------------*/
FoamFile
{
    version     2.0;
    format      ascii;
    arch        "LSB;label=32;scalar=64";
    class       volScalarField;
    location    "70";
    object      gradTx;
}
// * * * * * * * * * * * * * * * * * * * * * * * * * * * * * * * * * * * * * //

dimensions      [0 -1 0 1 0 0 0];

internalField   nonuniform List<scalar> 
20000
(
-6.31575
-6.23284
-6.13769
-6.03147
-5.91577
-5.79195
-5.66043
-5.52277
-5.38046
-5.23387
-5.08369
-4.93095
-4.77654
-4.62111
-4.4652
-4.30932
-4.15399
-3.99972
-3.84694
-3.69605
-3.54739
-3.40126
-3.25791
-3.11757
-2.98043
-2.84666
-2.7164
-2.58977
-2.46685
-2.34772
-2.23243
-2.12101
-2.01347
-1.90982
-1.81004
-1.7141
-1.62196
-1.53358
-1.44889
-1.36783
-1.29034
-1.21632
-1.1457
-1.07838
-1.01428
-0.953306
-0.895353
-0.840326
-0.788124
-0.738648
-0.691797
-0.647471
-0.605571
-0.565997
-0.528652
-0.493441
-0.460268
-0.429043
-0.399674
-0.372073
-0.346156
-0.321839
-0.299041
-0.277685
-0.257696
-0.239002
-0.221531
-0.205219
-0.19
-0.175812
-0.162599
-0.150302
-0.138869
-0.128248
-0.118392
-0.109255
-0.100793
-0.0929654
-0.0857331
-0.0790598
-0.0729112
-0.0672552
-0.0620616
-0.0573024
-0.0529513
-0.0489841
-0.0453783
-0.0421131
-0.0391696
-0.0365305
-0.03418
-0.0321039
-0.0302897
-0.0287262
-0.0274037
-0.0263142
-0.0254506
-0.0248077
-0.0243812
-0.0241687
-18.9458
-18.6969
-18.4114
-18.0932
-17.7459
-17.374
-16.9799
-16.5673
-16.1401
-15.7001
-15.2497
-14.7917
-14.3285
-13.8622
-13.3945
-12.9269
-12.4609
-11.9981
-11.5399
-11.0872
-10.6413
-10.2029
-9.77292
-9.35194
-8.94055
-8.53928
-8.14854
-7.76867
-7.39995
-7.04259
-6.69674
-6.36251
-6.03993
-5.72899
-5.42967
-5.14187
-4.86548
-4.60035
-4.34631
-4.10316
-3.87069
-3.64865
-3.43681
-3.23488
-3.0426
-2.85968
-2.68584
-2.52077
-2.36418
-2.21576
-2.07522
-1.94225
-1.81656
-1.69785
-1.58583
-1.4802
-1.38069
-1.28702
-1.19892
-1.11613
-1.03838
-0.965437
-0.89705
-0.832988
-0.773026
-0.716946
-0.664539
-0.615606
-0.569952
-0.527394
-0.487755
-0.450868
-0.416571
-0.384713
-0.355148
-0.327738
-0.302355
-0.278873
-0.257178
-0.23716
-0.218716
-0.201749
-0.18617
-0.171893
-0.158841
-0.14694
-0.136124
-0.126329
-0.117499
-0.109582
-0.102531
-0.0963037
-0.0908615
-0.0861714
-0.0822045
-0.078936
-0.0763455
-0.0744169
-0.0731378
-0.0725001
-31.5712
-31.1566
-30.6805
-30.1503
-29.5716
-28.9516
-28.2952
-27.6079
-26.8958
-26.1624
-25.4119
-24.6488
-23.877
-23.1
-22.3205
-21.5412
-20.7648
-19.9936
-19.2299
-18.4757
-17.7326
-17.0021
-16.2855
-15.584
-14.8985
-14.2298
-13.5787
-12.9456
-12.3312
-11.7357
-11.1594
-10.6024
-10.0649
-9.54675
-9.04796
-8.56837
-8.10779
-7.66598
-7.24266
-6.83748
-6.45009
-6.08009
-5.72707
-5.39058
-5.07017
-4.76535
-4.47566
-4.20059
-3.93965
-3.69233
-3.45813
-3.23656
-3.02711
-2.82929
-2.64261
-2.4666
-2.30077
-2.14468
-1.99787
-1.85991
-1.73035
-1.6088
-1.49484
-1.38808
-1.28816
-1.19471
-1.10738
-1.02584
-0.949764
-0.878845
-0.812792
-0.751323
-0.694171
-0.641083
-0.591816
-0.546141
-0.503841
-0.464712
-0.42856
-0.395201
-0.364466
-0.336193
-0.310232
-0.286441
-0.264691
-0.24486
-0.226835
-0.210514
-0.1958
-0.182607
-0.170858
-0.16048
-0.151411
-0.143595
-0.136985
-0.131538
-0.127222
-0.124008
-0.121876
-0.120814
-44.1887
-43.6087
-42.9423
-42.1999
-41.3901
-40.5222
-39.6035
-38.6417
-37.6447
-36.6182
-35.5678
-34.4998
-33.4197
-32.3321
-31.241
-30.1502
-29.0634
-27.9841
-26.9152
-25.8596
-24.8195
-23.7971
-22.7941
-21.8122
-20.8527
-19.9168
-19.0054
-18.1194
-17.2594
-16.426
-15.6193
-14.8397
-14.0874
-13.3622
-12.664
-11.9928
-11.3481
-10.7297
-10.1372
-9.57011
-9.02789
-8.51003
-8.01592
-7.54495
-7.09648
-6.66985
-6.26438
-5.87938
-5.51415
-5.16798
-4.84019
-4.53006
-4.2369
-3.96002
-3.69874
-3.45238
-3.22029
-3.00182
-2.79633
-2.60323
-2.4219
-2.25176
-2.09226
-1.94284
-1.80298
-1.67219
-1.54995
-1.43582
-1.32934
-1.23008
-1.13763
-1.05159
-0.9716
-0.897294
-0.828337
-0.764409
-0.705204
-0.650437
-0.599835
-0.553145
-0.510127
-0.470554
-0.434217
-0.400919
-0.370476
-0.34272
-0.317491
-0.294646
-0.274052
-0.255587
-0.239142
-0.224616
-0.211923
-0.200984
-0.191732
-0.184108
-0.178066
-0.173568
-0.170585
-0.169098
-56.7952
-56.0497
-55.1934
-54.2392
-53.1984
-52.0828
-50.9021
-49.6659
-48.3844
-47.0649
-45.715
-44.3424
-42.9541
-41.5562
-40.1537
-38.7518
-37.3549
-35.9677
-34.5939
-33.2371
-31.9003
-30.5862
-29.2971
-28.0351
-26.8018
-25.5989
-24.4275
-23.2887
-22.1834
-21.1121
-20.0754
-19.0734
-18.1064
-17.1743
-16.2769
-15.4142
-14.5856
-13.7908
-13.0293
-12.3004
-11.6035
-10.9379
-10.3028
-9.69746
-9.12104
-8.5727
-8.05155
-7.55671
-7.08728
-6.64237
-6.22105
-5.82245
-5.44566
-5.08978
-4.75396
-4.43732
-4.13901
-3.85821
-3.5941
-3.3459
-3.11284
-2.89417
-2.68916
-2.49711
-2.31736
-2.14925
-1.99214
-1.84545
-1.70859
-1.58101
-1.46218
-1.3516
-1.24879
-1.15328
-1.06465
-0.982488
-0.906392
-0.836
-0.770963
-0.710953
-0.655661
-0.604799
-0.558095
-0.515298
-0.47617
-0.440495
-0.408069
-0.378707
-0.352237
-0.328504
-0.307367
-0.288698
-0.272383
-0.258323
-0.246431
-0.236633
-0.228867
-0.223086
-0.219251
-0.21734
-69.3876
-68.4769
-67.4309
-66.2651
-64.9936
-63.6306
-62.188
-60.6778
-59.1121
-57.5001
-55.8509
-54.174
-52.478
-50.77
-49.0566
-47.3437
-45.6372
-43.9424
-42.264
-40.6064
-38.9732
-37.3678
-35.7929
-34.251
-32.7443
-31.2747
-29.8436
-28.4523
-27.1019
-25.7931
-24.5265
-23.3023
-22.1209
-20.9821
-19.8859
-18.8318
-17.8195
-16.8485
-15.9181
-15.0276
-14.1762
-13.363
-12.5871
-11.8476
-11.1434
-10.4734
-9.83674
-9.23218
-8.65867
-8.11511
-7.60038
-7.1134
-6.65306
-6.21829
-5.808
-5.42115
-5.05671
-4.71365
-4.39099
-4.08776
-3.80302
-3.53586
-3.2854
-3.05077
-2.83116
-2.62578
-2.43384
-2.25462
-2.08742
-1.93155
-1.78638
-1.65128
-1.52567
-1.40899
-1.30071
-1.20032
-1.10736
-1.02136
-0.941901
-0.868585
-0.801034
-0.738895
-0.681836
-0.629549
-0.581746
-0.538161
-0.498546
-0.462673
-0.430335
-0.40134
-0.375516
-0.352708
-0.332776
-0.315599
-0.30107
-0.289099
-0.279612
-0.272548
-0.267864
-0.265529
-81.963
-80.8873
-79.6517
-78.2746
-76.7727
-75.1627
-73.4587
-71.6748
-69.8253
-67.921
-65.973
-63.9923
-61.9888
-59.9713
-57.9473
-55.924
-53.9082
-51.9063
-49.9238
-47.9657
-46.0366
-44.1401
-42.2798
-40.4585
-38.6787
-36.9427
-35.2523
-33.6089
-32.0137
-30.4677
-28.9715
-27.5255
-26.13
-24.7848
-23.4899
-22.2448
-21.0491
-19.9021
-18.803
-17.7511
-16.7454
-15.7848
-14.8683
-13.9948
-13.1629
-12.3716
-11.6195
-10.9054
-10.2279
-9.58584
-8.97784
-8.4026
-7.85883
-7.34526
-6.86061
-6.40366
-5.97316
-5.56793
-5.18679
-4.8286
-4.49226
-4.17668
-3.88082
-3.60368
-3.34427
-3.10166
-2.87494
-2.66324
-2.46573
-2.28162
-2.11013
-1.95055
-1.80217
-1.66435
-1.53644
-1.41786
-1.30805
-1.20646
-1.11261
-1.026
-0.94621
-0.872809
-0.805409
-0.743645
-0.687179
-0.635694
-0.5889
-0.546526
-0.508327
-0.474077
-0.443573
-0.416631
-0.393086
-0.372796
-0.355634
-0.341494
-0.330288
-0.321944
-0.31641
-0.313652
-94.5183
-93.2777
-91.8529
-90.2648
-88.5328
-86.6762
-84.7112
-82.654
-80.5212
-78.3253
-76.0789
-73.7948
-71.4844
-69.1578
-66.8237
-64.4905
-62.166
-59.8574
-57.5712
-55.3132
-53.0885
-50.9016
-48.7563
-46.656
-44.6036
-42.6017
-40.6523
-38.7571
-36.9176
-35.1348
-33.4094
-31.7419
-30.1326
-28.5814
-27.0881
-25.6523
-24.2734
-22.9507
-21.6833
-20.4703
-19.3105
-18.2028
-17.1459
-16.1385
-15.1792
-14.2667
-13.3994
-12.5759
-11.7946
-11.0542
-10.3531
-9.68972
-9.06266
-8.47041
-7.91153
-7.38458
-6.88814
-6.42083
-5.98131
-5.56825
-5.18039
-4.81647
-4.47529
-4.1557
-3.85655
-3.57677
-3.31532
-3.0712
-2.84344
-2.63112
-2.43336
-2.24934
-2.07823
-1.9193
-1.7718
-1.63506
-1.50842
-1.39127
-1.28304
-1.18317
-1.09115
-1.00651
-0.928783
-0.857558
-0.792443
-0.733071
-0.679108
-0.630244
-0.586193
-0.546697
-0.51152
-0.480451
-0.4533
-0.429902
-0.410111
-0.393805
-0.380882
-0.37126
-0.364879
-0.361698
-107.05
-105.645
-104.031
-102.233
-100.271
-98.1683
-95.9428
-93.6129
-91.1973
-88.7102
-86.166
-83.579
-80.9624
-78.3272
-75.6836
-73.0411
-70.4083
-67.7937
-65.2044
-62.647
-60.1274
-57.6505
-55.2208
-52.842
-50.5175
-48.2501
-46.0422
-43.8958
-41.8124
-39.7932
-37.8391
-35.9505
-34.1278
-32.3709
-30.6796
-29.0534
-27.4917
-25.9936
-24.5582
-23.1844
-21.8708
-20.6162
-19.4192
-18.2783
-17.1918
-16.1583
-15.176
-14.2433
-13.3585
-12.5199
-11.7258
-10.9744
-10.2642
-9.59348
-8.9605
-8.36368
-7.80141
-7.27215
-6.77435
-6.30653
-5.86724
-5.45507
-5.06866
-4.70669
-4.36788
-4.05101
-3.75489
-3.4784
-3.22044
-2.97997
-2.756
-2.54757
-2.35378
-2.17377
-2.00672
-1.85184
-1.70842
-1.57574
-1.45315
-1.34004
-1.23582
-1.13996
-1.05193
-0.97126
-0.89751
-0.830267
-0.76915
-0.713806
-0.663915
-0.619182
-0.579341
-0.544153
-0.513402
-0.486902
-0.464487
-0.446019
-0.431382
-0.420485
-0.413258
-0.409655
-119.556
-117.986
-116.184
-114.175
-111.985
-109.636
-107.151
-104.549
-101.851
-99.0732
-96.2318
-93.3427
-90.4203
-87.4773
-84.5249
-81.5736
-78.6333
-75.7132
-72.8215
-69.9654
-67.1515
-64.3852
-61.6716
-59.0149
-56.4189
-53.8866
-51.4208
-49.0237
-46.6969
-44.4418
-42.2594
-40.1502
-38.1146
-36.1524
-34.2636
-32.4474
-30.7033
-29.0302
-27.4271
-25.8927
-24.4257
-23.0246
-21.6877
-20.4135
-19.2001
-18.0458
-16.9488
-15.9071
-14.919
-13.9824
-13.0955
-12.2565
-11.4633
-10.7142
-10.0073
-9.34071
-8.71276
-8.12167
-7.56572
-7.04325
-6.55264
-6.09233
-5.66077
-5.25652
-4.87813
-4.52424
-4.19353
-3.88474
-3.59665
-3.32809
-3.07795
-2.84517
-2.62875
-2.42771
-2.24114
-2.06817
-1.90799
-1.75981
-1.62291
-1.49658
-1.38019
-1.27313
-1.17481
-1.08472
-1.00236
-0.927259
-0.859001
-0.797193
-0.741473
-0.691515
-0.64702
-0.60772
-0.573378
-0.543781
-0.518748
-0.498123
-0.481776
-0.469606
-0.461534
-0.457511
-132.032
-130.299
-128.308
-126.09
-123.671
-121.077
-118.332
-115.459
-112.479
-109.412
-106.274
-103.083
-99.856
-96.6058
-93.3453
-90.086
-86.839
-83.6141
-80.4207
-77.2666
-74.1589
-71.104
-68.1072
-65.1733
-62.3064
-59.5099
-56.7868
-54.1394
-51.5699
-49.0794
-46.6693
-44.34
-42.0919
-39.9251
-37.8391
-35.8334
-33.9072
-32.0596
-30.2892
-28.5947
-26.9746
-25.4273
-23.9509
-22.5437
-21.2037
-19.929
-18.7175
-17.5671
-16.4758
-15.4415
-14.4621
-13.5355
-12.6595
-11.8322
-11.0515
-10.3154
-9.62197
-8.96919
-8.35523
-7.77824
-7.23643
-6.72808
-6.25149
-5.80505
-5.38718
-4.99636
-4.63114
-4.29013
-3.97197
-3.67538
-3.39914
-3.14208
-2.90307
-2.68105
-2.47501
-2.28399
-2.1071
-1.94345
-1.79226
-1.65276
-1.52422
-1.40598
-1.29741
-1.19792
-1.10696
-1.02402
-0.948641
-0.880382
-0.818849
-0.763677
-0.714539
-0.671138
-0.633212
-0.600527
-0.572881
-0.550104
-0.532052
-0.518611
-0.509697
-0.505254
-144.475
-142.579
-140.401
-137.973
-135.326
-132.488
-129.484
-126.34
-123.08
-119.723
-116.29
-112.798
-109.267
-105.71
-102.143
-98.5762
-95.0231
-91.4944
-88
-84.5486
-81.1481
-77.8053
-74.5261
-71.3156
-68.1785
-65.1184
-62.1387
-59.2419
-56.4301
-53.705
-51.0676
-48.5188
-46.0589
-43.6878
-41.4052
-39.2105
-37.1028
-35.081
-33.1438
-31.2896
-29.5169
-27.8237
-26.2082
-24.6683
-23.2021
-21.8072
-20.4815
-19.2227
-18.0286
-16.8968
-15.8251
-14.8111
-13.8526
-12.9474
-12.0931
-11.2876
-10.5288
-9.8145
-9.14267
-8.5113
-7.91843
-7.36217
-6.84067
-6.35215
-5.89489
-5.46724
-5.06761
-4.69445
-4.34631
-4.02177
-3.7195
-3.43821
-3.17667
-2.93372
-2.70827
-2.49925
-2.30568
-2.12662
-1.96118
-1.80852
-1.66787
-1.53849
-1.41968
-1.31081
-1.21128
-1.12053
-1.03805
-0.963355
-0.896022
-0.83565
-0.781881
-0.734391
-0.69289
-0.657124
-0.626874
-0.601949
-0.582196
-0.567488
-0.557735
-0.552873
-156.883
-154.824
-152.459
-149.823
-146.948
-143.866
-140.605
-137.191
-133.65
-130.005
-126.277
-122.486
-118.651
-114.789
-110.915
-107.042
-103.184
-99.3521
-95.5576
-91.8098
-88.1173
-84.4874
-80.9265
-77.4404
-74.0338
-70.7109
-67.4752
-64.3296
-61.2764
-58.3172
-55.4534
-52.6857
-50.0145
-47.4398
-44.9612
-42.578
-40.2893
-38.0939
-35.9903
-33.9768
-32.0518
-30.2132
-28.459
-26.7869
-25.1947
-23.68
-22.2405
-20.8736
-19.5769
-18.3479
-17.1842
-16.0831
-15.0423
-14.0593
-13.1317
-12.257
-11.433
-10.6574
-9.92786
-9.24226
-8.59848
-7.99445
-7.42816
-6.89768
-6.40116
-5.93678
-5.50282
-5.09762
-4.71958
-4.36717
-4.03894
-3.73348
-3.44949
-3.18568
-2.94086
-2.71389
-2.5037
-2.30926
-2.12961
-1.96384
-1.81111
-1.67062
-1.54161
-1.42339
-1.31531
-1.21676
-1.1272
-1.04609
-0.972974
-0.907418
-0.849031
-0.797462
-0.752397
-0.71356
-0.680711
-0.653646
-0.632196
-0.616226
-0.605635
-0.600355
-169.252
-167.03
-164.479
-161.635
-158.534
-155.209
-151.69
-148.007
-144.188
-140.255
-136.233
-132.143
-128.006
-123.839
-119.66
-115.482
-111.319
-107.185
-103.092
-99.0484
-95.0647
-91.1486
-87.307
-83.546
-79.8708
-76.286
-72.7952
-69.4016
-66.1076
-62.9151
-59.8255
-56.8396
-53.9578
-51.1801
-48.506
-45.935
-43.4658
-41.0973
-38.8278
-36.6557
-34.5789
-32.5953
-30.7028
-28.8989
-27.1811
-25.547
-23.994
-22.5193
-21.1204
-19.7945
-18.539
-17.3512
-16.2283
-15.1678
-14.167
-13.2234
-12.3344
-11.4976
-10.7106
-9.97095
-9.27641
-8.62475
-8.01381
-7.44151
-6.90584
-6.40485
-5.93668
-5.49953
-5.09168
-4.71149
-4.35738
-4.02784
-3.72145
-3.43685
-3.17272
-2.92786
-2.7011
-2.49132
-2.29751
-2.11868
-1.95391
-1.80233
-1.66315
-1.53561
-1.41901
-1.3127
-1.21607
-1.12857
-1.04969
-0.978962
-0.915971
-0.860336
-0.811719
-0.76982
-0.734381
-0.705182
-0.682041
-0.664811
-0.653385
-0.64769
-181.579
-179.196
-176.459
-173.408
-170.081
-166.514
-162.739
-158.787
-154.689
-150.471
-146.155
-141.767
-137.329
-132.859
-128.375
-123.893
-119.427
-114.992
-110.6
-106.262
-101.989
-97.7873
-93.6659
-89.631
-85.6881
-81.8422
-78.0971
-74.4564
-70.9225
-67.4975
-64.1828
-60.9794
-57.8877
-54.9077
-52.0389
-49.2806
-46.6316
-44.0906
-41.6558
-39.3254
-37.0974
-34.9694
-32.939
-31.0037
-29.1608
-27.4077
-25.7416
-24.1595
-22.6587
-21.2363
-19.8893
-18.6149
-17.4103
-16.2725
-15.1988
-14.1865
-13.2328
-12.3351
-11.4907
-10.6972
-9.95205
-9.25292
-8.59749
-7.98351
-7.40882
-6.87134
-6.36907
-5.90008
-5.46253
-5.05465
-4.67474
-4.32121
-3.9925
-3.68717
-3.40381
-3.14111
-2.89783
-2.67278
-2.46485
-2.27299
-2.09622
-1.93361
-1.78429
-1.64746
-1.52237
-1.40831
-1.30464
-1.21077
-1.12614
-1.05026
-0.982686
-0.922999
-0.87084
-0.825889
-0.787869
-0.756544
-0.731718
-0.713233
-0.700975
-0.694865
-193.862
-191.317
-188.395
-185.138
-181.585
-177.777
-173.747
-169.528
-165.153
-160.649
-156.042
-151.357
-146.618
-141.846
-137.058
-132.273
-127.505
-122.77
-118.082
-113.45
-108.887
-104.402
-100.002
-95.6939
-91.4843
-87.3782
-83.3798
-79.4928
-75.7198
-72.0632
-68.5243
-65.1043
-61.8034
-58.6218
-55.559
-52.614
-49.7859
-47.073
-44.4735
-41.9855
-39.6067
-37.3348
-35.167
-33.1008
-31.1333
-29.2616
-27.4828
-25.7937
-24.1914
-22.6727
-21.2347
-19.8741
-18.5879
-17.3732
-16.2269
-15.1461
-14.1279
-13.1694
-12.2679
-11.4208
-10.6252
-9.87882
-9.17905
-8.52354
-7.90997
-7.33614
-6.79989
-6.29918
-5.83203
-5.39656
-4.99095
-4.6135
-4.26257
-3.93658
-3.63405
-3.35358
-3.09384
-2.85357
-2.63158
-2.42674
-2.23801
-2.0644
-1.90498
-1.7589
-1.62534
-1.50357
-1.39289
-1.29267
-1.20232
-1.12131
-1.04916
-0.985434
-0.929747
-0.881755
-0.841164
-0.80772
-0.781214
-0.761479
-0.748391
-0.741868
-206.096
-203.391
-200.285
-196.822
-193.045
-188.997
-184.712
-180.227
-175.576
-170.787
-165.889
-160.909
-155.871
-150.798
-145.708
-140.621
-135.552
-130.519
-125.534
-120.61
-115.759
-110.991
-106.313
-101.733
-97.2579
-92.8927
-88.642
-84.5096
-80.4985
-76.6111
-72.8489
-69.213
-65.7038
-62.3214
-59.0653
-55.9345
-52.9279
-50.0437
-47.2802
-44.6352
-42.1063
-39.691
-37.3864
-35.1898
-33.0982
-31.1084
-29.2172
-27.4216
-25.7181
-24.1036
-22.5748
-21.1283
-19.761
-18.4697
-17.251
-16.102
-15.0195
-14.0006
-13.0422
-12.1415
-11.2958
-10.5023
-9.75834
-9.06146
-8.40917
-7.79913
-7.22904
-6.69672
-6.20009
-5.73713
-5.30594
-4.90467
-4.53158
-4.18501
-3.8634
-3.56523
-3.2891
-3.03366
-2.79766
-2.57989
-2.37925
-2.19469
-2.02521
-1.8699
-1.72792
-1.59846
-1.4808
-1.37425
-1.2782
-1.19207
-1.11537
-1.04763
-0.988424
-0.937404
-0.894251
-0.858696
-0.830517
-0.809537
-0.795623
-0.788688
-218.28
-215.415
-212.125
-208.457
-204.458
-200.17
-195.632
-190.881
-185.955
-180.884
-175.696
-170.422
-165.086
-159.713
-154.322
-148.934
-143.566
-138.234
-132.955
-127.74
-122.603
-117.552
-112.598
-107.747
-103.008
-98.3842
-93.8822
-89.5055
-85.2574
-81.1401
-77.1555
-73.3047
-69.5881
-66.0057
-62.5571
-59.2412
-56.0568
-53.0022
-50.0753
-47.2739
-44.5955
-42.0374
-39.5966
-37.2702
-35.0548
-32.9474
-30.9445
-29.0426
-27.2385
-25.5285
-23.9093
-22.3774
-20.9292
-19.5615
-18.2709
-17.0539
-15.9074
-14.8282
-13.8132
-12.8593
-11.9636
-11.1231
-10.3352
-9.59715
-8.9063
-8.26019
-7.6564
-7.09261
-6.56662
-6.0763
-5.61961
-5.19462
-4.79947
-4.43242
-4.09179
-3.776
-3.48354
-3.213
-2.96305
-2.73241
-2.51991
-2.32443
-2.14493
-1.98045
-1.83007
-1.69296
-1.56834
-1.45549
-1.35376
-1.26255
-1.18131
-1.10956
-1.04686
-0.992822
-0.947117
-0.909461
-0.879616
-0.857395
-0.842659
-0.835314
-230.41
-227.386
-223.913
-220.041
-215.819
-211.293
-206.503
-201.489
-196.289
-190.936
-185.46
-179.892
-174.26
-168.588
-162.898
-157.21
-151.544
-145.916
-140.343
-134.839
-129.416
-124.085
-118.855
-113.735
-108.732
-103.851
-99.0993
-94.4794
-89.9952
-85.6491
-81.4431
-77.3782
-73.4551
-69.6737
-66.0334
-62.5333
-59.1719
-55.9475
-52.858
-49.901
-47.0737
-44.3734
-41.797
-39.3413
-37.0028
-34.7783
-32.6641
-30.6566
-28.7521
-26.9472
-25.238
-23.6209
-22.0923
-20.6486
-19.2862
-18.0016
-16.7914
-15.6522
-14.5808
-13.5739
-12.6284
-11.7413
-10.9096
-10.1305
-9.40123
-8.71921
-8.08187
-7.48675
-6.93153
-6.41396
-5.93189
-5.48328
-5.06618
-4.67873
-4.31917
-3.98583
-3.67712
-3.39155
-3.12771
-2.88425
-2.65994
-2.4536
-2.26413
-2.0905
-1.93177
-1.78704
-1.65549
-1.53637
-1.42899
-1.33271
-1.24696
-1.17122
-1.10503
-1.04799
-0.99975
-0.960001
-0.928498
-0.905042
-0.889487
-0.881734
-242.483
-239.301
-235.645
-231.571
-227.128
-222.365
-217.323
-212.046
-206.574
-200.94
-195.178
-189.318
-183.391
-177.422
-171.433
-165.448
-159.484
-153.562
-147.697
-141.904
-136.197
-130.587
-125.083
-119.694
-114.429
-109.293
-104.292
-99.43
-94.7108
-90.137
-85.7106
-81.4327
-77.304
-73.3244
-69.4934
-65.8099
-62.2724
-58.8791
-55.6277
-52.5157
-49.5403
-46.6985
-43.9871
-41.4027
-38.9417
-36.6006
-34.3756
-32.2629
-30.2587
-28.3592
-26.5604
-24.8586
-23.2499
-21.7305
-20.2967
-18.9448
-17.6712
-16.4724
-15.3448
-14.2851
-13.2901
-12.3565
-11.4812
-10.6613
-9.89384
-9.17608
-8.50534
-7.87905
-7.29474
-6.75004
-6.24272
-5.7706
-5.33164
-4.92389
-4.54549
-4.19468
-3.8698
-3.56927
-3.29159
-3.03538
-2.79932
-2.58217
-2.38277
-2.20004
-2.03299
-1.88068
-1.74224
-1.61688
-1.50387
-1.40254
-1.3123
-1.23259
-1.16294
-1.10291
-1.05214
-1.0103
-0.97715
-0.952466
-0.936096
-0.927937
-254.496
-251.156
-247.32
-243.044
-238.381
-233.381
-228.09
-222.552
-216.808
-210.896
-204.847
-198.698
-192.477
-186.212
-179.927
-173.644
-167.386
-161.17
-155.014
-148.935
-142.945
-137.056
-131.28
-125.624
-120.098
-114.708
-109.459
-104.356
-99.403
-94.6026
-89.9569
-85.4671
-81.1339
-76.9571
-72.9363
-69.0703
-65.3576
-61.7961
-58.3836
-55.1174
-51.9947
-49.0121
-46.1663
-43.4539
-40.871
-38.4139
-36.0786
-33.8613
-31.7578
-29.7642
-27.8763
-26.0902
-24.4018
-22.8071
-21.3023
-19.8834
-18.5467
-17.2885
-16.105
-14.9929
-13.9485
-12.9686
-12.05
-11.1895
-10.384
-9.63069
-8.92672
-8.2694
-7.65614
-7.08446
-6.552
-6.05649
-5.59579
-5.16784
-4.77069
-4.4025
-4.06152
-3.7461
-3.45467
-3.18577
-2.93801
-2.7101
-2.50082
-2.30904
-2.13371
-1.97385
-1.82855
-1.69698
-1.57837
-1.47203
-1.37731
-1.29366
-1.22055
-1.15755
-1.10426
-1.06036
-1.02556
-0.999655
-0.982474
-0.97391
-266.447
-262.95
-258.933
-254.457
-249.574
-244.34
-238.801
-233.002
-226.989
-220.799
-214.467
-208.028
-201.515
-194.956
-188.376
-181.798
-175.246
-168.738
-162.293
-155.928
-149.657
-143.492
-137.444
-131.523
-125.738
-120.094
-114.599
-109.256
-104.071
-99.0449
-94.181
-89.4804
-84.9437
-80.5708
-76.3612
-72.3136
-68.4266
-64.6979
-61.1251
-57.7056
-54.4362
-51.3135
-48.3342
-45.4944
-42.7902
-40.2177
-37.7728
-35.4513
-33.2491
-31.1618
-29.1853
-27.3153
-25.5476
-23.8781
-22.3026
-20.8171
-19.4176
-18.1003
-16.8613
-15.6969
-14.6035
-13.5776
-12.6158
-11.7149
-10.8716
-10.0829
-9.3459
-8.65771
-8.01565
-7.41713
-6.85966
-6.34089
-5.85855
-5.41051
-4.99471
-4.60923
-4.25224
-3.92201
-3.61689
-3.33536
-3.07597
-2.83736
-2.61825
-2.41747
-2.23391
-2.06654
-1.91442
-1.77667
-1.65249
-1.54115
-1.44199
-1.3544
-1.27787
-1.21191
-1.15612
-1.11015
-1.07372
-1.0466
-1.02861
-1.01964
-278.332
-274.679
-270.483
-265.806
-260.706
-255.239
-249.452
-243.395
-237.114
-230.647
-224.033
-217.307
-210.503
-203.652
-196.778
-189.907
-183.062
-176.264
-169.533
-162.884
-156.332
-149.892
-143.575
-137.39
-131.346
-125.451
-119.71
-114.13
-108.713
-103.463
-98.3819
-93.4716
-88.7326
-84.1646
-79.7672
-75.5392
-71.4787
-67.5837
-63.8516
-60.2795
-56.8643
-53.6024
-50.4901
-47.5236
-44.6988
-42.0116
-39.4576
-37.0326
-34.7321
-32.5518
-30.4871
-28.5337
-26.6871
-24.9431
-23.2974
-21.7456
-20.2837
-18.9077
-17.6134
-16.397
-15.2549
-14.1832
-13.1786
-12.2374
-11.3565
-10.5327
-9.76277
-9.04388
-8.37319
-7.74797
-7.16564
-6.62372
-6.11987
-5.65184
-5.2175
-4.81483
-4.44191
-4.09695
-3.77822
-3.48414
-3.21317
-2.96392
-2.73504
-2.5253
-2.33355
-2.15872
-1.99981
-1.85592
-1.7262
-1.6099
-1.50631
-1.41482
-1.33487
-1.26597
-1.20769
-1.15967
-1.12162
-1.09328
-1.07449
-1.06513
-290.148
-286.34
-281.966
-277.091
-271.774
-266.074
-260.042
-253.728
-247.18
-240.439
-233.544
-226.532
-219.44
-212.297
-205.132
-197.969
-190.834
-183.747
-176.73
-169.798
-162.969
-156.256
-149.67
-143.223
-136.922
-130.777
-124.792
-118.975
-113.328
-107.855
-102.559
-97.4398
-92.4995
-87.7377
-83.1536
-78.746
-74.5132
-70.4528
-66.5623
-62.8386
-59.2783
-55.8779
-52.6336
-49.5411
-46.5964
-43.7951
-41.1327
-38.6048
-36.2066
-33.9337
-31.7813
-29.745
-27.8201
-26.0021
-24.2864
-22.6688
-21.1449
-19.7103
-18.3611
-17.0932
-15.9025
-14.7854
-13.738
-12.757
-11.8387
-10.9798
-10.1772
-9.42783
-8.72865
-8.07689
-7.46984
-6.90492
-6.37968
-5.89178
-5.439
-5.01923
-4.63049
-4.27088
-3.93862
-3.63205
-3.34958
-3.08974
-2.85115
-2.63251
-2.43262
-2.25036
-2.08471
-1.93471
-1.79949
-1.67824
-1.57026
-1.47488
-1.39154
-1.31971
-1.25896
-1.2089
-1.16923
-1.1397
-1.12011
-1.11035
-301.892
-297.93
-293.379
-288.307
-282.775
-276.844
-270.568
-263.998
-257.186
-250.171
-242.997
-235.702
-228.322
-220.89
-213.435
-205.983
-198.559
-191.185
-183.883
-176.671
-169.566
-162.581
-155.728
-149.02
-142.464
-136.07
-129.844
-123.791
-117.915
-112.221
-106.71
-101.384
-96.2437
-91.2891
-86.5195
-81.9335
-77.5293
-73.3046
-69.2566
-65.3821
-61.6778
-58.1397
-54.764
-51.5464
-48.4825
-45.5678
-42.7977
-40.1674
-37.6722
-35.3072
-33.0678
-30.949
-28.9462
-27.0546
-25.2695
-23.5864
-22.0008
-20.5082
-19.1043
-17.785
-16.5462
-15.3838
-14.2941
-13.2733
-12.3179
-11.4243
-10.5892
-9.80944
-9.08197
-8.40383
-7.7722
-7.18442
-6.63792
-6.13027
-5.65916
-5.2224
-4.81792
-4.44375
-4.09805
-3.77907
-3.48517
-3.21481
-2.96656
-2.73907
-2.53109
-2.34146
-2.1691
-2.01302
-1.87233
-1.74617
-1.63382
-1.53458
-1.44787
-1.37313
-1.30992
-1.25784
-1.21656
-1.18583
-1.16545
-1.15529
-313.562
-309.447
-304.72
-299.452
-293.706
-287.546
-281.027
-274.204
-267.127
-259.842
-252.39
-244.813
-237.148
-229.429
-221.686
-213.945
-206.234
-198.576
-190.992
-183.501
-176.121
-168.865
-161.748
-154.78
-147.972
-141.33
-134.863
-128.576
-122.473
-116.559
-110.835
-105.303
-99.9641
-94.818
-89.864
-85.1007
-80.5263
-76.1382
-71.9338
-67.9095
-64.062
-60.3872
-56.881
-53.539
-50.3567
-47.3293
-44.4521
-41.7201
-39.1284
-36.6721
-34.346
-32.1454
-30.0651
-28.1004
-26.2463
-24.4981
-22.8512
-21.3009
-19.8428
-18.4725
-17.1858
-15.9785
-14.8467
-13.7864
-12.794
-11.8659
-10.9985
-10.1886
-9.43305
-8.72869
-8.07265
-7.46214
-6.89451
-6.36724
-5.87792
-5.42428
-5.00416
-4.61553
-4.25647
-3.92515
-3.61989
-3.33909
-3.08124
-2.84495
-2.62893
-2.43197
-2.25295
-2.09084
-1.9447
-1.81368
-1.69698
-1.59391
-1.50384
-1.42621
-1.36056
-1.30646
-1.26359
-1.23167
-1.2105
-1.19995
-325.155
-320.887
-315.986
-310.522
-304.565
-298.177
-291.417
-284.341
-277.003
-269.449
-261.721
-253.864
-245.916
-237.911
-229.882
-221.855
-213.859
-205.917
-198.053
-190.285
-182.632
-175.109
-167.728
-160.503
-153.442
-146.555
-139.849
-133.329
-127.001
-120.868
-114.932
-109.196
-103.66
-98.3234
-93.1863
-88.2469
-83.5034
-78.9531
-74.5932
-70.4202
-66.4304
-62.6198
-58.9839
-55.5184
-52.2184
-49.0791
-46.0955
-43.2625
-40.575
-38.0279
-35.6158
-33.3338
-31.1766
-29.1393
-27.2166
-25.4039
-23.696
-22.0884
-20.5764
-19.1555
-17.8212
-16.5693
-15.3956
-14.2961
-13.267
-12.3046
-11.4051
-10.5653
-9.78179
-9.0514
-8.3711
-7.73802
-7.14941
-6.60264
-6.09523
-5.62482
-5.18917
-4.78617
-4.41383
-4.07027
-3.75372
-3.46254
-3.19515
-2.95013
-2.72613
-2.52188
-2.33624
-2.16814
-2.0166
-1.88073
-1.75972
-1.65284
-1.55944
-1.47894
-1.41086
-1.35477
-1.31031
-1.27721
-1.25526
-1.24432
-336.667
-332.249
-327.174
-321.517
-315.348
-308.734
-301.735
-294.408
-286.811
-278.989
-270.988
-262.852
-254.623
-246.335
-238.021
-229.71
-221.43
-213.208
-205.065
-197.022
-189.098
-181.308
-173.667
-166.186
-158.875
-151.744
-144.8
-138.05
-131.498
-125.147
-119.002
-113.062
-107.33
-101.805
-96.4856
-91.3714
-86.4599
-81.7485
-77.2342
-72.9135
-68.7824
-64.8369
-61.0723
-57.4841
-54.0672
-50.8168
-47.7276
-44.7943
-42.0116
-39.3743
-36.8768
-34.514
-32.2805
-30.171
-28.1803
-26.3033
-24.535
-22.8705
-21.305
-19.8337
-18.4522
-17.1559
-15.9407
-14.8023
-13.7368
-12.7402
-11.809
-10.9394
-10.1281
-9.37187
-8.66749
-8.012
-7.40254
-6.83642
-6.31104
-5.82397
-5.3729
-4.95564
-4.57011
-4.21439
-3.88663
-3.58513
-3.30828
-3.05459
-2.82265
-2.61117
-2.41896
-2.24491
-2.088
-1.94732
-1.82202
-1.71136
-1.61465
-1.53131
-1.46081
-1.40273
-1.3567
-1.32243
-1.2997
-1.28837
-348.097
-343.528
-338.281
-332.432
-326.054
-319.215
-311.979
-304.403
-296.548
-288.46
-280.187
-271.776
-263.267
-254.698
-246.101
-237.508
-228.948
-220.446
-212.027
-203.711
-195.518
-187.464
-179.563
-171.827
-164.269
-156.896
-149.716
-142.737
-135.962
-129.396
-123.042
-116.901
-110.974
-105.261
-99.7611
-94.4733
-89.395
-84.5237
-79.8562
-75.3888
-71.1175
-67.038
-63.1456
-59.4355
-55.9027
-52.5419
-49.3478
-46.315
-43.4378
-40.711
-38.1288
-35.6857
-33.3764
-31.1952
-29.137
-27.1963
-25.3679
-23.6469
-22.0282
-20.507
-19.0786
-17.7383
-16.4818
-15.3048
-14.2031
-13.1727
-12.2099
-11.3108
-10.472
-9.69003
-8.96174
-8.28399
-7.65385
-7.0685
-6.52529
-6.02169
-5.5553
-5.12387
-4.72526
-4.35746
-4.01858
-3.70684
-3.4206
-3.15829
-2.91848
-2.69982
-2.50108
-2.32112
-2.15889
-2.01343
-1.88388
-1.76946
-1.66947
-1.58329
-1.51041
-1.45036
-1.40276
-1.36733
-1.34383
-1.33211
-359.44
-354.722
-349.304
-343.265
-336.679
-329.617
-322.145
-314.323
-306.211
-297.86
-289.318
-280.632
-271.846
-262.997
-254.121
-245.248
-236.408
-227.63
-218.936
-210.349
-201.889
-193.572
-185.414
-177.427
-169.622
-162.008
-154.595
-147.388
-140.392
-133.613
-127.051
-120.71
-114.59
-108.691
-103.012
-97.5519
-92.3082
-87.2781
-82.4585
-77.8455
-73.435
-69.2225
-65.2033
-61.3724
-57.7244
-54.2541
-50.9559
-47.8242
-44.8534
-42.0376
-39.3713
-36.8486
-34.464
-32.2118
-30.0864
-28.0825
-26.1946
-24.4175
-22.7461
-21.1753
-19.7003
-18.3164
-17.0189
-15.8035
-14.6659
-13.602
-12.6077
-11.6794
-10.8132
-10.0058
-9.25378
-8.55395
-7.90327
-7.29885
-6.73794
-6.21792
-5.73634
-5.29085
-4.87925
-4.49946
-4.14953
-3.82764
-3.53206
-3.26121
-3.01358
-2.7878
-2.58259
-2.39676
-2.22924
-2.07905
-1.94527
-1.82712
-1.72387
-1.63489
-1.55963
-1.49762
-1.44848
-1.41189
-1.38762
-1.37553
-370.695
-365.829
-360.242
-354.013
-347.221
-339.938
-332.232
-324.165
-315.799
-307.187
-298.377
-289.419
-280.358
-271.232
-262.078
-252.927
-243.811
-234.757
-225.791
-216.936
-208.211
-199.634
-191.22
-182.982
-174.933
-167.081
-159.436
-152.003
-144.788
-137.796
-131.029
-124.49
-118.178
-112.094
-106.238
-100.606
-95.1985
-90.011
-85.0404
-80.283
-75.7344
-71.39
-67.245
-63.2941
-59.5319
-55.9529
-52.5514
-49.3217
-46.2578
-43.3539
-40.604
-38.0024
-35.5431
-33.2204
-31.0285
-28.9618
-27.0148
-25.1821
-23.4583
-21.8383
-20.3172
-18.8899
-17.5518
-16.2984
-15.1252
-14.0279
-13.0025
-12.0451
-11.1518
-10.3191
-9.54353
-8.82179
-8.15074
-7.52739
-6.94892
-6.41262
-5.91596
-5.45652
-5.03203
-4.64035
-4.27946
-3.94749
-3.64266
-3.36333
-3.10794
-2.87509
-2.66345
-2.47181
-2.29905
-2.14415
-2.00618
-1.88433
-1.77785
-1.68608
-1.60847
-1.54452
-1.49383
-1.4561
-1.43107
-1.4186
-381.858
-376.846
-371.09
-364.674
-357.677
-350.176
-342.237
-333.927
-325.309
-316.437
-307.362
-298.135
-288.801
-279.4
-269.97
-260.544
-251.153
-241.827
-232.591
-223.469
-214.481
-205.645
-196.978
-188.493
-180.201
-172.113
-164.237
-156.58
-149.149
-141.946
-134.975
-128.239
-121.737
-115.47
-109.437
-103.636
-98.0653
-92.7216
-87.6013
-82.7006
-78.0151
-73.5399
-69.27
-65.2001
-61.3247
-57.6379
-54.134
-50.807
-47.6508
-44.6595
-41.8268
-39.1468
-36.6135
-34.2208
-31.9629
-29.834
-27.8284
-25.9404
-24.1647
-22.496
-20.929
-19.4588
-18.0804
-16.7892
-15.5807
-14.4503
-13.3941
-12.4078
-11.4876
-10.6299
-9.83093
-9.08745
-8.39619
-7.75408
-7.15818
-6.60573
-6.09411
-5.62084
-5.18356
-4.78009
-4.40834
-4.06637
-3.75236
-3.46461
-3.20154
-2.96168
-2.74367
-2.54625
-2.36828
-2.20872
-2.0666
-1.94108
-1.83139
-1.73686
-1.65691
-1.59103
-1.53882
-1.49995
-1.47417
-1.46132
-392.927
-387.77
-381.847
-375.245
-368.045
-360.326
-352.158
-343.607
-334.739
-325.61
-316.272
-306.777
-297.172
-287.5
-277.796
-268.096
-258.433
-248.837
-239.333
-229.946
-220.698
-211.607
-202.688
-193.956
-185.424
-177.102
-168.998
-161.119