/*--------------------------------*- C++ -*----------------------------------*\
| =========                 |                                                 |
| \\      /  F ield         | OpenFOAM: The Open Source CFD Toolbox           |
|  \\    /   O peration     | Version:  2406                                  |
|   \\  /    A nd           | Website:  www.openfoam.com                      |
|    \\/     M anipulation  |                                                 |
\*---------------------------------------------------------------------------*/
FoamFile
{
    version     2.0;
    format      ascii;
    arch        "LSB;label=32;scalar=64";
    class       volScalarField;
    location    "175";
    object      gradTx;
}
// * * * * * * * * * * * * * * * * * * * * * * * * * * * * * * * * * * * * * //

dimensions      [0 -1 0 1 0 0 0];

internalField   nonuniform List<scalar> 
20000
(
5.53664
5.49622
5.44336
5.37914
5.30458
5.22048
5.12772
5.02791
4.92139
4.80846
4.69043
4.56824
4.44227
4.31299
4.18103
4.04706
3.91164
3.77522
3.63822
3.50101
3.36397
3.22747
3.09183
2.95738
2.82438
2.69307
2.56369
2.43643
2.31146
2.18895
2.06903
1.95183
1.83745
1.72597
1.61749
1.51205
1.40971
1.3105
1.21445
1.12157
1.03186
0.945313
0.861925
0.781669
0.704517
0.630434
0.559378
0.491303
0.426158
0.363887
0.30443
0.247725
0.193705
0.142302
0.0934456
0.0470631
0.00308056
-0.0385773
-0.0779864
-0.115223
-0.150365
-0.183489
-0.214672
-0.24399
-0.27152
-0.297336
-0.321514
-0.344125
-0.365244
-0.38494
-0.403282
-0.420339
-0.436177
-0.45086
-0.46445
-0.477008
-0.488594
-0.499263
-0.50907
-0.518067
-0.526305
-0.533832
-0.540693
-0.546931
-0.552589
-0.557704
-0.562313
-0.56645
-0.570146
-0.573432
-0.576333
-0.578875
-0.581078
-0.582964
-0.584548
-0.585846
-0.586869
-0.587628
-0.58813
-0.58838
16.6086
16.4873
16.3288
16.1361
15.9121
15.6601
15.3824
15.0825
14.7626
14.4241
14.0704
13.7037
13.3257
12.9378
12.542
12.1402
11.734
11.3248
10.9138
10.5022
10.0911
9.6816
9.27474
8.87141
8.47243
8.07856
7.69045
7.30869
6.93382
6.56631
6.20659
5.855
5.51188
5.1775
4.85207
4.53579
4.22879
3.93119
3.64305
3.36442
3.09531
2.83571
2.58556
2.34481
2.11338
1.89115
1.678
1.47379
1.27837
1.09157
0.913215
0.743112
0.581066
0.426871
0.280314
0.141178
0.00924083
-0.115722
-0.23394
-0.345642
-0.451059
-0.550423
-0.643963
-0.731911
-0.814493
-0.891935
-0.964462
-1.03229
-1.09564
-1.15472
-1.20975
-1.26091
-1.30842
-1.35247
-1.39324
-1.43091
-1.46566
-1.49767
-1.52708
-1.55407
-1.57879
-1.60136
-1.62195
-1.64066
-1.65763
-1.67297
-1.6868
-1.69921
-1.7103
-1.72015
-1.72886
-1.73648
-1.74309
-1.74875
-1.7535
-1.75739
-1.76046
-1.76274
-1.76425
-1.76499
27.6766
27.4745
27.21
26.8889
26.5157
26.0959
25.6334
25.1333
24.5999
24.0363
23.447
22.8359
22.2057
21.5593
20.8999
20.2304
19.5535
18.8716
18.1866
17.5007
16.8157
16.1333
15.4553
14.7832
14.1184
13.4621
12.8153
12.1792
11.5545
10.9421
10.3426
9.75673
9.18496
8.62774
8.08545
7.5584
7.04682
6.5509
6.07075
5.60645
5.158
4.7254
4.30856
3.90738
3.52172
3.15139
2.7962
2.45591
2.13026
1.81898
1.52177
1.23832
0.968284
0.711334
0.467113
0.235257
0.0153988
-0.192839
-0.389836
-0.575975
-0.751642
-0.917221
-1.0731
-1.21965
-1.35726
-1.48631
-1.60717
-1.7202
-1.82577
-1.92422
-2.01591
-2.10118
-2.18035
-2.25374
-2.32168
-2.38445
-2.44237
-2.4957
-2.54472
-2.5897
-2.63088
-2.6685
-2.7028
-2.73398
-2.76226
-2.78783
-2.81087
-2.83155
-2.85003
-2.86645
-2.88095
-2.89366
-2.90467
-2.9141
-2.92202
-2.9285
-2.93362
-2.93742
-2.93992
-2.94117
38.7377
38.4551
38.0848
37.6352
37.1129
36.5252
35.8779
35.178
34.4313
33.6425
32.8178
31.9623
31.0802
30.1755
29.2526
28.3156
27.3682
26.4137
25.455
24.4949
23.5361
22.5811
21.6321
20.6914
19.7609
18.8422
17.937
17.0466
16.1723
15.3151
14.4761
13.6561
12.8558
12.0759
11.3168
10.5791
9.86312
9.16899
8.49695
7.84709
7.21942
6.61393
6.0305
5.46898
4.92919
4.41086
3.91371
3.43742
2.98163
2.54595
2.12996
1.73322
1.35526
0.995622
0.653796
0.329279
0.0215529
-0.269908
-0.545636
-0.806167
-1.05204
-1.28379
-1.50196
-1.70709
-1.8997
-2.08033
-2.24948
-2.40769
-2.55545
-2.69325
-2.82158
-2.94092
-3.05173
-3.15446
-3.24955
-3.33741
-3.41847
-3.49312
-3.56173
-3.62468
-3.68232
-3.73498
-3.78298
-3.82663
-3.86621
-3.902
-3.93425
-3.96319
-3.98905
-4.01204
-4.03234
-4.05012
-4.06554
-4.07873
-4.08982
-4.0989
-4.10606
-4.11137
-4.11488
-4.11663
49.7889
49.4259
48.9502
48.3722
47.7009
46.9454
46.1135
45.2139
44.2542
43.2405
42.1805
41.0809
39.947
38.7843
37.5981
36.3938
35.1762
33.9493
32.7171
31.4831
30.2507
29.0232
27.8036
26.5945
25.3985
24.2178
23.0543
21.9099
20.7861
19.6844
18.606
17.552
16.5234
15.521
14.5454
13.5973
12.677
11.7848
10.9211
10.0858
9.27906
8.50082
7.75094
7.02923
6.33544
5.66924
5.03026
4.41809
3.83227
3.27229
2.73762
2.22769
1.74191
1.27966
0.840318
0.423219
0.0277017
-0.346911
-0.701301
-1.03616
-1.35218
-1.65005
-1.93046
-2.19411
-2.44167
-2.67383
-2.89124
-3.09458
-3.28449
-3.46161
-3.62655
-3.77994
-3.92236
-4.0544
-4.17661
-4.28955
-4.39373
-4.48967
-4.57786
-4.65877
-4.73285
-4.80054
-4.86223
-4.91834
-4.96921
-5.01521
-5.05665
-5.09386
-5.1271
-5.15664
-5.18273
-5.20559
-5.2254
-5.24236
-5.2566
-5.26827
-5.27748
-5.2843
-5.28882
-5.29106
60.8279
60.3844
59.8035
59.0973
58.2772
57.3541
56.3378
55.2388
54.0662
52.8278
51.5328
50.1893
48.804
47.3834
45.9343
44.4631
42.9755
41.4766
39.9711
38.4635
36.9579
35.4582
33.9681
32.491
31.0299
29.5873
28.1659
26.7677
25.3948
24.0488
22.7313
21.4436
20.187
18.9623
17.7704
16.6121
15.4877
14.3978
13.3425
12.322
11.3364
10.3856
9.46948
8.58775
7.74013
6.92622
6.14557
5.39767
4.68196
3.99782
3.3446
2.72161
2.12812
1.56339
1.02663
0.517055
0.0338434
-0.423828
-0.856794
-1.2659
-1.65198
-2.01589
-2.35848
-2.68058
-2.98304
-3.26667
-3.53229
-3.78071
-4.01273
-4.22911
-4.43063
-4.61803
-4.79203
-4.95334
-5.10265
-5.24062
-5.36791
-5.48512
-5.59286
-5.69171
-5.78222
-5.86491
-5.94029
-6.00883
-6.07098
-6.12718
-6.17781
-6.22326
-6.26387
-6.29997
-6.33185
-6.35977
-6.38398
-6.40469
-6.4221
-6.43635
-6.4476
-6.45594
-6.46145
-6.4642
71.8519
71.328
70.6419
69.8078
68.839
67.7486
66.5482
65.25
63.8649
62.402
60.8723
59.2853
57.6489
55.9709
54.2592
52.5214
50.7641
48.9936
47.2153
45.4344
43.6559
41.8844
40.1243
38.3795
36.6535
34.9496
33.2705
31.619
29.9972
28.4073
26.851
25.33
23.8456
22.3989
20.9911
19.6228
18.2946
17.0071
15.7606
14.5552
13.391
12.2679
11.1857
10.1442
9.14291
8.18149
7.25936
6.37591
5.53049
4.72236
3.95076
3.21486
2.51381
1.84673
1.21269
0.610763
0.0399768
-0.50064
-1.01207
-1.49532
-1.95138
-2.38124
-2.78592
-3.1664
-3.52367
-3.8587
-4.17246
-4.46591
-4.73997
-4.99558
-5.23362
-5.45498
-5.66051
-5.85106
-6.02743
-6.19041
-6.34076
-6.47921
-6.60648
-6.72325
-6.83016
-6.92784
-7.01687
-7.09783
-7.17125
-7.23763
-7.29745
-7.35113
-7.39911
-7.44174
-7.4794
-7.51238
-7.54098
-7.56544
-7.586
-7.60284
-7.61613
-7.62598
-7.63249
-7.63573
82.8582
82.2541
81.4629
80.501
79.3839
78.1265
76.7422
75.2451
73.6478
71.9609
70.1969
68.3667
66.4797
64.5446
62.5708
60.5667
58.5403
56.4985
54.4478
52.3941
50.3431
48.3003
46.2706
44.2586
42.2682
40.3032
38.367
36.4624
34.5922
32.7587
30.9641
29.21
27.4983
25.83
24.2065
22.6286
21.097
19.6123
18.1748
16.7848
15.4422
14.1471
12.8991
11.698
10.5434
9.43474
8.37136
7.35259
6.37766
5.44574
4.55594
3.70731
2.89888
2.12962
1.39846
0.70432
0.0461001
-0.577329
-1.16711
-1.72438
-2.25029
-2.74601
-3.21267
-3.65143
-4.06343
-4.44978
-4.81161
-5.15
-5.46605
-5.76081
-6.03531
-6.29058
-6.5276
-6.74733
-6.95072
-7.13866
-7.31204
-7.47171
-7.61848
-7.75313
-7.87641
-7.98905
-8.09173
-8.18509
-8.26976
-8.3463
-8.41528
-8.47719
-8.53251
-8.58168
-8.6251
-8.66314
-8.69611
-8.72433
-8.74804
-8.76746
-8.78278
-8.79414
-8.80165
-8.80538
93.8442
93.1599
92.2639
91.1744
89.9092
88.485
86.9172
85.2216
83.4125
81.502
79.5041
77.4313
75.294
73.1024
70.8669
68.5971
66.302
63.9895
61.6668
59.3408
57.018
54.7043
52.4055
50.1267
47.8724
45.6469
43.454
41.2969
39.1787
37.1021
35.0695
33.0829
31.1442
29.2548
27.416
25.6289
23.8942
22.2126
20.5846
19.0102
17.4896
16.0228
14.6094
13.2491
11.9414
10.6857
9.48129
8.32744
7.22325
6.16777
5.16
4.19886
3.28324
2.41197
1.58387
0.797704
0.052212
-0.653876
-1.32185
-1.95301
-2.54865
-3.11009
-3.63863
-4.13557
-4.60218
-5.03976
-5.44956
-5.83283
-6.19078
-6.52462
-6.83552
-7.12463
-7.39307
-7.64194
-7.87229
-8.08516
-8.28153
-8.46236
-8.62859
-8.78109
-8.92072
-9.0483
-9.16459
-9.27033
-9.36622
-9.45292
-9.53104
-9.60116
-9.66381
-9.7195
-9.76868
-9.81176
-9.84911
-9.88106
-9.90791
-9.92991
-9.94726
-9.96012
-9.96863
-9.97286
104.807
104.043
103.042
101.825
100.412
98.8217
97.0708
95.1771
93.1566
91.0229
88.7917
86.4767
84.0897
81.6422
79.1455
76.6106
74.0474
71.4647
68.8706
66.2729
63.6787
61.0948
58.5275
55.9824
53.4648
50.9794
48.5302
46.1211
43.7555
41.4364
39.1663
36.9476
34.7824
32.6723
30.6187
28.6228
26.6855
24.8075
22.9892
21.231
19.5328
17.8945
16.316
14.7968
13.3363
11.934
10.5889
9.30024
8.06706
6.88828
5.76278
4.68936
3.66678
2.69374
1.7689
0.89089
0.0583108
-0.730262
-1.47627
-2.18116
-2.84638
-3.47341
-4.06369
-4.61868
-5.13981
-5.6285
-6.08618
-6.51421
-6.91398
-7.28681
-7.63403
-7.95692
-8.25672
-8.53466
-8.79192
-9.02966
-9.24897
-9.45093
-9.63657
-9.80689
-9.96283
-10.1053
-10.2352
-10.3533
-10.4604
-10.5572
-10.6444
-10.7228
-10.7927
-10.8549
-10.9098
-10.958
-10.9997
-11.0354
-11.0653
-11.0899
-11.1093
-11.1237
-11.1332
-11.1379
115.744
114.9
113.795
112.451
110.891
109.134
107.2
105.109
102.878
100.521
98.0574
95.5008
92.8647
90.1618
87.4046
84.6052
81.7745
78.9222
76.0575
73.1887
70.3237
67.4702
64.635
61.8244
59.0441
56.2992
53.5945
50.934
48.3216
45.7604
43.2534
40.8032
38.412
36.0817
33.8138
31.6097
29.4702
27.3962
25.3882
23.4465
21.5711
19.7619
18.0186
16.3409
14.728
13.1793
11.6939
10.2708
8.90888
7.6071
6.36414
5.17871
4.04942
2.97484
1.95349
0.983856
0.0643951
-0.806467
-1.63032
-2.40877
-3.14341
-3.83587
-4.48775
-5.10065
-5.67616
-6.21586
-6.72129
-7.19399
-7.63547
-8.04722
-8.43067
-8.78725
-9.11834
-9.42528
-9.70939
-9.97193
-10.2141
-10.4372
-10.6422
-10.8303
-11.0025
-11.1598
-11.3033
-11.4337
-11.5519
-11.6589
-11.7552
-11.8417
-11.919
-11.9877
-12.0483
-12.1015
-12.1475
-12.1869
-12.22
-12.2472
-12.2686
-12.2844
-12.2949
-12.3002
126.652
125.729
124.519
123.049
121.342
119.419
117.304
115.015
112.573
109.995
107.299
104.501
101.617
98.6591
95.6421
92.5789
89.4814
86.3603
83.2255
80.0863
76.9514
73.829
70.7266
67.6511
64.6087
61.6052
58.6456
55.7344
52.8757
50.0731
47.3299
44.6488
42.0322
39.4823
37.0006
34.5887
32.2477
29.9782
27.781
25.6562
23.604
21.6244
19.7168
17.8809
16.1161
14.4214
12.796
11.2387
9.74851
8.32403
6.96393
5.66678
4.43106
3.2552
2.1376
1.07658
0.0704634
-0.882474
-1.78397
-2.63578
-3.43967
-4.19739
-4.9107
-5.58137
-6.21112
-6.80167
-7.35474
-7.87199
-8.35508
-8.80563
-9.22522
-9.61541
-9.9777
-10.3136
-10.6245
-10.9117
-11.1768
-11.4208
-11.6452
-11.851
-12.0394
-12.2116
-12.3685
-12.5112
-12.6407
-12.7577
-12.8631
-12.9577
-13.0423
-13.1175
-13.1838
-13.242
-13.2924
-13.3355
-13.3717
-13.4014
-13.4248
-13.4422
-13.4537
-13.4594
137.529
136.527
135.213
133.617
131.763
129.675
127.378
124.893
122.241
119.442
116.514
113.476
110.344
107.132
103.856
100.53
97.1662
93.7771
90.3731
86.9643
83.5601
80.1695
76.8007
73.4611
70.1575
66.896
63.6822
60.5209
57.4167
54.3735
51.3946
48.4833
45.642
42.8731
40.1783
37.5593
35.0171
32.5528
30.1668
27.8596
25.6312
23.4815
21.4101
19.4166
17.5001
15.6599
13.8949
12.2039
10.5857
9.03891
7.56201
6.15345
4.8116
3.53476
2.32117
1.16904
0.0765142
-0.958263
-1.93718
-2.86215
-3.73507
-4.55787
-5.33244
-6.06071
-6.74454
-7.38581
-7.98638
-8.54805
-9.07263
-9.56187
-10.0175
-10.4412
-10.8346
-11.1993
-11.5369
-11.8489
-12.1366
-12.4017
-12.6453
-12.8688
-13.0734
-13.2603
-13.4308
-13.5857
-13.7263
-13.8533
-13.9678
-14.0706
-14.1624
-14.244
-14.3161
-14.3792
-14.4339
-14.4808
-14.5201
-14.5524
-14.5778
-14.5966
-14.6091
-14.6153
148.373
147.291
145.874
144.152
142.151
139.899
137.421
134.74
131.879
128.859
125.7
122.423
119.044
115.579
112.044
108.456
104.827
101.171
97.4983
93.8207
90.1482
86.4903
82.8559
79.2529
75.6889
72.1702
68.703
65.2926
61.9436
58.6604
55.4467
52.3058
49.2406
46.2533
43.3461
40.5206
37.778
35.1193
32.5453
30.0561
27.652
25.3328
23.0982
20.9474
18.8799
16.8946
14.9904
13.1661
11.4203
9.75156
8.15822
6.6386
5.19096
3.81345
2.50418
1.26121
0.082546
-1.03382
-2.08992
-3.08781
-4.02956
-4.91722
-5.75287
-6.53855
-7.2763
-7.96813
-8.61605
-9.22201
-9.78794
-10.3158
-10.8073
-11.2644
-11.6888
-12.0823
-12.4465
-12.7831
-13.0935
-13.3794
-13.6422
-13.8834
-14.1041
-14.3058
-14.4897
-14.6569
-14.8085
-14.9456
-15.0691
-15.1799
-15.279
-15.367
-15.4448
-15.5129
-15.5719
-15.6225
-15.6649
-15.6997
-15.7271
-15.7475
-15.7609
-15.7676
159.179
158.018
156.499
154.651
152.505
150.089
147.43
144.553
141.485
138.244
134.856
131.339
127.714
123.997
120.205
116.355
112.462
108.539
104.599
100.654
96.7141
92.7897
88.8906
85.0253
81.2016
77.4267
73.707
70.0481
66.4552
62.9329
59.4851
56.1155
52.8269
49.6221
46.5032
43.4718
40.5295
37.6772
34.9157
32.2452
29.666
27.1779
24.7805
22.4731
20.255
18.1251
16.0822
14.1251
12.2521
10.4618
8.75241
7.12212
5.56904
4.0912
2.68657
1.35306
0.0885572
-1.10911
-2.24213
-3.31271
-4.32305
-5.27536
-6.17187
-7.01478
-7.80626
-8.54848
-9.24359
-9.89368
-10.5008
-11.0671
-11.5944
-12.0848
-12.5402
-12.9623
-13.353
-13.7141
-14.0472
-14.3539
-14.6359
-14.8945
-15.1314
-15.3478
-15.545
-15.7244
-15.887
-16.0341
-16.1666
-16.2855
-16.3918
-16.4863
-16.5697
-16.6428
-16.7061
-16.7603
-16.8059
-16.8432
-16.8726
-16.8944
-16.9089
-16.916
169.946
168.707
167.085
165.112
162.82
160.241
157.402
154.331
151.055
147.595
143.978
140.224
136.353
132.384
128.336
124.226
120.069
115.881
111.675
107.463
103.256
99.0663
94.9034
90.7766
86.6943
82.6641
78.6927
74.7863
70.9504
67.1899
63.5089
59.9113
56.4003
52.9787
49.6488
46.4124
43.271
40.2258
37.2775
34.4264
31.6727
29.0163
26.4567
23.9933
21.6251
19.3511
17.1701
15.0805
13.0809
11.1695
9.34445
7.60388
5.94574
4.36794
2.8683
1.44459
0.0945465
-1.18414
-2.3938
-3.53679
-4.61547
-5.6322
-6.58936
-7.48928
-8.33429
-9.12672
-9.86885
-10.5629
-11.2111
-11.8157
-12.3787
-12.9023
-13.3884
-13.8391
-14.2563
-14.6418
-14.9974
-15.3248
-15.6259
-15.902
-16.1549
-16.3859
-16.5965
-16.788
-16.9617
-17.1187
-17.2602
-17.3871
-17.5006
-17.6015
-17.6905
-17.7685
-17.8362
-17.894
-17.9427
-17.9825
-18.0139
-18.0372
-18.0526
-18.0603
180.672
179.354
177.629
175.532
173.096
170.354
167.336
164.071
160.588
156.91
153.064
149.073
144.958
140.739
136.435
132.066
127.647
123.195
118.723
114.245
109.773
105.318
100.893
96.5055
92.1656
87.881
83.659
79.5061
75.4281
71.4302
67.5169
63.6923
59.9597
56.3222
52.7821
49.3415
46.0019
42.7645
39.63
36.599
33.6716
30.8475
28.1264
25.5075
22.9899
20.5724
18.2537
16.0322
13.9064
11.8744
9.93417
8.08376
6.32098
4.6436
3.04931
1.53576
0.100512
-1.25887
-2.54487
-3.76
-4.90675
-5.98765
-7.00521
-7.96193
-8.86027
-9.70271
-10.4917
-11.2295
-11.9187
-12.5614
-13.16
-13.7166
-14.2334
-14.7125
-15.156
-15.5658
-15.9439
-16.292
-16.612
-16.9056
-17.1745
-17.4201
-17.6439
-17.8475
-18.0321
-18.199
-18.3494
-18.4844
-18.6051
-18.7123
-18.807
-18.8899
-18.9618
-19.0233
-19.075
-19.1174
-19.1508
-19.1755
-19.1919
-19.2001
191.353
189.957
188.13
185.909
183.329
180.425
177.228
173.771
170.082
166.186
162.113
157.886
153.528
149.059
144.501
139.873
135.193
130.477
125.741
120.998
116.262
111.544
106.857
102.211
97.6142
93.0763
88.6047
84.2063
79.8872
75.653
71.5084
67.4576
63.5044
59.6518
55.9024
52.2584
48.7214
45.2926
41.9729
38.7627
35.6622
32.6712
29.7892
27.0154
24.349
21.7885
19.3328
16.98
14.7285
12.5764
10.5215
8.56165
6.69466
4.91811
3.22958
1.62654
0.106453
-1.33329
-2.69532
-3.98228
-5.19683
-6.34163
-7.41934
-8.43261
-9.38407
-10.2763
-11.1119
-11.8934
-12.6233
-13.304
-13.9379
-14.5274
-15.0748
-15.5823
-16.052
-16.486
-16.8864
-17.2551
-17.5941
-17.905
-18.1898
-18.4499
-18.687
-18.9026
-19.0981
-19.2749
-19.4342
-19.5772
-19.705
-19.8185
-19.9188
-20.0066
-20.0828
-20.1479
-20.2027
-20.2475
-20.2829
-20.3091
-20.3265
-20.3351
201.986
200.513
198.585
196.24
193.517
190.451
187.077
183.427
179.533
175.421
171.121
166.66
162.059
157.342
152.531
147.646
142.706
137.728
132.729
127.722
122.723
117.743
112.795
107.891
103.039
98.2486
93.5285
88.8857
84.3266
79.8571
75.4821
71.2063
67.0334
62.9667
59.009
55.1624
51.4288
47.8095
44.3053
40.9167
37.6439
34.4867
31.4446
28.5167
25.702
22.9993
20.4071
17.9236
15.547
13.2752
11.1061
9.03742
7.06668
5.19141
3.40905
1.71693
0.112368
-1.40738
-2.8451
-4.20358
-5.48562
-6.69404
-7.83164
-8.90122
-9.90555
-10.8474
-11.7294
-12.5543
-13.3248
-14.0433
-14.7125
-15.3347
-15.9125
-16.4482
-16.944
-17.4021
-17.8248
-18.214
-18.5718
-18.9
-19.2006
-19.4752
-19.7255
-19.953
-20.1594
-20.346
-20.5142
-20.6651
-20.8
-20.9198
-21.0257
-21.1184
-21.1988
-21.2676
-21.3254
-21.3727
-21.41
-21.4377
-21.456
-21.4652
212.57
211.02
208.99
206.523
203.657
200.431
196.879
193.039
188.94
184.613
180.088
175.392
170.551
165.587
160.523
155.382
150.183
144.945
139.683
134.415
129.153
123.913
118.706
113.544
108.438
103.397
98.4293
93.5432
88.7452
84.0414
79.4373
74.9374
70.5458
66.266
62.1009
58.0528
54.1236
50.3146
46.6268
43.0607
39.6164
36.2938
33.0922
30.0109
27.0488
24.2045
21.4764
18.8628
16.3616
13.9708
11.6881
9.51096
7.43696
5.46343
3.58767
1.80689
0.118254
-1.48113
-2.99418
-4.42384
-5.77306
-7.04479
-8.242
-9.36763
-10.4246
-11.4158
-12.344
-13.2122
-14.023
-14.7791
-15.4834
-16.1383
-16.7463
-17.31
-17.8318
-18.314
-18.7588
-19.1684
-19.5449
-19.8904
-20.2067
-20.4956
-20.759
-20.9986
-21.2158
-21.4121
-21.5891
-21.7479
-21.8898
-22.016
-22.1274
-22.225
-22.3096
-22.3819
-22.4428
-22.4926
-22.5319
-22.561
-22.5803
-22.5899
223.101
221.474
219.344
216.754
213.746
210.36
206.633
202.602
198.301
193.759
189.01
184.082
179
173.79
168.476
163.08
157.624
152.126
146.604
141.074
135.552
130.052
124.587
119.169
113.81
108.519
103.306
98.1776
93.1419
88.2051
83.3728
78.65
74.0408
69.549
65.1776
60.9289
56.8051
52.8074
48.9368
45.194
41.5791
38.0918
34.7317
31.4977
28.3888
25.4036
22.5404
19.7973
17.1722
14.663
12.2671
9.98216
7.80541
5.73411
3.76542
1.89641
0.124112
-1.55451
-3.14252
-4.64301
-6.05907
-7.39381
-8.65034
-9.83173
-10.941
-11.9813
-12.9556
-13.8667
-14.7177
-15.5113
-16.2505
-16.9378
-17.576
-18.1676
-18.7153
-19.2213
-19.6881
-20.1181
-20.5132
-20.8758
-21.2077
-21.511
-21.7875
-22.0389
-22.2668
-22.473
-22.6587
-22.8254
-22.9743
-23.1067
-23.2236
-23.326
-23.4148
-23.4908
-23.5546
-23.6069
-23.6482
-23.6788
-23.699
-23.7091
233.577
231.874
229.644
226.932
223.783
220.238
216.336
212.116
207.613
202.858
197.885
192.726
187.406
181.951
176.387
170.738
165.025
159.269
153.488
147.698
141.917
136.158
130.437
124.765
119.154
113.615
108.157
102.788
97.5156
92.347
87.2878
82.3432
77.5176
72.8149
68.2381
63.79
59.4725
55.2871
51.2348
47.3162
43.5316
39.8805
36.3626
32.9768
29.7219
26.5965
23.5988
20.7269
17.9786
15.3515
12.8432
10.4509
8.17193
6.00336
3.94223
1.98546
0.129938
-1.62751
-3.29009
-4.86103
-6.34359
-7.74101
-9.05653
-10.2934
-11.4548
-12.5439
-13.5639
-14.5179
-15.4088
-16.2397
-17.0135
-17.7331
-18.4013
-19.0207
-19.5941
-20.1239
-20.6126
-21.0627
-21.4765
-21.8561
-22.2036
-22.5211
-22.8106
-23.0738
-23.3124
-23.5282
-23.7227
-23.8972
-24.0531
-24.1918
-24.3142
-24.4214
-24.5143
-24.5939
-24.6607
-24.7155
-24.7586
-24.7907
-24.8118
-24.8224
243.996
242.217
239.887
237.055
233.765
230.062
225.986
221.577
216.873
211.906
206.712
201.322
195.765
190.067
184.255
178.354
172.386
166.373
160.334
154.286
148.247
142.232
136.255
130.33
124.469
118.683
112.981
107.373
101.865
96.4661
91.1812
86.016
80.9752
76.0627
71.2819
66.6353
62.1252
57.7531
53.5201
49.4268
45.4733
41.6594
37.9845
34.4477
31.0476
27.7828
24.6514
21.6514
18.7805
16.0363
13.416
10.9171
8.53643
6.27114
4.11807
2.07402
0.135733
-1.7001
-3.43684
-5.07786
-6.62654
-8.08629
-9.4605
-10.7525
-11.9657
-13.1035
-14.1689
-15.1654
-16.0961
-16.9641
-17.7724
-18.5241
-19.2221
-19.8691
-20.4681
-21.0215
-21.5321
-22.0022
-22.4344
-22.8309
-23.194
-23.5257
-23.828
-24.103
-24.3523
-24.5777
-24.7808
-24.9631
-25.126
-25.2708
-25.3987
-25.5107
-25.6078
-25.6909
-25.7607
-25.8179
-25.863
-25.8964
-25.9185
-25.9296
254.354
252.5
250.071
247.118
243.689
239.829
235.58
230.984
226.08
220.902
215.488
209.869
204.076
198.136
192.077
185.925
179.705
173.436
167.141
160.836
154.541
148.27
142.039
135.863
129.753
123.721
117.777
111.931
106.19
100.561
95.0521
89.6677
84.4129
79.2918
74.308
69.4642
64.7626
60.2049
55.7922
51.5251
47.4037
43.428
39.5971
35.9101
32.3657
28.9623
25.698
22.5706
19.5778
16.717
13.9856
11.3805
8.89883
6.53737
4.29289
2.16207
0.141494
-1.77228
-3.58275
-5.29343
-6.90786
-8.42958
-9.86213
-11.209
-12.4737
-13.6597
-14.7705
-15.8092
-16.7794
-17.6843
-18.5269
-19.3105
-20.0381
-20.7126
-21.337
-21.9139
-22.4462
-22.9363
-23.3868
-23.8002
-24.1786
-24.5244
-24.8396
-25.1262
-25.3861
-25.6211
-25.8328
-26.0229
-26.1927
-26.3436
-26.4769
-26.5937
-26.6949
-26.7815
-26.8543
-26.9139
-26.9609
-26.9958
-27.0189
-27.0303
264.65
262.72
260.193
257.121
253.553
249.537
245.115
240.334
235.231
229.844
224.21
218.364
212.336
206.156
199.852
193.451
186.979
180.457
173.906
167.347
160.796
154.272
147.789
141.362
135.005
128.729
122.545
116.462
110.488
104.632
98.8996
93.2972
87.8297
82.5014
77.3158
72.2759
67.3841
62.6419
58.0505
53.6107
49.3225
45.1858
41.1999
37.3636
33.6758
30.1346
26.7382
23.4842
20.3703
17.3937
14.5517
11.8412
9.25903
6.80198
4.46666
2.24958
0.14722
-1.84402
-3.72777
-5.50769
-7.18747
-8.77079
-10.2613
-11.6627
-12.9786
-14.2127
-15.3683
-16.4492
-17.4586
-18.4001
-19.2768
-20.0922
-20.8492
-21.551
-22.2007
-22.801
-23.3547
-23.8647
-24.3335
-24.7636
-25.1573
-25.5171
-25.845
-26.1433
-26.4137
-26.6582
-26.8785
-27.0762
-27.2529
-27.41
-27.5486
-27.6701
-27.7755
-27.8656
-27.9413
-28.0033
-28.0523
-28.0885
-28.1125
-28.1245
274.88
272.876
270.251
267.06
263.354
259.183
254.591
249.624
244.324
238.729
232.877
226.805
220.544
214.125
207.577
200.929
194.206
187.432
180.629
173.816
167.012
160.235
153.502
146.827
140.224
133.705
127.282
120.964
114.759
108.676
102.723
96.9037
91.2249
85.6906
80.3045
75.0699
69.9889
65.0634
60.2945
55.6831
51.2291
46.9325
42.7925
38.808
34.9776
31.2995
27.7718
24.392
21.1577
18.0661
15.1142
12.2989
9.61694
7.06492
4.63932
2.33654
0.152909
-1.9153
-3.87187
-5.7206
-7.46532
-9.10984
-10.658
-12.1136
-13.4803
-14.7621
-15.9624
-17.085
-18.1335
-19.1114
-20.022
-20.8689
-21.6552
-22.3841
-23.0588
-23.6823
-24.2575
-24.7872
-25.2741
-25.7208
-26.1298
-26.5035
-26.8441
-27.1538
-27.4347
-27.6887
-27.9175
-28.1229
-28.3064
-28.4695
-28.6136
-28.7397
-28.8492
-28.9428
-29.0214
-29.0858
-29.1366
-29.1743
-29.1992
-29.2116
285.043
282.965
280.243
276.934
273.091
268.765
264.003
258.853
253.357
247.555
241.487
235.19
228.698
222.042
215.252
208.358
201.386
194.362
187.307
180.242
173.186
166.159
159.177
152.255
145.408
138.649
131.988
125.436
119.002
112.694
106.52
100.486
94.5975
88.8586
83.2735
77.8452
72.5764
67.4688
62.5237
57.7417
53.1231
48.6676
44.3745
40.2427
36.2707
32.4567
28.7985
25.2938
21.9399
18.734
15.673
12.7536
9.97249
7.32611
4.81083
2.42292
0.158561
-1.98611
-4.01502
-5.9321
-7.74132
-9.44664
-11.052
-12.5614
-13.9787
-15.3078
-16.5526
-17.7167
-18.8039
-19.8179
-20.7622
-21.6404
-22.4558
-23.2117
-23.9113
-24.5579
-25.1544
-25.7036
-26.2085
-26.6717
-27.0959
-27.4833
-27.8366
-28.1577
-28.449
-28.7123
-28.9496
-29.1626
-29.3529
-29.5221
-29.6714
-29.8023
-29.9157
-30.0128
-30.0943
-30.1612
-30.2138
-30.2529
-30.2788
-30.2916
295.135
292.983
290.165
286.739
282.76
278.281
273.35
268.018
262.327
256.32
250.037
243.517
236.795
229.903
222.873
215.735
208.517
201.244
193.939
186.623
179.318
172.042
164.813
157.646
150.557
143.558
136.661
129.877
123.215
116.684
110.292
104.044
97.9468
92.0047
86.2218
80.6014
75.146
69.8576
64.7374
59.7861
55.004
50.3908
45.9457
41.6676
37.5549
33.6058
29.8181
26.1893
22.7167
19.3973
16.2279
13.2051
10.3256
7.5855
4.98117
2.5087
0.164174
-2.05644
-4.15717
-6.14213
-8.0154
-9.7811
-11.4433
-13.0062
-14.4736
-15.8498
-17.1386
-18.344
-19.4697
-20.5196
-21.4974
-22.4066
-23.2508
-24.0335
-24.758
-25.4274
-26.045
-26.6137
-27.1365
-27.6161
-28.0552
-28.4564
-28.8221
-29.1547
-29.4563
-29.7289
-29.9746
-30.1951
-30.3922
-30.5673
-30.722
-30.8574
-30.9749
-31.0754
-31.1599
-31.229
-31.2836
-31.3241
-31.3508
-31.3641
305.154
302.929
300.016
296.473
292.359
287.728
282.63
277.116
271.233
265.021
258.525
251.784
244.834
237.708
230.439
223.059
215.596
208.075
200.522
192.959
185.406
177.883
170.408
162.998
155.668
148.431
141.3
134.286
127.398
120.646
114.036
107.576
101.272
95.1281
89.1489
83.3377
77.6971
72.2291
66.9351
61.8157
56.8713
52.1014
47.5054
43.0821
38.8298
34.7467
30.8304
27.0784
23.4879
20.0558
16.7788
13.6534
10.6761
7.84301
5.15027
2.59387
0.169746
-2.12625
-4.29831
-6.35065
-8.28752
-10.1132
-11.8318
-13.4477
-14.965
-16.3879
-17.7204
-18.9667
-20.1307
-21.2162
-22.2272
-23.1673
-24.0402
-24.8494
-25.5984
-26.2906
-26.9292
-27.5172
-28.0577
-28.5536
-29.0076
-29.4225
-29.8006
-30.1444
-30.4563
-30.7382
-30.9922
-31.2202
-31.4239
-31.605
-31.7649
-31.905
-32.0265
-32.1304
-32.2177
-32.2892
-32.3456
-32.3875
-32.4151
-32.4289
315.099
312.801
309.792
306.134
301.886
297.104
291.84
286.147
280.072
273.658
266.95
259.989
252.813
245.454
237.948
230.328
222.621
214.856
207.057
199.247
191.448
183.679
175.961
168.31
160.741
153.268
145.905
138.662
131.55
124.577
117.752
111.082
104.572
98.2281
92.054
86.0534
80.229
74.5829
69.1163
63.8301
58.7246
53.7993
49.0535
44.486
40.0952
35.879
31.8351
27.9608
24.2533
20.7093
17.3256
14.0984
11.024
8.09859
5.3181
2.6784
0.175276
-2.19554
-4.43838
-6.5576
-8.55758
-10.4427
-12.2174
-13.8859
-15.4527
-16.9219
-18.2979
-19.5848
-20.7867
-21.9076
-22.9515
-23.9222
-24.8236
-25.6592
-26.4326
-27.1474
-27.8067
-28.4139
-28.972
-29.4841
-29.9529
-30.3813
-30.7717
-31.1268
-31.4487
-31.7398
-32.0021
-32.2376
-32.448
-32.6349
-32.8001
-32.9447
-33.0701
-33.1774
-33.2676
-33.3414
-33.3997
-33.4429
-33.4714
-33.4856
324.965
322.595
319.493
315.72
311.339
306.407
300.978
295.107
288.841
282.226
275.308
268.13
260.729
253.14
245.399
237.54
229.592
221.584
213.54
205.486
197.442
189.431
181.471
173.58
165.774
158.067
150.473
143.004
135.669
128.478
121.439
114.56
107.846
101.304
94.9364
88.7479
82.7412
76.9182
71.2805
65.8288
60.5633
55.4838
50.5895
45.879
41.3506
37.0024
32.8319
28.8363
25.0127
21.3578
17.8681
14.5398
11.3692
8.35217
5.48462
2.76226
0.180763
-2.26429
-4.57735
-6.76293
-8.82554
-10.7697
-12.5999
-14.3207
-15.9365
-17.4518
-18.8708
-20.198
-21.4375
-22.5935
-23.6701
-24.6713
-25.6008
-26.4626
-27.2603
-27.9974
-28.6774
-29.3036
-29.8792
-30.4073
-30.8908
-31.3326
-31.7352
-32.1014
-32.4335
-32.7337
-33.0042
-33.247
-33.464
-33.6568
-33.8271
-33.9763
-34.1056
-34.2163
-34.3092
-34.3854
-34.4455
-34.49
-34.5195
-34.5341
334.751
332.31
329.114
325.228
320.715
315.634
310.042
303.994
297.54
290.725
283.599
276.205
268.58
260.763
252.789
244.693
236.506
228.256
219.971
211.674
203.388
195.135
186.936
178.807
170.766
162.827
155.005
147.31
139.754
132.347
125.096
118.01
111.094
104.354
97.7954
91.4205
85.2329
79.2345
73.427
67.8112
62.3872
57.1547
52.1129
47.2606
42.5959
38.1167
33.8206
29.7047
25.766
22.001
18.4061
14.9777
11.7116
8.60369
5.64978
2.84544
0.186206
-2.33247
-4.7152
-6.96659
-9.09131
-11.094
-12.9794
-14.752
-16.4164
-17.9773
-19.4391
-20.8063
-22.0831
-23.2739
-24.3829
-25.4142
-26.3718
-27.2595
-28.0812
-28.8405
-29.541
-30.186
-30.779
-31.323
-31.8211
-32.2761
-32.6909
-33.0681
-33.4102
-33.7194
-33.9981
-34.2482
-34.4717
-34.6704
-34.8458
-34.9994
-35.1327
-35.2467
-35.3424
-35.4209
-35.4828
-35.5287
-35.559
-35.5741
344.455
341.943
338.654
334.655
330.011
324.784
319.029
312.806
306.165
299.153
291.82
284.211
276.366
268.322
260.117
251.786
243.362
234.873
226.347
217.81
209.284
200.792
192.354
183.99
175.716
167.547
159.498
151.58
143.805
136.183
128.723
121.431
114.315
107.379
100.63
94.0706
87.7035
81.5313
75.5555
69.7768
64.1956
58.8115
53.6236
48.6305
43.8306
39.2216
34.801
30.5658
26.5128
22.6387
18.9397
15.4118
12.051
8.85309
5.81355
2.92792
0.191602
-2.40009
-4.85188
-7.16854
-9.35485
-11.4156
-13.3556
-15.1796
-16.8923
-18.4984
-20.0026
-21.4094
-22.7232
-23.9486
-25.0897
-26.1509
-27.1362
-28.0497
-28.8952
-29.6765
-30.3973
-31.0611
-31.6712
-32.2309
-32.7435
-33.2117
-33.6386
-34.0267
-34.3786
-34.6969
-34.9836
-35.241
-35.471
-35.6754
-35.8559
-36.014
-36.1511
-36.2684
-36.3669
-36.4477
-36.5113
-36.5586
-36.5898
-36.6053
354.073
351.492
348.111
344
339.226
333.853
327.938
321.54
314.714
307.506
299.969
292.147
284.083
275.815
267.38
258.817
250.157
241.432
232.668
223.892
215.128
206.399
197.726
189.128
180.623
172.226
163.952
155.813
147.821
139.986
132.317
124.822
117.507
110.378
103.44
96.6974
90.1526
83.808
77.6653
71.7253
65.9882
60.4537
55.1209
49.9885
45.0545
40.3168
35.7727
31.4193
27.2532
23.2709
19.4686
15.8422
12.3876
9.1003
5.97589
3.00968
0.196951
-2.46711
-4.98736
-7.36871
-9.61607
-11.7344
-13.7285
-15.6035
-17.364
-19.015
-20.5612
-22.0072
-23.3578
-24.6173
-25.7903
-26.8812
-27.894
-28.833
-29.7021
-30.5052
-31.2461
-31.9284
-32.5556
-33.131
-33.6578
-34.1391
-34.5779
-34.9768
-35.3386
-35.6657
-35.9605
-36.225
-36.4615
-36.6716
-36.8571
-37.0196
-37.1606
-37.2811
-37.3824
-37.4654
-37.5309
-37.5794
-37.6115
-37.6275
363.604
360.953
357.481
353.26
348.358
342.84
336.766
330.196
323.186
315.784
308.044
300.012
291.73
283.239
274.578
265.784
256.891
247.931
238.931
229.919
220.919
211.955
203.048
194.219
185.485
176.862
168.365
160.007
151.8
143.754
135.879
128.182
120.67
113.349
106.225
99.3004
92.5794
86.064
79.756
73.656
67.7645
62.0811
56.6047
51.3341
46.2674
41.4021
36.7357
32.2651
27.9868
23.8973
19.9926
16.2686
12.721
9.34527
6.13675
3.0907
0.202252
-2.53352
-5.12162
-7.56707
-9.87493
-12.0503
-14.0981
-16.0235
-17.8314
-19.5269
-21.1146
-22.5996
-23.9865
-25.28
-26.4846
-27.6048
-28.6449
-29.6091
-30.5016
-31.3264
-32.0872
-32.7879
-33.4319
-34.0228
-34.5638