/*--------------------------------*- C++ -*----------------------------------*\
| =========                 |                                                 |
| \\      /  F ield         | OpenFOAM: The Open Source CFD Toolbox           |
|  \\    /   O peration     | Version:  2406                                  |
|   \\  /    A nd           | Website:  www.openfoam.com                      |
|    \\/     M anipulation  |                                                 |
\*---------------------------------------------------------------------------*/
FoamFile
{
    version     2.0;
    format      ascii;
    arch        "LSB;label=32;scalar=64";
    class       volScalarField;
    location    "15";
    object      gradTy;
}
// * * * * * * * * * * * * * * * * * * * * * * * * * * * * * * * * * * * * * //

dimensions      [0 -1 0 1 0 0 0];

internalField   nonuniform List<scalar> 
20000
(
72.8307
66.2546
60.198
54.628
49.5121
44.8198
40.5221
36.5912
33.0008
29.7257
26.7428
24.0295
21.5647
19.329
17.3039
15.472
13.8171
12.3242
10.9792
9.7693
8.68228
7.70696
6.83304
6.05102
5.35217
4.72849
4.17264
3.67789
3.23808
2.84761
2.50138
2.19478
1.92359
1.68404
1.47269
1.28645
1.12255
0.978475
0.851982
0.741057
0.643899
0.558898
0.484619
0.419783
0.363254
0.314023
0.271195
0.233978
0.201672
0.173659
0.149394
0.128399
0.110251
0.0945797
0.0810618
0.0694129
0.0593845
0.0507597
0.0433493
0.0369884
0.0315336
0.0268603
0.0228602
0.0194394
0.0165169
0.0140221
0.0118945
0.0100816
0.00853823
0.00722539
0.00610962
0.00516215
0.00435826
0.00367674
0.00309945
0.00261083
0.00219759
0.00184837
0.00155348
0.00130464
0.00109481
0.000918003
0.000769108
0.00064379
0.000538368
0.000449715
0.000375176
0.000312501
0.000259781
0.000215394
0.000177964
0.000146319
0.00011946
9.65305e-05
7.67927e-05
5.96059e-05
4.44074e-05
3.06953e-05
1.80134e-05
5.93755e-06
72.8127
66.2384
60.1832
54.6144
49.4998
44.8088
40.5121
36.5821
32.9927
29.7185
26.7362
24.0235
21.5594
19.3243
17.2997
15.4682
13.8137
12.3211
10.9765
9.76691
8.68015
7.70506
6.83134
6.04951
5.35084
4.72733
4.17162
3.67699
3.23728
2.84691
2.50077
2.19423
1.92311
1.68362
1.47232
1.28613
1.12227
0.978233
0.851771
0.740874
0.64374
0.55876
0.484499
0.41968
0.363165
0.313946
0.271128
0.23392
0.201622
0.173616
0.149358
0.128367
0.110223
0.0945564
0.0810419
0.0693958
0.0593699
0.0507472
0.0433386
0.0369793
0.0315259
0.0268537
0.0228546
0.0194347
0.0165128
0.0140187
0.0118916
0.0100792
0.00853615
0.00722363
0.00610814
0.0051609
0.0043572
0.00367585
0.0030987
0.0026102
0.00219706
0.00184793
0.0015531
0.00130433
0.00109455
0.000917784
0.000768924
0.000643637
0.000538241
0.000449608
0.000375087
0.000312428
0.00025972
0.000215344
0.000177923
0.000146286
0.000119433
9.65085e-05
7.67753e-05
5.95927e-05
4.43978e-05
3.06889e-05
1.80098e-05
5.93647e-06
72.7767
66.2056
60.1537
54.5875
49.4753
44.7866
40.4921
36.5641
32.9764
29.7038
26.723
24.0116
21.5488
19.3148
17.2911
15.4605
13.8069
12.3151
10.9711
9.76211
8.67587
7.70125
6.82796
6.04652
5.3482
4.725
4.16957
3.67518
3.23569
2.84551
2.49953
2.19315
1.92216
1.68279
1.47159
1.2855
1.12172
0.977749
0.85135
0.740508
0.643422
0.558484
0.48426
0.419473
0.362986
0.313791
0.270995
0.233805
0.201523
0.173531
0.149284
0.128304
0.110169
0.0945098
0.0810019
0.0693616
0.0593406
0.0507222
0.0433173
0.0369611
0.0315104
0.0268405
0.0228433
0.0194251
0.0165047
0.0140118
0.0118858
0.0100742
0.00853197
0.00722009
0.00610515
0.00515837
0.00435507
0.00367406
0.00309719
0.00260893
0.00219599
0.00184703
0.00155235
0.00130369
0.00109402
0.00091734
0.000768553
0.000643327
0.000537982
0.000449392
0.000374908
0.000312278
0.000259596
0.000215241
0.000177838
0.000146216
0.000119376
9.64632e-05
7.67395e-05
5.9565e-05
4.43774e-05
3.06749e-05
1.80018e-05
5.9339e-06
72.7228
66.1564
60.1091
54.5471
49.4388
44.7534
40.4622
36.5371
32.9519
29.6818
26.7032
23.9939
21.5329
19.3005
17.2783
15.4491
13.7966
12.3059
10.963
9.75489
8.66944
7.69554
6.82289
6.04203
5.34424
4.7215
4.16648
3.67246
3.2333
2.8434
2.49768
2.19152
1.92074
1.68154
1.4705
1.28454
1.12089
0.977025
0.85072
0.73996
0.642946
0.558071
0.483902
0.419162
0.362717
0.313559
0.270794
0.233632
0.201374
0.173402
0.149174
0.128209
0.110088
0.0944399
0.0809421
0.0693104
0.0592968
0.0506848
0.0432853
0.0369339
0.0314872
0.0268207
0.0228265
0.0194108
0.0164926
0.0140015
0.0118771
0.0100668
0.0085257
0.00721479
0.00610067
0.00515459
0.00435188
0.00367137
0.00309493
0.00260703
0.00219439
0.00184568
0.00155122
0.00130274
0.00109323
0.000916675
0.000767996
0.000642862
0.000537593
0.000449068
0.000374638
0.000312054
0.00025941
0.000215087
0.000177711
0.000146112
0.000119292
9.63948e-05
7.66853e-05
5.95231e-05
4.43463e-05
3.06536e-05
1.79894e-05
5.92977e-06
72.6511
66.091
60.0496
54.4932
49.39
44.7093
40.4222
36.501
32.9194
29.6525
26.6769
23.9702
21.5116
19.2814
17.2612
15.4338
13.783
12.2938
10.9522
9.74525
8.66087
7.68793
6.81615
6.03606
5.33896
4.71684
4.16237
3.66884
3.23011
2.84059
2.49521
2.18936
1.91884
1.67987
1.46905
1.28327
1.11978
0.976059
0.849879
0.739228
0.642311
0.55752
0.483424
0.418748
0.362359
0.313249
0.270527
0.233401
0.201175
0.173231
0.149026
0.128083
0.109979
0.0943468
0.0808623
0.0692421
0.0592384
0.0506349
0.0432427
0.0368975
0.0314562
0.0267943
0.0228041
0.0193918
0.0164764
0.0139878
0.0118654
0.010057
0.00851734
0.00720772
0.0060947
0.00514955
0.00434763
0.00366778
0.0030919
0.00260448
0.00219225
0.00184388
0.00154971
0.00130148
0.00109216
0.000915785
0.000767252
0.00064224
0.000537074
0.000448635
0.000374277
0.000311754
0.000259161
0.000214881
0.000177541
0.000145973
0.000119178
9.63031e-05
7.66124e-05
5.94667e-05
4.43044e-05
3.06247e-05
1.79724e-05
5.92424e-06
72.5615
66.0094
59.9754
54.4259
49.3289
44.654
40.3722
36.4559
32.8787
29.6159
26.6439
23.9406
21.485
19.2576
17.2399
15.4148
13.766
12.2786
10.9387
9.73321
8.65016
7.67842
6.80773
6.02861
5.33237
4.71102
4.15723
3.66431
3.22612
2.83708
2.49213
2.18665
1.91646
1.6778
1.46723
1.28169
1.11839
0.974852
0.848829
0.738315
0.641517
0.556831
0.482827
0.418231
0.361912
0.312862
0.270193
0.233113
0.200927
0.173017
0.148843
0.127925
0.109843
0.0942304
0.0807626
0.0691567
0.0591654
0.0505725
0.0431894
0.0368521
0.0314174
0.0267613
0.022776
0.0193679
0.0164561
0.0139706
0.0118508
0.0100446
0.00850689
0.00719888
0.00608722
0.00514324
0.0043423
0.00366329
0.00308812
0.0026013
0.00218957
0.00184163
0.00154782
0.00129989
0.00109084
0.000914672
0.00076632
0.00064146
0.000536423
0.000448092
0.000373824
0.000311377
0.000258848
0.000214622
0.000177328
0.000145797
0.000119035
9.61877e-05
7.65209e-05
5.93958e-05
4.42516e-05
3.05882e-05
1.79511e-05
5.91722e-06
72.4538
65.9116
59.8865
54.3451
49.2557
44.5878
40.3123
36.4018
32.8299
29.5719
26.6044
23.905
21.4531
19.229
17.2143
15.3919
13.7456
12.2604
10.9225
9.71876
8.63732
7.66703
6.79762
6.01966
5.32446
4.70403
4.15107
3.65887
3.22133
2.83287
2.48843
2.1834
1.91362
1.67531
1.46505
1.27978
1.11673
0.973405
0.847569
0.737219
0.640565
0.556005
0.482111
0.417611
0.361375
0.312398
0.269792
0.232768
0.200629
0.172761
0.148622
0.127735
0.109681
0.0940908
0.0806429
0.0690543
0.0590777
0.0504976
0.0431255
0.0367975
0.0313709
0.0267218
0.0227423
0.0193393
0.0164318
0.01395
0.0118333
0.0100298
0.00849434
0.00718826
0.00607825
0.00513566
0.00433591
0.0036579
0.00308358
0.00259747
0.00218636
0.00183893
0.00154555
0.00129799
0.00108924
0.000913333
0.0007652
0.000640523
0.00053564
0.000447438
0.00037328
0.000310924
0.000258472
0.000214311
0.000177071
0.000145586
0.000118863
9.60488e-05
7.64105e-05
5.93102e-05
4.4188e-05
3.05443e-05
1.79253e-05
5.90872e-06
72.3282
65.7974
59.7827
54.251
49.1704
44.5105
40.2425
36.3387
32.773
29.5207
26.5583
23.8636
21.4159
19.1957
17.1845
15.3652
13.7218
12.2392
10.9035
9.70192
8.62235
7.65374
6.78585
6.00924
5.31524
4.69589
4.14388
3.65253
3.21575
2.82796
2.48412
2.17962
1.9103
1.6724
1.46251
1.27757
1.1148
0.971718
0.8461
0.735942
0.639455
0.555041
0.481275
0.416887
0.360749
0.311857
0.269325
0.232365
0.200281
0.172462
0.148365
0.127514
0.109491
0.093928
0.0805034
0.0689348
0.0589756
0.0504102
0.0430509
0.0367339
0.0313167
0.0266756
0.022703
0.0193059
0.0164034
0.0139259
0.0118129
0.0100125
0.00847969
0.00717588
0.00606778
0.00512682
0.00432845
0.00365161
0.00307828
0.00259301
0.0021826
0.00183578
0.0015429
0.00129576
0.00108737
0.00091177
0.000763891
0.000639429
0.000534725
0.000446675
0.000372643
0.000310395
0.000258032
0.000213946
0.00017677
0.000145339
0.000118661
9.58862e-05
7.62813e-05
5.921e-05
4.41133e-05
3.04928e-05
1.78951e-05
5.89877e-06
72.1847
65.6669
59.6642
54.1434
49.0729
44.4223
40.1627
36.2667
32.7081
29.4622
26.5056
23.8163
21.3735
19.1576
17.1505
15.3348
13.6946
12.2149
10.8819
9.68268
8.60526
7.63857
6.77239
5.99733
5.3047
4.68658
4.13566
3.64529
3.20937
2.82236
2.47919
2.1753
1.90651
1.66908
1.45961
1.27503
1.11259
0.969792
0.844422
0.734483
0.638187
0.553941
0.480321
0.416061
0.360034
0.311239
0.268791
0.231904
0.199885
0.17212
0.148071
0.127261
0.109274
0.093742
0.080344
0.0687983
0.0588588
0.0503105
0.0429657
0.0366612
0.0312548
0.0266228
0.0226581
0.0192677
0.016371
0.0138984
0.0117896
0.00999272
0.00846296
0.00716172
0.00605582
0.00511671
0.00431992
0.00364442
0.00307222
0.00258791
0.00217831
0.00183217
0.00153987
0.00129322
0.00108524
0.000909983
0.000762395
0.000638177
0.000533679
0.000445802
0.000371916
0.000309789
0.000257529
0.00021353
0.000176426
0.000145056
0.000118431
9.57001e-05
7.61333e-05
5.90952e-05
4.40279e-05
3.04337e-05
1.78604e-05
5.88738e-06
72.0235
65.5203
59.5309
54.0225
48.9633
44.3231
40.073
36.1857
32.635
29.3964
26.4464
23.7631
21.3258
19.1149
17.1122
15.3005
13.664
12.1876
10.8576
9.66106
8.58604
7.62151
6.75727
5.98393
5.29286
4.67611
4.12643
3.63715
3.20221
2.81605
2.47365
2.17044
1.90225
1.66536
1.45635
1.27218
1.1101
0.967626
0.842536
0.732843
0.636762
0.552704
0.479249
0.415132
0.35923
0.310545
0.268191
0.231386
0.199438
0.171736
0.14774
0.126977
0.10903
0.0935329
0.0801648
0.0686449
0.0587276
0.0501983
0.04287
0.0365795
0.0311851
0.0265635
0.0226077
0.0192248
0.0163346
0.0138674
0.0117634
0.00997049
0.00844414
0.0071458
0.00604236
0.00510535
0.00431033
0.00363633
0.0030654
0.00258217
0.00217348
0.00182811
0.00153646
0.00129036
0.00108284
0.000907971
0.000760711
0.000636768
0.000532502
0.000444819
0.000371096
0.000309107
0.000256962
0.00021306
0.000176038
0.000144738
0.000118171
9.54903e-05
7.59665e-05
5.89658e-05
4.39316e-05
3.03672e-05
1.78214e-05
5.87448e-06
71.8446
65.3574
59.383
53.8883
48.8416
44.2129
39.9734
36.0958
32.5539
29.3233
26.3807
23.7041
21.2728
19.0674
17.0696
15.2625
13.63
12.1573
10.8306
9.63705
8.56471
7.60257
6.74048
5.96907
5.27971
4.6645
4.11618
3.62811
3.19425
2.80905
2.4675
2.16504
1.89753
1.66122
1.45273
1.26902
1.10734
0.965221
0.840443
0.731021
0.63518
0.551331
0.478058
0.414101
0.358338
0.309773
0.267525
0.230812
0.198943
0.171309
0.147373
0.126662
0.108759
0.0933007
0.0799658
0.0684745
0.0585818
0.0500737
0.0427636
0.0364888
0.0311078
0.0264977
0.0225516
0.0191772
0.0162941
0.0138331
0.0117342
0.0099458
0.00842323
0.00712812
0.00602741
0.00509272
0.00429967
0.00362734
0.00305783
0.0025758
0.00216812
0.0018236
0.00153267
0.00128718
0.00108017
0.000905736
0.000758839
0.000635202
0.000531193
0.000443726
0.000370185
0.000308349
0.000256333
0.000212538
0.000175607
0.000144384
0.000117882
9.5257e-05
7.5781e-05
5.8822e-05
4.38244e-05
3.02931e-05
1.7778e-05
5.86015e-06
71.6479
65.1785
59.2204
53.7407
48.7079
44.0919
39.864
35.9969
32.4648
29.243
26.3085
23.6392
21.2145
19.0152
17.0229
15.2207
13.5927
12.124
10.801
9.61067
8.54126
7.58176
6.72203
5.95273
5.26526
4.65173
4.10491
3.61818
3.1855
2.80136
2.46075
2.15911
1.89233
1.65667
1.44875
1.26555
1.10431
0.962578
0.838142
0.72902
0.633441
0.549822
0.476749
0.412967
0.357357
0.308925
0.266793
0.23018
0.198399
0.170841
0.14697
0.126315
0.108462
0.0930454
0.079747
0.0682872
0.0584216
0.0499368
0.0426467
0.036389
0.0310228
0.0264253
0.02249
0.0191248
0.0162496
0.0137953
0.0117022
0.00991866
0.00840025
0.00710867
0.00601098
0.00507884
0.00428795
0.00361746
0.0030495
0.00256878
0.00216222
0.00181864
0.0015285
0.00128368
0.00107724
0.000903277
0.000756779
0.000633479
0.000529753
0.000442524
0.000369183
0.000307514
0.000255639
0.000211964
0.000175133
0.000143994
0.000117564
9.50002e-05
7.55768e-05
5.86635e-05
4.37064e-05
3.02116e-05
1.77301e-05
5.8444e-06
71.4335
64.9835
59.0432
53.5799
48.5622
43.96
39.7447
35.8892
32.3677
29.1555
26.2298
23.5685
21.1511
18.9583
16.972
15.1752
13.552
12.0878
10.7687
9.58191
8.5157
7.55908
6.70192
5.93492
5.2495
4.63781
4.09263
3.60735
3.17597
2.79298
2.45338
2.15265
1.88667
1.65171
1.44442
1.26176
1.10101
0.959698
0.835634
0.726839
0.631546
0.548177
0.475323
0.411732
0.356288
0.308001
0.265995
0.229492
0.197805
0.17033
0.146531
0.125938
0.108138
0.0927673
0.0795086
0.0680831
0.058247
0.0497876
0.0425193
0.0362803
0.0309301
0.0263463
0.0224229
0.0190677
0.0162011
0.0137541
0.0116673
0.00988907
0.0083752
0.00708748
0.00599306
0.0050637
0.00427518
0.00360669
0.00304043
0.00256114
0.00215579
0.00181323
0.00152396
0.00127986
0.00107404
0.000900595
0.000754533
0.0006316
0.000528182
0.000441213
0.000368089
0.000306604
0.000254883
0.000211337
0.000174615
0.000143569
0.000117217
9.47198e-05
7.53539e-05
5.84906e-05
4.35776e-05
3.01225e-05
1.76779e-05
5.82718e-06
71.2015
64.7724
58.8515
53.4059
48.4045
43.8172
39.6156
35.7727
32.2625
29.0609
26.1446
23.4919
21.0824
18.8967
16.9168
15.1259
13.508
12.0485
10.7337
9.55079
8.48805
7.53453
6.68016
5.91564
5.23245
4.62275
4.07933
3.59564
3.16565
2.78391
2.44542
2.14566
1.88054
1.64635
1.43973
1.25766
1.09743
0.956581
0.83292
0.724478
0.629495
0.546396
0.47378
0.410395
0.355131
0.307001
0.265131
0.228746
0.197163
0.169777
0.146055
0.125529
0.107787
0.0924662
0.0792506
0.0678622
0.058058
0.0496261
0.0423813
0.0361627
0.0308298
0.0262609
0.0223502
0.0190059
0.0161486
0.0137096
0.0116295
0.00985704
0.00834808
0.00706453
0.00597366
0.00504732
0.00426135
0.00359502
0.00303059
0.00255286
0.00214882
0.00180737
0.00151904
0.00127573
0.00107057
0.00089769
0.000752101
0.000629565
0.000526481
0.000439792
0.000366905
0.000305618
0.000254064
0.000210658
0.000174055
0.000143108
0.000116841
9.44161e-05
7.51123e-05
5.83031e-05
4.3438e-05
3.00261e-05
1.76213e-05
5.80851e-06
70.9519
64.5454
58.6452
53.2187
48.2348
43.6636
39.4768
35.6473
32.1495
28.959
26.0529
23.4096
21.0085
18.8305
16.8575
15.0729
13.4607
12.0063
10.6961
9.51732
8.4583
7.50812
6.65674
5.89491
5.21411
4.60654
4.06503
3.58303
3.15456
2.77415
2.43684
2.13814
1.87395
1.64057
1.43468
1.25325
1.09358
0.953228
0.83
0.721939
0.627288
0.544481
0.472119
0.408956
0.353886
0.305925
0.264202
0.227945
0.196472
0.169182
0.145543
0.125089
0.107409
0.0921423
0.078973
0.0676245
0.0578547
0.0494523
0.042233
0.0360361
0.0307219
0.026169
0.0222719
0.0189394
0.0160921
0.0136616
0.0115888
0.00982257
0.00831889
0.00703984
0.00595278
0.00502968
0.00424646
0.00358247
0.00302002
0.00254395
0.00214132
0.00180107
0.00151374
0.00127129
0.00106684
0.000894564
0.000749482
0.000627374
0.00052465
0.000438263
0.00036563
0.000304556
0.000253181
0.000209927
0.000173451
0.000142612
0.000116436
9.40889e-05
7.48522e-05
5.81012e-05
4.32876e-05
2.99222e-05
1.75603e-05
5.78841e-06
70.6849
64.3025
58.4245
53.0184
48.0532
43.4993
39.3282
35.5131
32.0285
28.85
25.9549
23.3215
20.9294
18.7596
16.7941
15.0161
13.41
11.9611
10.6558
9.48149
8.42646
7.47986
6.63169
5.87272
5.19449
4.5892
4.04973
3.56955
3.14268
2.7637
2.42767
2.13009
1.86689
1.6344
1.42928
1.24854
1.08947
0.949639
0.826876
0.719221
0.624927
0.542432
0.470342
0.407417
0.352554
0.304774
0.263208
0.227087
0.195733
0.168545
0.144996
0.124618
0.107005
0.0917957
0.078676
0.0673702
0.0576371
0.0492663
0.0420741
0.0359006
0.0306064
0.0260706
0.0221882
0.0188682
0.0160316
0.0136103
0.0115453
0.00978568
0.00828766
0.00701341
0.00593044
0.00501081
0.00423053
0.00356903
0.00300869
0.00253441
0.0021333
0.00179432
0.00150807
0.00126653
0.00106285
0.000891216
0.000746679
0.000625028
0.000522688
0.000436625
0.000364264
0.000303419
0.000252236
0.000209144
0.000172804
0.00014208
0.000116002
9.37385e-05
7.45734e-05
5.78849e-05
4.31265e-05
2.98108e-05
1.74949e-05
5.7669e-06
70.4004
64.0436
58.1893
52.805
47.8598
43.3242
39.1699
35.3702
31.8995
28.7339
25.8504
23.2276
20.8451
18.6841
16.7265
14.9557
13.356
11.9129
10.6129
9.44333
8.39255
7.44975
6.60499
5.84908
5.17358
4.57073
4.03343
3.55518
3.13003
2.75258
2.4179
2.12151
1.85938
1.62782
1.42353
1.24351
1.08508
0.945817
0.823548
0.716326
0.622412
0.540249
0.468449
0.405777
0.351135
0.303547
0.262148
0.226173
0.194945
0.167867
0.144412
0.124117
0.106574
0.0914264
0.0783595
0.0670992
0.0574053
0.0490682
0.041905
0.0357562
0.0304833
0.0259658
0.022099
0.0187924
0.0159672
0.0135556
0.0114989
0.00974637
0.00825437
0.00698525
0.00590663
0.0049907
0.00421355
0.00355471
0.00299662
0.00252425
0.00212474
0.00178713
0.00150203
0.00126145
0.00105859
0.000887648
0.00074369
0.000622527
0.000520598
0.00043488
0.000362808
0.000302206
0.000251229
0.000208309
0.000172114
0.000141513
0.000115539
9.33647e-05
7.42762e-05
5.76543e-05
4.29547e-05
2.96921e-05
1.74253e-05
5.74393e-06
70.0985
63.769
57.9398
52.5786
47.6546
43.1384
39.0019
35.2185
31.7627
28.6107
25.7395
23.128
20.7558
18.604
16.6548
14.8916
13.2987
11.8619
10.5674
9.40284
8.35656
7.41781
6.57667
5.824
5.15139
4.55113
4.01613
3.53993
3.11661
2.74077
2.40753
2.11242
1.8514
1.62084
1.41742
1.23818
1.08043
0.941761
0.820016
0.713255
0.619743
0.537932
0.46644
0.404038
0.34963
0.302246
0.261024
0.225204
0.19411
0.167148
0.143793
0.123585
0.106118
0.0910345
0.0780237
0.0668116
0.0571593
0.048858
0.0417254
0.035603
0.0303528
0.0258546
0.0220044
0.0187119
0.0158988
0.0134976
0.0114497
0.00970466
0.00821905
0.00695536
0.00588136
0.00496935
0.00419553
0.00353952
0.00298381
0.00251346
0.00211567
0.00177949
0.00149561
0.00125607
0.00105407
0.00088386
0.000740518
0.000619872
0.000518378
0.000433026
0.000361262
0.000300919
0.000250159
0.000207422
0.000171382
0.000140911
0.000115048
9.29678e-05
7.39605e-05
5.74094e-05
4.27722e-05
2.9566e-05
1.73513e-05
5.71954e-06
69.7793
63.4787
57.676
52.3392
47.4376
42.942
38.8243
35.0581
31.6181
28.4804
25.6223
23.0227
20.6613
18.5192
16.5789
14.8237
13.2382
11.8078
10.5193
9.36002
8.31851
7.38403
6.54672
5.79748
5.12794
4.53041
3.99785
3.52381
3.10242
2.72829
2.39657
2.1028
1.84297
1.61346
1.41097
1.23254
1.07551
0.937473
0.816282
0.710007
0.616921
0.535483
0.464317
0.402198
0.348038
0.30087
0.259836
0.224178
0.193226
0.166387
0.143139
0.123023
0.105635
0.0906202
0.0776686
0.0665076
0.0568992
0.0486356
0.0415356
0.0354411
0.0302147
0.025737
0.0219043
0.0186268
0.0158265
0.0134362
0.0113976
0.00966055
0.00818169
0.00692375
0.00585464
0.00494678
0.00417648
0.00352344
0.00297026
0.00250205
0.00210606
0.00177142
0.00148883
0.00125037
0.00104929
0.000879853
0.000737162
0.000617064
0.00051603
0.000431066
0.000359627
0.000299558
0.000249028
0.000206484
0.000170607
0.000140274
0.000114528
9.25479e-05
7.36265e-05
5.71501e-05
4.25791e-05
2.94325e-05
1.7273e-05
5.69373e-06
69.4429
63.1726
57.3979
52.0868
47.2089
42.735
38.6372
34.8891
31.4657
28.3431
25.4988
22.9117
20.5617
18.43
16.499
14.7523
13.1744
11.7509
10.4686
9.3149
8.27841
7.34844
6.51516
5.76953
5.10322
4.50857
3.97857
3.50682
3.08746
2.71514
2.38501
2.09266
1.83409
1.60568
1.40417
1.2266
1.07032
0.932954
0.812347
0.706585
0.613947
0.532902
0.462079
0.400259
0.34636
0.29942
0.258584
0.223098
0.192295
0.165585
0.142449
0.12243
0.105126
0.0901835
0.0772943
0.0661871
0.0566251
0.0484013
0.0413355
0.0352703
0.0300691
0.025613
0.0217988
0.0185371
0.0157503
0.0133715
0.0113427
0.00961405
0.00814232
0.00689044
0.00582647
0.00492298
0.00415639
0.0035065
0.00295598
0.00249002
0.00209594
0.00176291
0.00148168
0.00124436
0.00104425
0.000875629
0.000733623
0.000614102
0.000513555
0.000428998
0.000357902
0.000298122
0.000247834
0.000205495
0.00016979
0.000139603
0.00011398
9.21049e-05
7.32742e-05
5.68767e-05
4.23755e-05
2.92917e-05
1.71904e-05
5.6665e-06
69.0894
62.851
57.1057
51.8217
46.9686
42.5174
38.4405
34.7115
31.3055
28.1988
25.369
22.795
20.457
18.3361
16.415
14.6772
13.1073
11.6911
10.4153
9.26748
8.23626
7.31103
6.482
5.74016
5.07723
4.48561
3.95832
3.48897
3.07174
2.70132
2.37287
2.08201
1.82475
1.5975
1.39702
1.22035
1.06487
0.928204
0.808212
0.702987
0.610822
0.530189
0.459726
0.398222
0.344597
0.297895
0.257268
0.221962
0.191316
0.164742
0.141724
0.121807
0.104591
0.0897246
0.076901
0.0658504
0.056337
0.0481551
0.0411252
0.0350909
0.0299162
0.0254828
0.021688
0.0184428
0.0156702
0.0133035
0.0112851
0.00956518
0.00810093
0.00685542
0.00579686
0.00489796
0.00413527
0.00348869
0.00294097
0.00247738
0.0020853
0.00175396
0.00147416
0.00123805
0.00103896
0.000871188
0.000729903
0.000610989
0.000510952
0.000426824
0.000356089
0.000296612
0.000246579
0.000204454
0.000168931
0.000138896
0.000113403
9.16391e-05
7.29037e-05
5.65892e-05
4.21613e-05
2.91437e-05
1.71035e-05
5.63785e-06
68.7188
62.5139
56.7994
51.5437
46.7166
42.2893
38.2343
34.5253
31.1376
28.0475
25.2329
22.6728
20.3472
18.2378
16.327
14.5985
13.037
11.6284
10.3594
9.21777
8.19208
7.27181
6.44723
5.70937
5.05
4.46155
3.93709
3.47026
3.05526
2.68683
2.36014
2.07084
1.81496
1.58894
1.38952
1.21381
1.05916
0.923225
0.803877
0.699217
0.607546
0.527345
0.457261
0.396086
0.342749
0.296298
0.255888
0.220772
0.19029
0.163859
0.140964
0.121153
0.10403
0.0892435
0.0764887
0.0654973
0.0560349
0.0478969
0.0409047
0.0349028
0.0297558
0.0253462
0.0215717
0.018344
0.0155863
0.0132322
0.0112246
0.00951394
0.00805754
0.00681871
0.00576582
0.00487174
0.00411314
0.00347001
0.00292523
0.00246412
0.00207414
0.00174458
0.00146627
0.00123143
0.0010334
0.000866531
0.000726002
0.000607724
0.000508222
0.000424544
0.000354188
0.000295028
0.000245263
0.000203363
0.000168029
0.000138156
0.000112799
9.11505e-05
7.25151e-05
5.62876e-05
4.19366e-05
2.89884e-05
1.70124e-05
5.60781e-06
68.3313
62.1614
56.4791
51.253
46.4532
42.0509
38.0187
34.3306
30.962
27.8894
25.0906
22.5449
20.2325
18.1349
16.2349
14.5161
12.9635
11.5628
10.301
9.16579
8.14589
7.2308
6.41087
5.67717
5.02152
4.43639
3.91488
3.45069
3.03803
2.67168
2.34683
2.05916
1.80473
1.57998
1.38169
1.20696
1.05319
0.918019
0.799344
0.695274
0.60412
0.524371
0.454682
0.393853
0.340817
0.294627
0.254445
0.219527
0.189217
0.162935
0.140169
0.12047
0.103443
0.0887404
0.0760575
0.0651281
0.0557191
0.047627
0.0406742
0.0347061
0.0295882
0.0252034
0.0214502
0.0182406
0.0154985
0.0131577
0.0111614
0.00946035
0.00801216
0.00678031
0.00573336
0.00484431
0.00408998
0.00345048
0.00290877
0.00245026
0.00206247
0.00173476
0.00145802
0.0012245
0.00102759
0.000861659
0.000721922
0.000604309
0.000505367
0.00042216
0.000352199
0.000293371
0.000243886
0.000202222
0.000167086
0.00013738
0.000112166
9.06393e-05
7.21085e-05
5.5972e-05
4.17015e-05
2.88259e-05
1.6917e-05
5.57638e-06
67.9269
61.7935
56.1448
50.9497
46.1783
41.802
37.7937
34.1274
30.7788
27.7243
24.9422
22.4115
20.1128
18.0276
16.1388
14.4302
12.8868
11.4944
10.24
9.11154
8.09768
7.18801
6.37293
5.64357
4.9918
4.41014
3.89171
3.43026
3.02005
2.65586
2.33294
2.04697
1.79405
1.57062
1.37351
1.19982
1.04696
0.912586
0.794613
0.691159
0.600545
0.521268
0.451992
0.391522
0.3388
0.292884
0.252939
0.218228
0.188097
0.161971
0.13934
0.119758
0.102831
0.0882154
0.0756076
0.0647428
0.0553895
0.0473452
0.0404336
0.0345008
0.0294132
0.0250543
0.0213233
0.0181328
0.0154068
0.0130799
0.0110954
0.00940443
0.00796481
0.00674023
0.00569948
0.00481569
0.00406582
0.0034301
0.00289159
0.00243578
0.00205029
0.00172452
0.00144942
0.00121728
0.00102153
0.000856575
0.000717662
0.000600744
0.000502386
0.00041967
0.000350122
0.000291642
0.000242449
0.00020103
0.000166102
0.000136571
0.000111505
9.01056e-05
7.1684e-05
5.56425e-05
4.14561e-05
2.86563e-05
1.68175e-05
5.54358e-06
67.5057
61.4104
55.7967
50.6338
45.892
41.5428
37.5594
33.9159
30.5879
27.5524
24.7875
22.2725
19.9881
17.9158
16.0388
14.3408
12.8069
11.4231
10.1765
9.05505
8.04747
7.14344
6.33341
5.60858
4.96085
4.38279
3.86758
3.409
3.00133
2.6394
2.31848
2.03428
1.78292
1.56089
1.36499
1.19238
1.04047
0.906928
0.789687
0.686874
0.596822
0.518037
0.449189
0.389095
0.336699
0.291068
0.251371
0.216875
0.186931
0.160967
0.138476
0.119015
0.102194
0.0876686
0.075139
0.0643416
0.0550462
0.0470518
0.040183
0.0342871
0.0292309
0.0248991
0.0211912
0.0180204
0.0153114
0.0129989
0.0110267
0.00934618
0.00791548
0.00669849
0.00566418
0.00478587
0.00404065
0.00340886
0.00287369
0.00242071
0.00203761
0.00171385
0.00144045
0.00120975
0.00101521
0.000851278
0.000713225
0.00059703
0.000499281
0.000417076
0.000347959
0.00028984
0.000240951
0.000199789
0.000165076
0.000135728
0.000110817
8.95495e-05
7.12416e-05
5.52992e-05
4.12003e-05
2.84795e-05
1.67137e-05
5.50939e-06
67.0679
61.0121
55.4349
50.3054
45.5943
41.2734
37.3158
33.6959
30.3895
27.3737
24.6268
22.1281
19.8584
17.7997
15.9347
14.2478
12.7238
11.349
10.1105
8.99632
7.99528
7.09711
6.29234
5.57221
4.92868
4.35437
3.8425
3.38689
2.98186
2.62228
2.30344
2.02109
1.77136
1.55076
1.35614
1.18465
1.03372
0.901047
0.784565
0.68242
0.592951
0.514677
0.446276
0.386571
0.334516
0.28918
0.249741
0.215469
0.185719
0.159923
0.137578
0.118244
0.101531
0.0871002
0.0746518
0.0639244
0.0546893
0.0467468
0.0399226
0.0340648
0.0290414
0.0247377
0.0210539
0.0179036
0.0152121
0.0129147
0.0109552
0.00928562
0.00786419
0.0066551
0.00562749
0.00475487
0.00401448
0.00338679
0.00285508
0.00240504
0.00202441
0.00170275
0.00143113
0.00120192
0.00100864
0.00084577
0.000708611
0.000593169
0.000496052
0.00041438
0.000345709
0.000287967
0.000239394
0.000198498
0.00016401
0.000134851
0.000110101
8.89712e-05
7.07816e-05
5.49422e-05
4.09343e-05
2.82957e-05
1.66058e-05
5.47383e-06
66.6136
60.5988
55.0593
49.9646
45.2855
40.9938
37.063
33.4676
30.1837
27.1883
24.4599
21.9782
19.7239
17.6791
15.8268
14.1512
12.6376
11.2722
10.042
8.93538
7.94111
7.04903
6.24971
5.53446
4.89529
4.32487
3.81647
3.36394
2.96166
2.60451
2.28784
2.0074
1.75936
1.54026
1.34695
1.17662
1.02671
0.894942
0.77925
0.677797
0.588934
0.511191
0.443253
0.383953
0.33225
0.287222
0.24805
0.21401
0.184461
0.15884
0.136646
0.117443
0.100844
0.0865103
0.0741462
0.0634915
0.054319
0.0464302
0.0396522
0.0338341
0.0288448
0.0245702
0.0209113
0.0177824
0.0151092
0.0128272
0.0108811
0.00922277
0.00781097
0.00661006
0.00558941
0.0047227
0.00398731
0.00336387
0.00283576
0.00238877
0.00201072
0.00169124
0.00142145
0.00119379
0.00100182
0.000840052
0.000703821
0.00058916
0.0004927
0.00041158
0.000343374
0.000286022
0.000237777
0.000197157
0.000162903
0.000133941
0.000109358
8.83707e-05
7.03039e-05
5.45714e-05
4.06582e-05
2.81048e-05
1.64938e-05
5.43687e-06
66.1428
60.1705
54.6702
49.6115
44.9654
40.7041
36.801
33.2311
29.9703
26.9961
24.287
21.8229
19.5845
17.5541
15.7149
14.0512
12.5483
11.1925
9.97107
8.87223
7.88499
6.99921
6.20554
5.49534
4.86069
4.2943
3.7895
3.34017
2.94073
2.58611
2.27167
1.99321
1.74693
1.52937
1.33744
1.16831
1.01946
0.888618
0.773743
0.673007
0.584772
0.507578
0.440121
0.381239
0.329902
0.285192
0.246297
0.212497
0.183158
0.157717
0.135681
0.116613
0.100131
0.085899
0.0736223
0.0630429
0.0539352
0.0461022
0.0393721
0.0335951
0.028641
0.0243966
0.0207636
0.0176568
0.0150024
0.0127366
0.0108042
0.00915764
0.00775581
0.00656338
0.00554995
0.00468935
0.00395916
0.00334013
0.00281575
0.00237191
0.00199653
0.0016793
0.00141142
0.00118537
0.000994753
0.000834127
0.000698857
0.000585005
0.000489226
0.000408678
0.000340953
0.000284006
0.000236102
0.000195768
0.000161755
0.000132997
0.000108588
8.77484e-05
6.98089e-05
5.41872e-05
4.03719e-05
2.79069e-05
1.63777e-05
5.39861e-06
65.6557
59.7274
54.2676
49.2462
44.6343
40.4043
36.53
32.9864
29.7496
26.7973
24.1082
21.6621
19.4403
17.4248
15.5992
13.9477
12.4559
11.1101
9.89764
8.80689
7.82692
6.94767
6.15984
5.45487
4.82489
4.26268
3.76159
3.31557
2.91907
2.56706
2.25494
1.97853
1.73406
1.51811
1.32759
1.1597
1.01195
0.882073
0.768045
0.66805
0.580466
0.50384
0.43688
0.378432
0.327473
0.283092
0.244483
0.210932
0.181809
0.156556
0.134682
0.115754
0.0993937
0.0852666
0.0730803
0.0625787
0.0535381
0.0457628
0.0390822
0.0333478
0.0284302
0.024217
0.0206108
0.0175269
0.014892
0.0126429
0.0107247
0.00909025
0.00769874
0.00651509
0.00550911
0.00465485
0.00393004
0.00331556
0.00279504
0.00235446
0.00198185
0.00166695
0.00140104
0.00117665
0.00098744
0.000827995
0.000693721
0.000580706
0.00048563
0.000405675
0.000338448
0.000281919
0.000234367
0.00019433
0.000160567
0.000132021
0.000107791
8.71042e-05
6.92965e-05
5.37895e-05
4.00756e-05
2.77021e-05
1.62575e-05
5.35901e-06
65.1523
59.2695
53.8516
48.8686
44.2921
40.0946
36.25
32.7335
29.5216
26.5919
23.9234
21.4961
19.2912
17.2913
15.4796
13.8408
12.3604
11.0249
9.82176
8.73937
7.76692
6.89441
6.11262
5.41305
4.78791
4.23
3.73275
3.29015
2.8967
2.54738
2.23765
1.96336
1.72077
1.50647
1.31741
1.15081
1.00419
0.875312
0.762157
0.662929
0.576016
0.499978
0.433531
0.375531
0.324962
0.280922
0.242609
0.209316
0.180416
0.155356
0.133649
0.114867
0.0986319
0.0846131
0.0725202
0.0620991
0.0531278
0.0454121
0.0387827
0.0330922
0.0282123
0.0240315
0.0204529
0.0173926
0.0147779
0.012546
0.0106426
0.00902061
0.00763976
0.00646518
0.00546691
0.0046192
0.00389994
0.00329017
0.00277363
0.00233643
0.00196667
0.00165419
0.00139031
0.00116765
0.000979882
0.000821659
0.000688412
0.000576262
0.000481915
0.000402572
0.000335859
0.000279763
0.000232575
0.000192844
0.000159339
0.000131012
0.000106967
8.64384e-05
6.87668e-05
5.33784e-05
3.97694e-05
2.74904e-05
1.61333e-05
5.31808e-06
64.633
58.797
53.4223
48.4791
43.939
39.7749
35.961
32.4725
29.2862
26.3799
23.7327
21.3247
19.1375
17.1534
15.3562
13.7305
12.2619
10.937
9.74347
8.6697
7.705
6.83944
6.06389
5.3699
4.74974
4.19628
3.70299
3.26392
2.8736
2.52708
2.21981
1.94771
1.70705
1.49446
1.30691
1.14164
0.996188
0.868334
0.756082
0.657645
0.571424
0.495992
0.430075
0.372538
0.322372
0.278682
0.240675
0.207647
0.178977
0.154118
0.132584
0.113951
0.0978458
0.0839387
0.0719422
0.0616042
0.0527044
0.0450502
0.0384736
0.0328285
0.0279875
0.02384
0.0202899
0.017254
0.0146602