/*--------------------------------*- C++ -*----------------------------------*\
| =========                 |                                                 |
| \\      /  F ield         | OpenFOAM: The Open Source CFD Toolbox           |
|  \\    /   O peration     | Version:  2406                                  |
|   \\  /    A nd           | Website:  www.openfoam.com                      |
|    \\/     M anipulation  |                                                 |
\*---------------------------------------------------------------------------*/
FoamFile
{
    version     2.0;
    format      ascii;
    arch        "LSB;label=32;scalar=64";
    class       volVectorField;
    location    "130";
    object      flux;
}
// * * * * * * * * * * * * * * * * * * * * * * * * * * * * * * * * * * * * * //

dimensions      [0 1 -1 1 0 0 0];

internalField   nonuniform List<vector> 
20000
(
(0.000710053 0.00180437 0)
(0.000637186 0.00314955 0)
(0.000568209 0.00435295 0)
(0.000503176 0.00542231 0)
(0.00044204 0.00636554 0)
(0.000384643 0.0071903 0)
(0.000331006 0.00790402 0)
(0.000281095 0.00851429 0)
(0.000234724 0.00902834 0)
(0.000191769 0.00945311 0)
(0.000152138 0.00979535 0)
(0.000115723 0.0100616 0)
(8.23911e-05 0.0102582 0)
(5.19992e-05 0.0103912 0)
(2.44033e-05 0.0104662 0)
(-5.39332e-07 0.0104888 0)
(-2.29696e-05 0.0104641 0)
(-4.30272e-05 0.0103969 0)
(-6.08508e-05 0.010292 0)
(-7.65772e-05 0.0101535 0)
(-9.03409e-05 0.00998566 0)
(-0.000102274 0.00979218 0)
(-0.000112503 0.00957659 0)
(-0.000121154 0.00934219 0)
(-0.000128347 0.00909201 0)
(-0.000134195 0.00882884 0)
(-0.000138811 0.00855526 0)
(-0.0001423 0.00827363 0)
(-0.000144762 0.00798609 0)
(-0.000146293 0.00769461 0)
(-0.000146984 0.00740096 0)
(-0.00014692 0.00710671 0)
(-0.000146181 0.00681331 0)
(-0.000144843 0.00652203 0)
(-0.000142976 0.00623398 0)
(-0.000140647 0.00595016 0)
(-0.000137916 0.00567143 0)
(-0.000134842 0.00539853 0)
(-0.000131475 0.00513209 0)
(-0.000127865 0.00487266 0)
(-0.000124056 0.00462067 0)
(-0.000120088 0.00437647 0)
(-0.000115999 0.00414034 0)
(-0.000111823 0.0039125 0)
(-0.00010759 0.00369308 0)
(-0.000103326 0.00348217 0)
(-9.90578e-05 0.0032798 0)
(-9.48059e-05 0.00308596 0)
(-9.059e-05 0.0029006 0)
(-8.6427e-05 0.00272362 0)
(-8.23318e-05 0.00255491 0)
(-7.8317e-05 0.00239432 0)
(-7.43938e-05 0.00224166 0)
(-7.05712e-05 0.00209676 0)
(-6.6857e-05 0.0019594 0)
(-6.32573e-05 0.00182935 0)
(-5.97771e-05 0.00170638 0)
(-5.64201e-05 0.00159025 0)
(-5.31888e-05 0.00148072 0)
(-5.00851e-05 0.00137751 0)
(-4.71097e-05 0.00128039 0)
(-4.42626e-05 0.00118909 0)
(-4.15433e-05 0.00110335 0)
(-3.89505e-05 0.00102292 0)
(-3.64825e-05 0.000947556 0)
(-3.41371e-05 0.000877002 0)
(-3.19117e-05 0.000811016 0)
(-2.98035e-05 0.000749363 0)
(-2.78094e-05 0.000691809 0)
(-2.59259e-05 0.000638132 0)
(-2.41495e-05 0.000588112 0)
(-2.24767e-05 0.00054154 0)
(-2.09036e-05 0.000498211 0)
(-1.94265e-05 0.000457931 0)
(-1.80415e-05 0.00042051 0)
(-1.67449e-05 0.000385769 0)
(-1.55329e-05 0.000353534 0)
(-1.44018e-05 0.000323641 0)
(-1.3348e-05 0.000295931 0)
(-1.23678e-05 0.000270252 0)
(-1.14579e-05 0.000246462 0)
(-1.06148e-05 0.000224424 0)
(-9.83552e-06 0.000204006 0)
(-9.11683e-06 0.000185084 0)
(-8.45585e-06 0.000167541 0)
(-7.84982e-06 0.000151263 0)
(-7.29611e-06 0.000136143 0)
(-6.79229e-06 0.00012208 0)
(-6.33608e-06 0.000108976 0)
(-5.92534e-06 9.67373e-05 0)
(-5.55815e-06 8.52758e-05 0)
(-5.23274e-06 7.4506e-05 0)
(-4.9475e-06 6.43461e-05 0)
(-4.70103e-06 5.47172e-05 0)
(-4.49207e-06 4.55432e-05 0)
(-4.31957e-06 3.675e-05 0)
(-4.18264e-06 2.82659e-05 0)
(-4.08056e-06 2.00205e-05 0)
(-4.0128e-06 1.19447e-05 0)
(-3.97901e-06 3.97032e-06 0)
(0.00212995 0.00180395 0)
(0.00191139 0.00314876 0)
(0.00170456 0.00435186 0)
(0.00150941 0.00542101 0)
(0.00132595 0.00636396 0)
(0.00115384 0.00718848 0)
(0.000992985 0.00790208 0)
(0.00084322 0.00851222 0)
(0.000704093 0.00902613 0)
(0.000575245 0.00945077 0)
(0.000456377 0.00979292 0)
(0.000347147 0.0100591 0)
(0.000247159 0.0102557 0)
(0.000155988 0.0103886 0)
(7.32043e-05 0.0104636 0)
(-1.61858e-06 0.0104862 0)
(-6.8904e-05 0.0104615 0)
(-0.000129072 0.0103943 0)
(-0.000182538 0.0102894 0)
(-0.000229713 0.010151 0)
(-0.000271 0.0099832 0)
(-0.000306796 0.00978976 0)
(-0.000337482 0.00957423 0)
(-0.000363433 0.00933989 0)
(-0.000385008 0.00908976 0)
(-0.000402553 0.00882666 0)
(-0.0004164 0.00855315 0)
(-0.000426865 0.00827158 0)
(-0.000434251 0.00798412 0)
(-0.000438844 0.00769272 0)
(-0.000440915 0.00739913 0)
(-0.000440722 0.00710496 0)
(-0.000438506 0.00681163 0)
(-0.000434492 0.00652042 0)
(-0.000428893 0.00623244 0)
(-0.000421906 0.00594869 0)
(-0.000413715 0.00567003 0)
(-0.000404492 0.0053972 0)
(-0.000394392 0.00513083 0)
(-0.000383563 0.00487146 0)
(-0.000372136 0.00461953 0)
(-0.000360235 0.00437539 0)
(-0.000347969 0.00413932 0)
(-0.000335441 0.00391153 0)
(-0.000322742 0.00369217 0)
(-0.000309953 0.00348131 0)
(-0.000297149 0.00327899 0)
(-0.000284394 0.0030852 0)
(-0.000271748 0.00289988 0)
(-0.00025926 0.00272295 0)
(-0.000246975 0.00255428 0)
(-0.000234932 0.00239373 0)
(-0.000223163 0.00224111 0)
(-0.000211696 0.00209624 0)
(-0.000200555 0.00195891 0)
(-0.000189756 0.0018289 0)
(-0.000179317 0.00170596 0)
(-0.000169246 0.00158986 0)
(-0.000159553 0.00148035 0)
(-0.000150243 0.00137717 0)
(-0.000141317 0.00128007 0)
(-0.000132777 0.00118879 0)
(-0.00012462 0.00110308 0)
(-0.000116842 0.00102267 0)
(-0.000109438 0.000947322 0)
(-0.000102403 0.000876785 0)
(-9.57273e-05 0.000810816 0)
(-8.94033e-05 0.000749178 0)
(-8.34213e-05 0.000691639 0)
(-7.77713e-05 0.000637975 0)
(-7.24427e-05 0.000587967 0)
(-6.74245e-05 0.000541406 0)
(-6.27056e-05 0.000498088 0)
(-5.82746e-05 0.000457818 0)
(-5.41201e-05 0.000420406 0)
(-5.02307e-05 0.000385674 0)
(-4.6595e-05 0.000353447 0)
(-4.3202e-05 0.000323561 0)
(-4.00407e-05 0.000295858 0)
(-3.71004e-05 0.000270186 0)
(-3.43708e-05 0.000246402 0)
(-3.18419e-05 0.000224368 0)
(-2.95041e-05 0.000203955 0)
(-2.73482e-05 0.000185038 0)
(-2.53655e-05 0.000167499 0)
(-2.35475e-05 0.000151225 0)
(-2.18865e-05 0.00013611 0)
(-2.03752e-05 0.00012205 0)
(-1.90067e-05 0.000108949 0)
(-1.77746e-05 9.67134e-05 0)
(-1.66731e-05 8.52547e-05 0)
(-1.56969e-05 7.44876e-05 0)
(-1.48413e-05 6.43302e-05 0)
(-1.41019e-05 5.47037e-05 0)
(-1.34751e-05 4.55319e-05 0)
(-1.29576e-05 3.6741e-05 0)
(-1.25469e-05 2.8259e-05 0)
(-1.22407e-05 2.00156e-05 0)
(-1.20374e-05 1.19418e-05 0)
(-1.1936e-05 3.96935e-06 0)
(0.00354932 0.00180307 0)
(0.00318509 0.00314725 0)
(0.00284046 0.00434971 0)
(0.00251528 0.00541833 0)
(0.00220951 0.00636081 0)
(0.00192277 0.00718492 0)
(0.00165475 0.00789819 0)
(0.00140514 0.00850804 0)
(0.00117327 0.00902168 0)
(0.000958566 0.0094461 0)
(0.000760502 0.00978808 0)
(0.000578491 0.0100542 0)
(0.000411871 0.0102506 0)
(0.000259941 0.0103835 0)
(0.000121989 0.0104585 0)
(-2.69772e-06 0.010481 0)
(-0.000114822 0.0104563 0)
(-0.000215086 0.0103892 0)
(-0.000304181 0.0102843 0)
(-0.000382792 0.010146 0)
(-0.000451594 0.00997827 0)
(-0.000511242 0.00978493 0)
(-0.000562378 0.00956951 0)
(-0.000605623 0.00933528 0)
(-0.000641575 0.00908528 0)
(-0.000670812 0.0088223 0)
(-0.000693886 0.00854893 0)
(-0.000711325 0.0082675 0)
(-0.000723632 0.00798018 0)
(-0.000731286 0.00768892 0)
(-0.000734738 0.00739548 0)
(-0.000734416 0.00710145 0)
(-0.000730723 0.00680827 0)
(-0.000724034 0.0065172 0)
(-0.000714704 0.00622937 0)
(-0.000703061 0.00594576 0)
(-0.000689412 0.00566723 0)
(-0.000674042 0.00539453 0)
(-0.000657213 0.0051283 0)
(-0.000639166 0.00486905 0)
(-0.000620125 0.00461725 0)
(-0.000600292 0.00437323 0)
(-0.000579854 0.00413728 0)
(-0.000558977 0.0039096 0)
(-0.000537815 0.00369035 0)
(-0.000516504 0.00347959 0)
(-0.000495167 0.00327737 0)
(-0.000473913 0.00308368 0)
(-0.000452838 0.00289845 0)
(-0.000432028 0.00272161 0)
(-0.000411557 0.00255302 0)
(-0.000391489 0.00239254 0)
(-0.000371877 0.00224 0)
(-0.000352769 0.00209521 0)
(-0.000334203 0.00195795 0)
(-0.000316209 0.00182799 0)
(-0.000298812 0.00170512 0)
(-0.000282031 0.00158908 0)
(-0.000265879 0.00147962 0)
(-0.000250364 0.00137649 0)
(-0.00023549 0.00127944 0)
(-0.000221258 0.00118821 0)
(-0.000207665 0.00110253 0)
(-0.000194704 0.00102217 0)
(-0.000182367 0.000946855 0)
(-0.000170643 0.000876353 0)
(-0.000159519 0.000810416 0)
(-0.000148981 0.000748808 0)
(-0.000139013 0.000691297 0)
(-0.000129598 0.00063766 0)
(-0.000120718 0.000587677 0)
(-0.000112356 0.000541139 0)
(-0.000104492 0.000497842 0)
(-9.71084e-05 0.000457592 0)
(-9.01853e-05 0.000420199 0)
(-8.3704e-05 0.000385483 0)
(-7.76456e-05 0.000353273 0)
(-7.19915e-05 0.000323401 0)
(-6.67235e-05 0.000295712 0)
(-6.18238e-05 0.000270052 0)
(-5.72753e-05 0.00024628 0)
(-5.30612e-05 0.000224258 0)
(-4.91655e-05 0.000203855 0)
(-4.55729e-05 0.000184947 0)
(-4.22688e-05 0.000167417 0)
(-3.92394e-05 0.000151151 0)
(-3.64716e-05 0.000136042 0)
(-3.39531e-05 0.00012199 0)
(-3.16726e-05 0.000108895 0)
(-2.96194e-05 9.66657e-05 0)
(-2.77839e-05 8.52127e-05 0)
(-2.61572e-05 7.44509e-05 0)
(-2.47314e-05 6.42985e-05 0)
(-2.34993e-05 5.46768e-05 0)
(-2.24548e-05 4.55095e-05 0)
(-2.15925e-05 3.67229e-05 0)
(-2.0908e-05 2.8245e-05 0)
(-2.03977e-05 2.00057e-05 0)
(-2.0059e-05 1.19359e-05 0)
(-1.98901e-05 3.96739e-06 0)
(0.00496785 0.00180171 0)
(0.00445803 0.00314493 0)
(0.00397563 0.00434649 0)
(0.00352052 0.0054143 0)
(0.00309254 0.00635611 0)
(0.00269122 0.00717961 0)
(0.0023161 0.00789235 0)
(0.0019667 0.00850174 0)
(0.00164215 0.00901499 0)
(0.00134165 0.00943909 0)
(0.00106444 0.00978082 0)
(0.000809696 0.0100467 0)
(0.000576486 0.010243 0)
(0.000363833 0.0103758 0)
(0.000170743 0.0104507 0)
(-3.77665e-06 0.0104733 0)
(-0.000160713 0.0104486 0)
(-0.000301047 0.0103815 0)
(-0.000425749 0.0102767 0)
(-0.000535778 0.0101385 0)
(-0.000632076 0.00997089 0)
(-0.000715563 0.00977769 0)
(-0.000787135 0.00956242 0)
(-0.000847663 0.00932837 0)
(-0.000897984 0.00907855 0)
(-0.000938905 0.00881577 0)
(-0.0009712 0.0085426 0)
(-0.000995609 0.00826138 0)
(-0.00101283 0.00797427 0)
(-0.00102355 0.00768322 0)
(-0.00102838 0.00739 0)
(-0.00102793 0.00709619 0)
(-0.00102276 0.00680323 0)
(-0.0010134 0.00651237 0)
(-0.00100034 0.00622475 0)
(-0.000984042 0.00594135 0)
(-0.000964939 0.00566303 0)
(-0.000943426 0.00539054 0)
(-0.000919871 0.0051245 0)
(-0.000894612 0.00486545 0)
(-0.000867961 0.00461383 0)
(-0.000840202 0.00436999 0)
(-0.000811595 0.00413421 0)
(-0.000782375 0.00390671 0)
(-0.000752755 0.00368761 0)
(-0.000722927 0.00347701 0)
(-0.000693062 0.00327494 0)
(-0.000663314 0.00308139 0)
(-0.000633817 0.00289631 0)
(-0.000604691 0.00271959 0)
(-0.000576038 0.00255113 0)
(-0.000547949 0.00239077 0)
(-0.0005205 0.00223835 0)
(-0.000493755 0.00209366 0)
(-0.000467768 0.0019565 0)
(-0.000442583 0.00182664 0)
(-0.000418233 0.00170386 0)
(-0.000394746 0.0015879 0)
(-0.000372138 0.00147852 0)
(-0.000350423 0.00137547 0)
(-0.000329605 0.00127849 0)
(-0.000309685 0.00118733 0)
(-0.000290659 0.00110172 0)
(-0.000272519 0.00102141 0)
(-0.000255251 0.000946154 0)
(-0.000238842 0.000875704 0)
(-0.000223272 0.000809816 0)
(-0.000208522 0.000748254 0)
(-0.00019457 0.000690786 0)
(-0.000181392 0.000637188 0)
(-0.000168963 0.000587242 0)
(-0.000157259 0.000540738 0)
(-0.000146253 0.000497474 0)
(-0.000135918 0.000457253 0)
(-0.000126228 0.000419888 0)
(-0.000117157 0.000385198 0)
(-0.000108677 0.000353011 0)
(-0.000100763 0.000323162 0)
(-9.33898e-05 0.000295493 0)
(-8.6532e-05 0.000269852 0)
(-8.01656e-05 0.000246098 0)
(-7.42673e-05 0.000224092 0)
(-6.88147e-05 0.000203704 0)
(-6.37863e-05 0.00018481 0)
(-5.91618e-05 0.000167293 0)
(-5.49216e-05 0.000151039 0)
(-5.10476e-05 0.000135942 0)
(-4.75226e-05 0.000121899 0)
(-4.43307e-05 0.000108814 0)
(-4.14569e-05 9.65941e-05 0)
(-3.88879e-05 8.51496e-05 0)
(-3.66111e-05 7.43958e-05 0)
(-3.46154e-05 6.42509e-05 0)
(-3.2891e-05 5.46363e-05 0)
(-3.1429e-05 4.54758e-05 0)
(-3.02221e-05 3.66957e-05 0)
(-2.9264e-05 2.82241e-05 0)
(-2.85498e-05 1.99909e-05 0)
(-2.80757e-05 1.19271e-05 0)
(-2.78393e-05 3.96445e-06 0)
(0.00638516 0.00179991 0)
(0.00572988 0.0031418 0)
(0.00510984 0.0043422 0)
(0.00452489 0.00540895 0)
(0.00397482 0.00634983 0)
(0.00345901 0.00717253 0)
(0.00297687 0.00788456 0)
(0.00252778 0.00849334 0)
(0.00211062 0.00900608 0)
(0.0017244 0.00942976 0)
(0.00136812 0.00977116 0)
(0.0010407 0.0100368 0)
(0.000740961 0.0102329 0)
(0.000467637 0.0103656 0)
(0.000219456 0.0104404 0)
(-4.85501e-06 0.0104629 0)
(-0.000206565 0.0104383 0)
(-0.000386935 0.0103713 0)
(-0.000547213 0.0102666 0)
(-0.000688632 0.0101285 0)
(-0.000812402 0.00996104 0)
(-0.000919707 0.00976803 0)
(-0.0010117 0.00955297 0)
(-0.00108949 0.00931915 0)
(-0.00115417 0.00906958 0)
(-0.00120677 0.00880706 0)
(-0.00124828 0.00853416 0)
(-0.00127965 0.00825322 0)
(-0.00130179 0.00796639 0)
(-0.00131556 0.00767563 0)
(-0.00132177 0.0073827 0)
(-0.00132119 0.00708918 0)
(-0.00131454 0.00679651 0)
(-0.00130251 0.00650594 0)
(-0.00128573 0.0062186 0)
(-0.00126478 0.00593548 0)
(-0.00124023 0.00565744 0)
(-0.00121258 0.00538521 0)
(-0.0011823 0.00511943 0)
(-0.00114984 0.00486064 0)
(-0.00111558 0.00460927 0)
(-0.0010799 0.00436567 0)
(-0.00104314 0.00413013 0)
(-0.00100558 0.00390285 0)
(-0.000967509 0.00368397 0)
(-0.000929172 0.00347358 0)
(-0.000890787 0.00327171 0)
(-0.000852552 0.00307835 0)
(-0.00081464 0.00289344 0)
(-0.000777203 0.00271691 0)
(-0.000740376 0.00254861 0)
(-0.000704274 0.00238841 0)
(-0.000668993 0.00223613 0)
(-0.000634619 0.00209159 0)
(-0.000601218 0.00195456 0)
(-0.000568848 0.00182484 0)
(-0.000537552 0.00170217 0)
(-0.000507363 0.00158633 0)
(-0.000478306 0.00147706 0)
(-0.000450395 0.00137411 0)
(-0.000423638 0.00127723 0)
(-0.000398036 0.00118615 0)
(-0.000373582 0.00110063 0)
(-0.000350266 0.0010204 0)
(-0.000328072 0.000945219 0)
(-0.000306981 0.000874839 0)
(-0.000286969 0.000809016 0)
(-0.000268011 0.000747515 0)
(-0.000250079 0.000690103 0)
(-0.000233141 0.000636558 0)
(-0.000217167 0.000586662 0)
(-0.000202124 0.000540204 0)
(-0.000187978 0.000496982 0)
(-0.000174694 0.000456801 0)
(-0.00016224 0.000419473 0)
(-0.00015058 0.000384818 0)
(-0.000139682 0.000352663 0)
(-0.00012951 0.000322843 0)
(-0.000120033 0.000295201 0)
(-0.000111219 0.000269586 0)
(-0.000103036 0.000245855 0)
(-9.54551e-05 0.00022387 0)
(-8.84469e-05 0.000203503 0)
(-8.1984e-05 0.000184628 0)
(-7.60401e-05 0.000167127 0)
(-7.05903e-05 0.00015089 0)
(-6.5611e-05 0.000135808 0)
(-6.10804e-05 0.000121779 0)
(-5.69778e-05 0.000108707 0)
(-5.32842e-05 9.64988e-05 0)
(-4.99823e-05 8.50656e-05 0)
(-4.70559e-05 7.43224e-05 0)
(-4.44909e-05 6.41875e-05 0)
(-4.22745e-05 5.45824e-05 0)
(-4.03954e-05 4.54309e-05 0)
(-3.88442e-05 3.66595e-05 0)
(-3.76128e-05 2.81963e-05 0)
(-3.66948e-05 1.99712e-05 0)
(-3.60855e-05 1.19153e-05 0)
(-3.57816e-05 3.96054e-06 0)
(0.00780088 0.00179769 0)
(0.00700031 0.00313791 0)
(0.00624279 0.00433683 0)
(0.00552816 0.00540228 0)
(0.00485612 0.00634199 0)
(0.00422594 0.00716367 0)
(0.00363691 0.00787481 0)
(0.00308823 0.00848284 0)
(0.00257858 0.00899495 0)
(0.00210673 0.00941811 0)
(0.00167146 0.00975908 0)
(0.00127146 0.0100244 0)
(0.000905255 0.0102203 0)
(0.000571325 0.0103528 0)
(0.000268115 0.0104275 0)
(-5.93259e-06 0.01045 0)
(-0.000252367 0.0104254 0)
(-0.000472728 0.0103585 0)
(-0.000668543 0.0102539 0)
(-0.000841316 0.010116 0)
(-0.000992528 0.00994873 0)
(-0.00112362 0.00975596 0)
(-0.00123601 0.00954117 0)
(-0.00133106 0.00930764 0)
(-0.00141007 0.00905838 0)
(-0.00147433 0.00879618 0)
(-0.00152504 0.00852361 0)
(-0.00156337 0.00824302 0)
(-0.00159042 0.00795655 0)
(-0.00160724 0.00766615 0)
(-0.00161483 0.00737358 0)
(-0.00161412 0.00708043 0)
(-0.001606 0.00678811 0)
(-0.0015913 0.0064979 0)
(-0.0015708 0.00621092 0)
(-0.00154521 0.00592815 0)
(-0.00151521 0.00565045 0)
(-0.00148143 0.00537856 0)
(-0.00144444 0.00511311 0)
(-0.00140478 0.00485464 0)
(-0.00136293 0.00460357 0)
(-0.00131934 0.00436028 0)
(-0.00127442 0.00412503 0)
(-0.00122854 0.00389803 0)
(-0.00118202 0.00367942 0)
(-0.00113519 0.00346929 0)
(-0.00108829 0.00326767 0)
(-0.00104158 0.00307455 0)
(-0.000995261 0.00288987 0)
(-0.000949525 0.00271355 0)
(-0.000904532 0.00254546 0)
(-0.000860425 0.00238546 0)
(-0.000817322 0.00223337 0)
(-0.000775326 0.002089 0)
(-0.00073452 0.00195215 0)
(-0.000694972 0.00182258 0)
(-0.000656737 0.00170007 0)
(-0.000619855 0.00158437 0)
(-0.000584355 0.00147524 0)
(-0.000550256 0.00137242 0)
(-0.000517567 0.00127565 0)
(-0.000486288 0.00118469 0)
(-0.000456412 0.00109927 0)
(-0.000427927 0.00101914 0)
(-0.000400812 0.000944052 0)
(-0.000375045 0.000873758 0)
(-0.000350596 0.000808017 0)
(-0.000327435 0.000746591 0)
(-0.000305526 0.000689251 0)
(-0.000284833 0.000635772 0)
(-0.000265317 0.000585937 0)
(-0.000246939 0.000539537 0)
(-0.000229656 0.000496369 0)
(-0.000213428 0.000456237 0)
(-0.000198212 0.000418955 0)
(-0.000183967 0.000384342 0)
(-0.000170652 0.000352227 0)
(-0.000158225 0.000322444 0)
(-0.000146647 0.000294836 0)
(-0.000135878 0.000269253 0)
(-0.000125881 0.000245551 0)
(-0.000116619 0.000223594 0)
(-0.000108057 0.000203251 0)
(-0.000100161 0.0001844 0)
(-9.28997e-05 0.000166921 0)
(-8.62415e-05 0.000150703 0)
(-8.01583e-05 0.00013564 0)
(-7.46231e-05 0.000121629 0)
(-6.96109e-05 0.000108573 0)
(-6.50984e-05 9.63796e-05 0)
(-6.10643e-05 8.49605e-05 0)
(-5.74892e-05 7.42306e-05 0)
(-5.43554e-05 6.41082e-05 0)
(-5.16476e-05 5.4515e-05 0)
(-4.93519e-05 4.53748e-05 0)
(-4.74567e-05 3.66142e-05 0)
(-4.59523e-05 2.81615e-05 0)
(-4.48308e-05 1.99465e-05 0)
(-4.40864e-05 1.19006e-05 0)
(-4.37151e-05 3.95565e-06 0)
(0.00921468 0.00179503 0)
(0.00826902 0.00313326 0)
(0.0073742 0.0043304 0)
(0.00653005 0.00539426 0)
(0.00573621 0.00633258 0)
(0.00499183 0.00715304 0)
(0.00429605 0.00786313 0)
(0.00364791 0.00847025 0)
(0.00304589 0.0089816 0)
(0.00248854 0.00940413 0)
(0.0019744 0.0097446 0)
(0.0015019 0.0100095 0)
(0.00106933 0.0102051 0)
(0.000674873 0.0103374 0)
(0.000316707 0.010412 0)
(-7.00909e-06 0.0104345 0)
(-0.000298107 0.0104099 0)
(-0.000558405 0.0103431 0)
(-0.000789708 0.0102387 0)
(-0.000993794 0.010101 0)
(-0.00117241 0.00993397 0)
(-0.00132726 0.00974148 0)
(-0.00146002 0.00952702 0)
(-0.00157229 0.00929383 0)
(-0.00166563 0.00904493 0)
(-0.00174153 0.00878313 0)
(-0.00180143 0.00851096 0)
(-0.00184671 0.00823079 0)
(-0.00187866 0.00794475 0)
(-0.00189853 0.00765477 0)
(-0.00190749 0.00736264 0)
(-0.00190666 0.00706992 0)
(-0.00189707 0.00677804 0)
(-0.0018797 0.00648826 0)
(-0.00185548 0.0062017 0)
(-0.00182525 0.00591935 0)
(-0.00178982 0.00564206 0)
(-0.00174992 0.00537058 0)
(-0.00170622 0.00510552 0)
(-0.00165937 0.00484743 0)
(-0.00160994 0.00459674 0)
(-0.00155845 0.00435381 0)
(-0.00150539 0.00411891 0)
(-0.00145119 0.00389224 0)
(-0.00139625 0.00367396 0)
(-0.00134092 0.00346414 0)
(-0.00128553 0.00326282 0)
(-0.00123035 0.00306998 0)
(-0.00117564 0.00288558 0)
(-0.00112161 0.00270952 0)
(-0.00106846 0.00254168 0)
(-0.00101636 0.00238192 0)
(-0.000965449 0.00223006 0)
(-0.000915842 0.0020859 0)
(-0.00086764 0.00194925 0)
(-0.000820926 0.00181988 0)
(-0.000775761 0.00169755 0)
(-0.000732194 0.00158202 0)
(-0.000690261 0.00147305 0)
(-0.000649982 0.00137038 0)
(-0.000611368 0.00127376 0)
(-0.00057442 0.00118293 0)
(-0.00053913 0.00109764 0)
(-0.000505482 0.00101763 0)
(-0.000473453 0.000942651 0)
(-0.000443016 0.000872462 0)
(-0.000414136 0.000806818 0)
(-0.000386777 0.000745483 0)
(-0.000360898 0.000688228 0)
(-0.000336455 0.000634829 0)
(-0.000313402 0.000585068 0)
(-0.000291693 0.000538737 0)
(-0.000271278 0.000495632 0)
(-0.000252108 0.00045556 0)
(-0.000234135 0.000418333 0)
(-0.000217308 0.000383772 0)
(-0.00020158 0.000351704 0)
(-0.000186901 0.000321966 0)
(-0.000173224 0.000294399 0)
(-0.000160504 0.000268854 0)
(-0.000148695 0.000245187 0)
(-0.000137755 0.000223262 0)
(-0.000127641 0.00020295 0)
(-0.000118314 0.000184126 0)
(-0.000109736 0.000166673 0)
(-0.000101871 0.00015048 0)
(-9.46858e-05 0.000135439 0)
(-8.81474e-05 0.000121448 0)
(-8.22268e-05 0.000108412 0)
(-7.68965e-05 9.62367e-05 0)
(-7.21313e-05 8.48345e-05 0)
(-6.79082e-05 7.41205e-05 0)
(-6.42065e-05 6.40132e-05 0)
(-6.10079e-05 5.44341e-05 0)
(-5.82962e-05 4.53075e-05 0)
(-5.60575e-05 3.65599e-05 0)
(-5.42805e-05 2.81197e-05 0)
(-5.29557e-05 1.99169e-05 0)
(-5.20764e-05 1.18829e-05 0)
(-5.16379e-05 3.94979e-06 0)
(0.0106262 0.00179193 0)
(0.00953568 0.00312783 0)
(0.0085038 0.0043229 0)
(0.00753034 0.00538492 0)
(0.00661489 0.00632161 0)
(0.00575648 0.00714064 0)
(0.00495413 0.0078495 0)
(0.0042067 0.00845557 0)
(0.00351246 0.00896603 0)
(0.00286973 0.00938784 0)
(0.00227684 0.00972772 0)
(0.00173197 0.00999217 0)
(0.00123313 0.0101874 0)
(0.000778255 0.0103195 0)
(0.000365221 0.010394 0)
(-8.0842e-06 0.0104164 0)
(-0.000343773 0.0103919 0)
(-0.000643945 0.0103252 0)
(-0.000910678 0.0102209 0)
(-0.00114603 0.0100835 0)
(-0.001352 0.00991676 0)
(-0.00153058 0.0097246 0)
(-0.00168367 0.00951051 0)
(-0.00181314 0.00927772 0)
(-0.00192077 0.00902926 0)
(-0.0020083 0.00876791 0)
(-0.00207738 0.00849622 0)
(-0.00212959 0.00821653 0)
(-0.00216644 0.00793098 0)
(-0.00218935 0.00764151 0)
(-0.00219968 0.00734988 0)
(-0.00219872 0.00705767 0)
(-0.00218766 0.00676629 0)
(-0.00216764 0.00647702 0)
(-0.0021397 0.00619096 0)
(-0.00210485 0.00590909 0)
(-0.00206399 0.00563229 0)
(-0.00201797 0.00536127 0)
(-0.00196759 0.00509668 0)
(-0.00191356 0.00483903 0)
(-0.00185655 0.00458878 0)
(-0.00179718 0.00434626 0)
(-0.00173599 0.00411177 0)
(-0.00167348 0.0038855 0)
(-0.00161013 0.00366759 0)
(-0.00154633 0.00345814 0)
(-0.00148245 0.00325716 0)
(-0.00141882 0.00306466 0)
(-0.00135572 0.00288058 0)
(-0.00129342 0.00270483 0)
(-0.00123213 0.00253728 0)
(-0.00117205 0.00237779 0)
(-0.00111334 0.00222619 0)
(-0.00105613 0.00208229 0)
(-0.00100055 0.00194587 0)
(-0.000946676 0.00181672 0)
(-0.000894593 0.00169461 0)
(-0.000844353 0.00157928 0)
(-0.000795996 0.0014705 0)
(-0.000749547 0.00136801 0)
(-0.000705018 0.00127155 0)
(-0.000662411 0.00118088 0)
(-0.000621715 0.00109573 0)
(-0.000582913 0.00101586 0)
(-0.000545978 0.000941018 0)
(-0.000510878 0.00087095 0)
(-0.000477574 0.00080542 0)
(-0.000446024 0.000744192 0)
(-0.000416181 0.000687036 0)
(-0.000387993 0.000633729 0)
(-0.00036141 0.000584054 0)
(-0.000336374 0.000537803 0)
(-0.000312832 0.000494774 0)
(-0.000290726 0.000454771 0)
(-0.00027 0.000417609 0)
(-0.000250596 0.000383107 0)
(-0.000232458 0.000351095 0)
(-0.000215531 0.000321408 0)
(-0.000199759 0.000293889 0)
(-0.00018509 0.000268388 0)
(-0.000171473 0.000244762 0)
(-0.000158856 0.000222875 0)
(-0.000147193 0.000202598 0)
(-0.000136438 0.000183807 0)
(-0.000126546 0.000166385 0)
(-0.000117476 0.000150219 0)
(-0.00010919 0.000135204 0)
(-0.00010165 0.000121238 0)
(-9.48225e-05 0.000108224 0)
(-8.86757e-05 9.607e-05 0)
(-8.31805e-05 8.46876e-05 0)
(-7.83105e-05 7.39921e-05 0)
(-7.40418e-05 6.39023e-05 0)
(-7.03532e-05 5.43398e-05 0)
(-6.72261e-05 4.5229e-05 0)
(-6.46445e-05 3.64966e-05 0)
(-6.25952e-05 2.8071e-05 0)
(-6.10676e-05 1.98825e-05 0)
(-6.00535e-05 1.18623e-05 0)
(-5.95479e-05 3.94295e-06 0)
(0.0120351 0.00178838 0)
(0.0108 0.00312163 0)
(0.00963129 0.00431433 0)
(0.00852876 0.00537424 0)
(0.00749193 0.00630908 0)
(0.00651972 0.00712648 0)
(0.00561098 0.00783393 0)
(0.00476445 0.00843881 0)
(0.00397816 0.00894826 0)
(0.00325022 0.00936923 0)
(0.00257873 0.00970844 0)
(0.00196162 0.00997237 0)
(0.00139664 0.0101672 0)
(0.000881445 0.010299 0)
(0.000413645 0.0103734 0)
(-9.15766e-06 0.0103958 0)
(-0.000389355 0.0103713 0)
(-0.000729326 0.0103047 0)
(-0.00103142 0.0102007 0)
(-0.00129798 0.0100635 0)
(-0.00153126 0.0098971 0)
(-0.00173351 0.00970533 0)
(-0.0019069 0.00949165 0)
(-0.00205354 0.00925933 0)
(-0.00217544 0.00901136 0)
(-0.00227458 0.00875053 0)
(-0.00235281 0.00847937 0)
(-0.00241194 0.00820024 0)
(-0.00245368 0.00791526 0)
(-0.00247963 0.00762636 0)
(-0.00249133 0.00733531 0)
(-0.00249024 0.00704368 0)
(-0.00247772 0.00675288 0)
(-0.00245504 0.00646418 0)
(-0.0024234 0.00617868 0)
(-0.00238392 0.00589738 0)
(-0.00233764 0.00562112 0)
(-0.00228553 0.00535064 0)
(-0.00222846 0.00508657 0)
(-0.00216727 0.00482944 0)
(-0.00210271 0.00457968 0)
(-0.00203546 0.00433765 0)
(-0.00196615 0.00410362 0)
(-0.00189537 0.00387779 0)
(-0.00182361 0.00366032 0)
(-0.00175135 0.00345128 0)
(-0.001679 0.00325071 0)
(-0.00160693 0.00305859 0)
(-0.00153547 0.00287487 0)
(-0.00146491 0.00269946 0)
(-0.0013955 0.00253225 0)
(-0.00132745 0.00237308 0)
(-0.00126095 0.00222178 0)
(-0.00119616 0.00207816 0)
(-0.00113321 0.00194202 0)
(-0.00107219 0.00181312 0)
(-0.0010132 0.00169125 0)
(-0.000956303 0.00157615 0)
(-0.000901535 0.00146758 0)
(-0.000848927 0.00136529 0)
(-0.000798495 0.00126903 0)
(-0.000750238 0.00117854 0)
(-0.000704146 0.00109356 0)
(-0.000660199 0.00101385 0)
(-0.000618367 0.000939152 0)
(-0.000578613 0.000869224 0)
(-0.000540894 0.000803823 0)
(-0.000505161 0.000742717 0)
(-0.000471361 0.000685674 0)
(-0.000439436 0.000632473 0)
(-0.000409328 0.000582897 0)
(-0.000380973 0.000536737 0)
(-0.00035431 0.000493793 0)
(-0.000329273 0.00045387 0)
(-0.000305799 0.000416781 0)
(-0.000283822 0.000382348 0)
(-0.000263279 0.000350399 0)
(-0.000244107 0.000320771 0)
(-0.000226245 0.000293306 0)
(-0.000209631 0.000267856 0)
(-0.000194208 0.000244277 0)
(-0.000179919 0.000222434 0)
(-0.000166709 0.000202197 0)
(-0.000154528 0.000183443 0)
(-0.000143324 0.000166055 0)
(-0.000133052 0.000149921 0)
(-0.000123667 0.000134936 0)
(-0.000115128 0.000120998 0)
(-0.000107395 0.00010801 0)
(-0.000100433 9.58796e-05 0)
(-9.42092e-05 8.45198e-05 0)
(-8.86935e-05 7.38455e-05 0)
(-8.38588e-05 6.37757e-05 0)
(-7.96811e-05 5.42322e-05 0)
(-7.61394e-05 4.51394e-05 0)
(-7.32156e-05 3.64243e-05 0)
(-7.08946e-05 2.80154e-05 0)
(-6.91644e-05 1.98431e-05 0)
(-6.80159e-05 1.18388e-05 0)
(-6.74432e-05 3.93513e-06 0)
(0.013441 0.00178438 0)
(0.0120616 0.00311466 0)
(0.0107564 0.00430469 0)
(0.00952509 0.00536224 0)
(0.00836713 0.00629498 0)
(0.00728134 0.00711056 0)
(0.00626645 0.00781644 0)
(0.00532102 0.00841996 0)
(0.00444288 0.00892827 0)
(0.00362991 0.00934831 0)
(0.00287998 0.00968676 0)
(0.00219078 0.0099501 0)
(0.0015598 0.0101445 0)
(0.000984417 0.010276 0)
(0.000461967 0.0103502 0)
(-1.02292e-05 0.0103726 0)
(-0.000434842 0.0103481 0)
(-0.000814527 0.0102817 0)
(-0.00115192 0.0101779 0)
(-0.00144961 0.010041 0)
(-0.00171014 0.009875 0)
(-0.00193602 0.00968365 0)
(-0.00212967 0.00947046 0)
(-0.00229343 0.00923865 0)
(-0.00242957 0.00899124 0)
(-0.00254029 0.00873098 0)
(-0.00262767 0.00846044 0)
(-0.00269371 0.00818193 0)
(-0.00274031 0.00789758 0)
(-0.0027693 0.00760933 0)
(-0.00278237 0.00731893 0)
(-0.00278115 0.00702795 0)
(-0.00276716 0.0067378 0)
(-0.00274183 0.00644974 0)
(-0.0027065 0.00616488 0)
(-0.00266241 0.00588421 0)
(-0.00261072 0.00560857 0)
(-0.00255252 0.00533869 0)
(-0.00248879 0.00507521 0)
(-0.00242045 0.00481865 0)
(-0.00234834 0.00456945 0)
(-0.00227324 0.00432796 0)
(-0.00219584 0.00409445 0)
(-0.00211678 0.00386913 0)
(-0.00203664 0.00365215 0)
(-0.00195594 0.00344357 0)
(-0.00187514 0.00324345 0)
(-0.00179465 0.00305176 0)
(-0.00171485 0.00286845 0)
(-0.00163604 0.00269344 0)
(-0.00155852 0.0025266 0)
(-0.00148252 0.00236778 0)
(-0.00140826 0.00221682 0)
(-0.0013359 0.00207352 0)
(-0.00126559 0.00193768 0)
(-0.00119745 0.00180907 0)
(-0.00113157 0.00168747 0)
(-0.00106802 0.00157263 0)
(-0.00100685 0.00146431 0)
(-0.000948098 0.00136225 0)
(-0.000891774 0.0012662 0)
(-0.00083788 0.00117591 0)
(-0.000786404 0.00109112 0)
(-0.000737323 0.00101159 0)
(-0.000690604 0.000937055 0)
(-0.000646206 0.000867283 0)
(-0.000604081 0.000802029 0)
(-0.000564174 0.000741058 0)
(-0.000526425 0.000684143 0)
(-0.000490771 0.00063106 0)
(-0.000457145 0.000581595 0)
(-0.000425478 0.000535539 0)
(-0.0003957 0.00049269 0)
(-0.000367738 0.000452856 0)
(-0.000341522 0.00041585 0)
(-0.000316978 0.000381494 0)
(-0.000294035 0.000349617 0)
(-0.000272623 0.000320055 0)
(-0.000252674 0.000292652 0)
(-0.00023412 0.000267258 0)
(-0.000216895 0.000243732 0)
(-0.000200937 0.000221937 0)
(-0.000186184 0.000201745 0)
(-0.000172579 0.000183033 0)
(-0.000160067 0.000165684 0)
(-0.000148595 0.000149587 0)
(-0.000138114 0.000134635 0)
(-0.000128577 0.000120728 0)
(-0.00011994 0.000107768 0)
(-0.000112165 9.56656e-05 0)
(-0.000105215 8.43311e-05 0)
(-9.90546e-05 7.36806e-05 0)
(-9.36551e-05 6.36333e-05 0)
(-8.89894e-05 5.41111e-05 0)
(-8.5034e-05 4.50387e-05 0)
(-8.17686e-05 3.6343e-05 0)
(-7.91764e-05 2.79528e-05 0)
(-7.72441e-05 1.97988e-05 0)
(-7.59615e-05 1.18124e-05 0)
(-7.53218e-05 3.92635e-06 0)
(0.0148436 0.00177995 0)
(0.0133203 0.00310692 0)
(0.0118789 0.00429399 0)
(0.0105191 0.00534891 0)
(0.00924026 0.00627934 0)
(0.00804117 0.00709289 0)
(0.00692038 0.00779702 0)
(0.00587628 0.00839904 0)
(0.00490651 0.00890609 0)
(0.00400871 0.00932508 0)
(0.00318052 0.00966269 0)
(0.0024194 0.00992538 0)
(0.00172257 0.0101193 0)
(0.00108715 0.0102505 0)
(0.000510174 0.0103245 0)
(-1.12985e-05 0.0103468 0)
(-0.000480222 0.0103224 0)
(-0.000899528 0.0102561 0)
(-0.00127213 0.0101526 0)
(-0.00160088 0.010016 0)
(-0.0018886 0.00985046 0)
(-0.00213805 0.00965959 0)
(-0.00235191 0.00944692 0)
(-0.00253275 0.00921569 0)
(-0.00268311 0.0089689 0)
(-0.00280538 0.00870929 0)
(-0.00290187 0.00843941 0)
(-0.0029748 0.00816159 0)
(-0.00302627 0.00787795 0)
(-0.00305828 0.00759042 0)
(-0.00307272 0.00730074 0)
(-0.00307137 0.00701048 0)
(-0.00305592 0.00672105 0)
(-0.00302795 0.00643371 0)
(-0.00298893 0.00614956 0)
(-0.00294024 0.00586959 0)
(-0.00288316 0.00559463 0)
(-0.00281888 0.00532542 0)
(-0.0027485 0.0050626 0)
(-0.00267303 0.00480668 0)
(-0.0025934 0.0045581 0)
(-0.00251046 0.00431721 0)
(-0.00242498 0.00408428 0)
(-0.00233767 0.00385952 0)
(-0.00224917 0.00364307 0)
(-0.00216005 0.00343502 0)
(-0.00207082 0.00323539 0)
(-0.00198193 0.00304417 0)
(-0.0018938 0.00286132 0)
(-0.00180677 0.00268674 0)
(-0.00172116 0.00252032 0)
(-0.00163723 0.0023619 0)
(-0.00155521 0.00221131 0)
(-0.0014753 0.00206837 0)
(-0.00139765 0.00193286 0)
(-0.0013224 0.00180458 0)