/*--------------------------------*- C++ -*----------------------------------*\
| =========                 |                                                 |
| \\      /  F ield         | OpenFOAM: The Open Source CFD Toolbox           |
|  \\    /   O peration     | Version:  2406                                  |
|   \\  /    A nd           | Website:  www.openfoam.com                      |
|    \\/     M anipulation  |                                                 |
\*---------------------------------------------------------------------------*/
FoamFile
{
    version     2.0;
    format      ascii;
    arch        "LSB;label=32;scalar=64";
    class       volScalarField;
    location    "65";
    object      T;
}
// * * * * * * * * * * * * * * * * * * * * * * * * * * * * * * * * * * * * * //

dimensions      [0 0 0 1 0 0 0];

internalField   nonuniform List<scalar> 
20000
(
300.814
300.78
300.747
300.714
300.682
300.651
300.621
300.592
300.563
300.536
300.509
300.484
300.459
300.436
300.413
300.391
300.37
300.35
300.33
300.312
300.294
300.277
300.261
300.246
300.232
300.218
300.204
300.192
300.18
300.169
300.158
300.148
300.139
300.13
300.121
300.113
300.106
300.098
300.092
300.085
300.08
300.074
300.069
300.064
300.059
300.055
300.051
300.047
300.044
300.041
300.038
300.035
300.032
300.03
300.027
300.025
300.023
300.021
300.02
300.018
300.017
300.015
300.014
300.013
300.012
300.011
300.01
300.009
300.008
300.008
300.007
300.006
300.006
300.005
300.005
300.004
300.004
300.004
300.003
300.003
300.003
300.002
300.002
300.002
300.002
300.002
300.001
300.001
300.001
300.001
300.001
300.001
300.001
300.001
300
300
300
300
300
300
302.443
302.34
302.24
302.141
302.046
301.953
301.862
301.775
301.69
301.608
301.528
301.451
301.378
301.306
301.238
301.172
301.109
301.049
300.991
300.936
300.883
300.832
300.784
300.738
300.694
300.653
300.613
300.576
300.54
300.507
300.475
300.444
300.416
300.389
300.363
300.339
300.317
300.295
300.275
300.256
300.239
300.222
300.206
300.192
300.178
300.165
300.153
300.142
300.131
300.122
300.113
300.104
300.096
300.089
300.082
300.075
300.07
300.064
300.059
300.054
300.05
300.046
300.042
300.039
300.035
300.032
300.03
300.027
300.025
300.023
300.021
300.019
300.017
300.016
300.014
300.013
300.012
300.011
300.01
300.009
300.008
300.007
300.007
300.006
300.005
300.005
300.004
300.004
300.003
300.003
300.003
300.002
300.002
300.002
300.001
300.001
300.001
300.001
300
300
304.071
303.9
303.732
303.568
303.409
303.254
303.103
302.957
302.816
302.679
302.546
302.419
302.296
302.177
302.063
301.954
301.849
301.748
301.651
301.559
301.471
301.387
301.307
301.23
301.157
301.088
301.022
300.96
300.9
300.844
300.791
300.741
300.693
300.648
300.606
300.565
300.528
300.492
300.459
300.427
300.398
300.37
300.344
300.319
300.297
300.275
300.255
300.236
300.219
300.203
300.187
300.173
300.16
300.148
300.136
300.126
300.116
300.107
300.098
300.09
300.083
300.076
300.07
300.064
300.059
300.054
300.049
300.045
300.041
300.038
300.035
300.032
300.029
300.026
300.024
300.022
300.02
300.018
300.016
300.015
300.013
300.012
300.011
300.01
300.009
300.008
300.007
300.006
300.006
300.005
300.004
300.004
300.003
300.003
300.002
300.002
300.001
300.001
300.001
300
305.698
305.458
305.224
304.995
304.772
304.555
304.344
304.139
303.941
303.749
303.564
303.385
303.213
303.047
302.888
302.734
302.587
302.446
302.311
302.182
302.059
301.941
301.829
301.722
301.62
301.523
301.431
301.343
301.26
301.182
301.107
301.037
300.97
300.907
300.848
300.791
300.739
300.689
300.642
300.598
300.557
300.518
300.481
300.447
300.415
300.385
300.357
300.331
300.307
300.284
300.262
300.243
300.224
300.207
300.191
300.176
300.162
300.149
300.137
300.126
300.116
300.107
300.098
300.09
300.082
300.076
300.069
300.063
300.058
300.053
300.048
300.044
300.04
300.037
300.033
300.03
300.028
300.025
300.023
300.021
300.019
300.017
300.015
300.014
300.012
300.011
300.01
300.009
300.008
300.007
300.006
300.005
300.005
300.004
300.003
300.003
300.002
300.001
300.001
300
307.323
307.015
306.714
306.42
306.133
305.854
305.583
305.32
305.065
304.819
304.581
304.351
304.13
303.917
303.711
303.514
303.325
303.144
302.971
302.805
302.646
302.495
302.351
302.213
302.082
301.957
301.839
301.726
301.62
301.519
301.423
301.332
301.247
301.166
301.089
301.017
300.949
300.885
300.825
300.769
300.715
300.665
300.619
300.575
300.534
300.495
300.459
300.425
300.394
300.365
300.337
300.312
300.288
300.266
300.245
300.226
300.208
300.192
300.177
300.162
300.149
300.137
300.126
300.116
300.106
300.097
300.089
300.081
300.074
300.068
300.062
300.057
300.052
300.047
300.043
300.039
300.036
300.032
300.029
300.027
300.024
300.022
300.02
300.018
300.016
300.014
300.013
300.011
300.01
300.009
300.008
300.007
300.006
300.005
300.004
300.003
300.003
300.002
300.001
300
308.947
308.571
308.202
307.843
307.493
307.152
306.821
306.5
306.189
305.888
305.597
305.316
305.045
304.785
304.534
304.294
304.063
303.841
303.63
303.427
303.233
303.048
302.872
302.704
302.544
302.391
302.247
302.109
301.979
301.855
301.738
301.628
301.523
301.424
301.331
301.243
301.16
301.082
301.008
300.939
300.874
300.813
300.756
300.702
300.652
300.605
300.561
300.52
300.481
300.445
300.412
300.381
300.352
300.325
300.3
300.276
300.255
300.235
300.216
300.199
300.182
300.168
300.154
300.141
300.129
300.119
300.109
300.099
300.091
300.083
300.076
300.069
300.063
300.058
300.052
300.048
300.043
300.039
300.036
300.032
300.029
300.027
300.024
300.022
300.019
300.017
300.016
300.014
300.012
300.011
300.01
300.008
300.007
300.006
300.005
300.004
300.003
300.002
300.001
300
310.569
310.124
309.689
309.264
308.851
308.448
308.057
307.678
307.31
306.955
306.611
306.279
305.96
305.652
305.356
305.072
304.799
304.538
304.287
304.048
303.819
303.601
303.392
303.194
303.005
302.825
302.654
302.492
302.338
302.192
302.053
301.923
301.799
301.682
301.572
301.468
301.37
301.278
301.191
301.109
301.032
300.96
300.893
300.829
300.77
300.715
300.663
300.614
300.569
300.526
300.487
300.45
300.416
300.384
300.354
300.326
300.301
300.277
300.255
300.234
300.216
300.198
300.182
300.167
300.153
300.14
300.128
300.117
300.107
300.098
300.09
300.082
300.075
300.068
300.062
300.056
300.051
300.047
300.042
300.038
300.035
300.031
300.028
300.026
300.023
300.021
300.018
300.016
300.015
300.013
300.011
300.01
300.009
300.007
300.006
300.005
300.004
300.003
300.002
300.001
312.187
311.675
311.173
310.683
310.206
309.742
309.291
308.854
308.43
308.02
307.624
307.241
306.873
306.518
306.177
305.849
305.534
305.233
304.944
304.668
304.404
304.152
303.912
303.683
303.465
303.257
303.06
302.873
302.696
302.527
302.368
302.217
302.075
301.94
301.813
301.693
301.58
301.473
301.373
301.279
301.191
301.107
301.03
300.956
300.888
300.824
300.764
300.708
300.656
300.607
300.561
300.519
300.479
300.442
300.408
300.376
300.347
300.319
300.294
300.27
300.249
300.228
300.21
300.192
300.176
300.162
300.148
300.135
300.124
300.113
300.103
300.094
300.086
300.078
300.071
300.065
300.059
300.054
300.049
300.044
300.04
300.036
300.033
300.03
300.027
300.024
300.021
300.019
300.017
300.015
300.013
300.011
300.01
300.008
300.007
300.006
300.004
300.003
300.002
300.001
313.803
313.222
312.654
312.1
311.56
311.034
310.523
310.028
309.548
309.083
308.634
308.201
307.784
307.382
306.996
306.624
306.268
305.927
305.6
305.287
304.988
304.703
304.43
304.171
303.924
303.689
303.466
303.254
303.053
302.862
302.682
302.511
302.35
302.197
302.053
301.917
301.789
301.669
301.555
301.449
301.348
301.254
301.166
301.083
301.006
300.933
300.865
300.802
300.743
300.687
300.636
300.588
300.543
300.501
300.462
300.426
300.393
300.362
300.333
300.306
300.282
300.259
300.237
300.218
300.2
300.183
300.168
300.153
300.14
300.128
300.117
300.107
300.098
300.089
300.081
300.074
300.067
300.061
300.055
300.05
300.045
300.041
300.037
300.033
300.03
300.027
300.024
300.022
300.019
300.017
300.015
300.013
300.011
300.009
300.008
300.006
300.005
300.003
300.002
300.001
315.416
314.767
314.133
313.513
312.91
312.323
311.753
311.199
310.663
310.144
309.643
309.159
308.693
308.244
307.813
307.398
307
306.619
306.254
305.904
305.571
305.252
304.948
304.658
304.383
304.12
303.871
303.634
303.41
303.197
302.995
302.805
302.624
302.454
302.293
302.141
301.998
301.864
301.737
301.618
301.506
301.401
301.302
301.21
301.123
301.042
300.966
300.896
300.829
300.768
300.71
300.656
300.606
300.56
300.516
300.476
300.439
300.404
300.372
300.342
300.314
300.289
300.265
300.243
300.223
300.204
300.187
300.171
300.157
300.143
300.131
300.119
300.109
300.099
300.09
300.082
300.075
300.068
300.062
300.056
300.051
300.046
300.041
300.037
300.034
300.03
300.027
300.024
300.021
300.019
300.017
300.014
300.012
300.011
300.009
300.007
300.005
300.004
300.002
300.001
317.025
316.308
315.608
314.924
314.257
313.609
312.979
312.368
311.776
311.203
310.649
310.115
309.6
309.105
308.628
308.17
307.731
307.31
306.906
306.521
306.152
305.8
305.464
305.144
304.84
304.55
304.275
304.014
303.766
303.53
303.308
303.097
302.898
302.71
302.532
302.365
302.207
302.058
301.918
301.787
301.663
301.547
301.438
301.336
301.24
301.151
301.067
300.989
300.916
300.848
300.784
300.725
300.669
300.618
300.57
300.526
300.485
300.446
300.411
300.378
300.347
300.319
300.293
300.269
300.246
300.226
300.207
300.189
300.173
300.158
300.144
300.132
300.12
300.11
300.1
300.091
300.083
300.075
300.068
300.062
300.056
300.051
300.046
300.041
300.037
300.033
300.03
300.027
300.024
300.021
300.018
300.016
300.014
300.012
300.01
300.008
300.006
300.004
300.003
300.001
318.629
317.845
317.078
316.33
315.601
314.891
314.202
313.533
312.886
312.259
311.653
311.069
310.505
309.963
309.441
308.94
308.459
307.999
307.557
307.135
306.732
306.347
305.979
305.629
305.296
304.979
304.678
304.392
304.12
303.863
303.62
303.389
303.171
302.965
302.771
302.588
302.415
302.252
302.099
301.955
301.82
301.693
301.574
301.462
301.357
301.259
301.168
301.082
301.002
300.928
300.858
300.793
300.733
300.676
300.624
300.575
300.53
300.488
300.449
300.413
300.38
300.349
300.32
300.294
300.27
300.247
300.226
300.207
300.189
300.173
300.158
300.144
300.132
300.12
300.109
300.099
300.09
300.082
300.075
300.068
300.061
300.055
300.05
300.045
300.041
300.036
300.033
300.029
300.026
300.023
300.02
300.017
300.015
300.013
300.011
300.009
300.007
300.005
300.003
300.001
320.229
319.378
318.545
317.733
316.941
316.17
315.422
314.696
313.992
313.312
312.654
312.019
311.407
310.818
310.252
309.708
309.186
308.685
308.206
307.748
307.31
306.892
306.493
306.113
305.751
305.407
305.08
304.769
304.474
304.195
303.93
303.68
303.444
303.22
303.009
302.81
302.622
302.446
302.279
302.123
301.976
301.838
301.709
301.588
301.474
301.368
301.268
301.175
301.088
301.007
300.932
300.861
300.796
300.734
300.678
300.625
300.576
300.53
300.488
300.449
300.413
300.379
300.348
300.319
300.293
300.268
300.246
300.225
300.206
300.188
300.172
300.157
300.143
300.13
300.119
300.108
300.098
300.089
300.081
300.073
300.066
300.06
300.054
300.049
300.044
300.04
300.035
300.032
300.028
300.025
300.022
300.019
300.016
300.014
300.011
300.009
300.007
300.005
300.003
300.001
321.824
320.905
320.007
319.131
318.276
317.445
316.638
315.854
315.095
314.361
313.652
312.967
312.307
311.671
311.06
310.473
309.91
309.37
308.853
308.359
307.886
307.435
307.005
306.595
306.204
305.833
305.48
305.145
304.827
304.526
304.24
303.97
303.715
303.474
303.246
303.031
302.829
302.638
302.459
302.29
302.132
301.983
301.844
301.713
301.59
301.475
301.368
301.268
301.174
301.087
301.005
300.929
300.858
300.792
300.731
300.674
300.621
300.572
300.526
300.484
300.445
300.409
300.375
300.344
300.316
300.289
300.265
300.243
300.222
300.203
300.185
300.169
300.154
300.141
300.128
300.117
300.106
300.096
300.087
300.079
300.072
300.065
300.059
300.053
300.048
300.043
300.038
300.034
300.03
300.027
300.023
300.02
300.018
300.015
300.012
300.01
300.008
300.005
300.003
300.001
323.413
322.428
321.465
320.524
319.608
318.716
317.85
317.009
316.195
315.407
314.646
313.911
313.203
312.521
311.866
311.236
310.632
310.053
309.498
308.968
308.461
307.977
307.515
307.075
306.656
306.258
305.879
305.52
305.179
304.855
304.549
304.26
303.986
303.727
303.483
303.252
303.035
302.831
302.638
302.457
302.287
302.128
301.978
301.837
301.706
301.583
301.468
301.36
301.26
301.166
301.078
300.997
300.921
300.85
300.784
300.723
300.666
300.614
300.565
300.519
300.478
300.439
300.403
300.37
300.339
300.31
300.284
300.26
300.238
300.218
300.199
300.181
300.165
300.151
300.137
300.125
300.114
300.103
300.094
300.085
300.077
300.07
300.063
300.057
300.051
300.046
300.041
300.037
300.032
300.029
300.025
300.022
300.019
300.016
300.013
300.011
300.008
300.006
300.003
300.001
324.997
323.945
322.916
321.912
320.934
319.982
319.057
318.16
317.29
316.449
315.637
314.852
314.096
313.368
312.669
311.996
311.351
310.733
310.141
309.574
309.033
308.516
308.023
307.554
307.106
306.681
306.277
305.893
305.529
305.184
304.857
304.548
304.255
303.979
303.718
303.472
303.24
303.022
302.817
302.623
302.442
302.271
302.112
301.962
301.821
301.69
301.567
301.452
301.345
301.245
301.151
301.064
300.983
300.908
300.837
300.772
300.711
300.655
300.603
300.555
300.51
300.468
300.43
300.394
300.362
300.331
300.304
300.278
300.254
300.232
300.212
300.194
300.177
300.161
300.147
300.133
300.121
300.11
300.1
300.091
300.082
300.074
300.067
300.061
300.054
300.049
300.044
300.039
300.035
300.031
300.027
300.023
300.02
300.017
300.014
300.011
300.009
300.006
300.004
300.001
326.575
325.456
324.363
323.295
322.255
321.243
320.26
319.306
318.381
317.487
316.623
315.79
314.986
314.212
313.468
312.753
312.067
311.41
310.781
310.178
309.603
309.054
308.53
308.03
307.555
307.103
306.673
306.265
305.878
305.511
305.163
304.835
304.524
304.23
303.953
303.691
303.445
303.213
302.994
302.789
302.596
302.415
302.245
302.086
301.936
301.797
301.666
301.544
301.43
301.323
301.224
301.131
301.045
300.965
300.89
300.821
300.756
300.697
300.641
300.59
300.542
300.498
300.457
300.419
300.385
300.352
300.323
300.295
300.27
300.247
300.226
300.206
300.188
300.171
300.156
300.142
300.129
300.117
300.106
300.096
300.087
300.079
300.071
300.064
300.058
300.052
300.047
300.041
300.037
300.033
300.029
300.025
300.021
300.018
300.015
300.012
300.009
300.007
300.004
300.001
328.146
326.961
325.803
324.672
323.571
322.499
321.457
320.447
319.468
318.521
317.606
316.723
315.872
315.052
314.264
313.507
312.781
312.085
311.418
310.78
310.171
309.589
309.034
308.505
308.001
307.523
307.067
306.635
306.225
305.837
305.469
305.12
304.791
304.48
304.186
303.91
303.649
303.403
303.171
302.954
302.749
302.558
302.378
302.209
302.051
301.903
301.764
301.635
301.514
301.401
301.296
301.198
301.107
301.022
300.943
300.869
300.801
300.738
300.679
300.624
300.574
300.527
300.484
300.444
300.407
300.373
300.342
300.313
300.286
300.261
300.239
300.218
300.199
300.181
300.165
300.15
300.137
300.124
300.113
300.102
300.093
300.084
300.076
300.068
300.061
300.055
300.049
300.044
300.039
300.034
300.03
300.026
300.023
300.019
300.016
300.013
300.01
300.007
300.004
300.001
329.71
328.459
327.237
326.043
324.881
323.749
322.65
321.583
320.55
319.55
318.584
317.652
316.754
315.889
315.057
314.258
313.491
312.756
312.052
311.379
310.736
310.122
309.536
308.978
308.446
307.941
307.46
307.004
306.571
306.161
305.773
305.405
305.057
304.729
304.419
304.127
303.851
303.592
303.348
303.118
302.902
302.7
302.51
302.332
302.165
302.009
301.862
301.726
301.598
301.479
301.368
301.265
301.168
301.079
300.995
300.918
300.846
300.779
300.717
300.659
300.606
300.557
300.511
300.469
300.43
300.394
300.361
300.33
300.302
300.276
300.252
300.23
300.21
300.191
300.174
300.159
300.144
300.131
300.119
300.108
300.098
300.088
300.08
300.072
300.065
300.058
300.052
300.046
300.041
300.036
300.032
300.028
300.024
300.02
300.017
300.014
300.01
300.007
300.004
300.001
331.267
329.951
328.664
327.408
326.184
324.993
323.837
322.714
321.627
320.575
319.558
318.577
317.632
316.721
315.846
315.005
314.198
313.425
312.684
311.975
311.298
310.652
310.035
309.448
308.889
308.357
307.851
307.371
306.916
306.484
306.075
305.688
305.322
304.977
304.651
304.343
304.053
303.78
303.523
303.281
303.054
302.841
302.641
302.454
302.278
302.114
301.96
301.816
301.682
301.557
301.44
301.331
301.23
301.135
301.047
300.966
300.89
300.819
300.754
300.694
300.638
300.586
300.538
300.493
300.452
300.415
300.38
300.347
300.318
300.29
300.265
300.242
300.221
300.201
300.183
300.167
300.152
300.138
300.125
300.113
300.103
300.093
300.084
300.076
300.068
300.061
300.055
300.049
300.043
300.038
300.034
300.029
300.025
300.021
300.018
300.014
300.011
300.008
300.005
300.002
332.816
331.435
330.084
328.766
327.481
326.232
325.017
323.839
322.698
321.594
320.527
319.498
318.505
317.55
316.631
315.748
314.901
314.09
313.312
312.569
311.858
311.18
310.533
309.916
309.329
308.771
308.24
307.736
307.258
306.805
306.376
305.97
305.586
305.223
304.881
304.558
304.254
303.967
303.698
303.444
303.206
302.982
302.772
302.575
302.391
302.219
302.057
301.906
301.765
301.634
301.511
301.397
301.29
301.191
301.099
301.014
300.934
300.86
300.792
300.728
300.669
300.615
300.564
300.518
300.475
300.435
300.398
300.365
300.334
300.305
300.278
300.254
300.232
300.211
300.192
300.175
300.159
300.145
300.131
300.119
300.108
300.098
300.088
300.079
300.071
300.064
300.057
300.051
300.046
300.04
300.035
300.031
300.026
300.022
300.019
300.015
300.012
300.008
300.005
300.002
334.357
332.911
331.497
330.117
328.772
327.463
326.192
324.959
323.764
322.608
321.491
320.413
319.374
318.374
317.412
316.488
315.601
314.751
313.937
313.159
312.415
311.705
311.027
310.382
309.767
309.183
308.627
308.099
307.599
307.125
306.675
306.25
305.848
305.469
305.11
304.772
304.454
304.154
303.871
303.606
303.356
303.122
302.902
302.696
302.503
302.323
302.154
301.996
301.848
301.711
301.582
301.463
301.351
301.247
301.151
301.061
300.978
300.9
300.829
300.762
300.701
300.644
300.591
300.542
300.497
300.456
300.417
300.382
300.349
300.319
300.292
300.266
300.243
300.221
300.202
300.183
300.167
300.152
300.138
300.125
300.113
300.102
300.092
300.083
300.075
300.067
300.06
300.054
300.048
300.042
300.037
300.032
300.028
300.023
300.019
300.016
300.012
300.009
300.005
300.002
335.889
334.379
332.902
331.46
330.055
328.688
327.36
326.072
324.824
323.617
322.45
321.324
320.238
319.193
318.189
317.223
316.297
315.409
314.559
313.746
312.969
312.227
311.519
310.845
310.203
309.592
309.012
308.461
307.938
307.442
306.973
306.529
306.109
305.713
305.338
304.985
304.652
304.339
304.044
303.766
303.506
303.261
303.032
302.817
302.615
302.426
302.25
302.085
301.931
301.787
301.653
301.528
301.411
301.303
301.202
301.108
301.021
300.941
300.866
300.796
300.732
300.672
300.617
300.566
300.519
300.476
300.436
300.399
300.365
300.333
300.305
300.278
300.254
300.231
300.211
300.192
300.174
300.158
300.144
300.13
300.118
300.107
300.096
300.087
300.078
300.07
300.063
300.056
300.05
300.044
300.039
300.034
300.029
300.025
300.02
300.016
300.013
300.009
300.005
300.002
337.413
335.838
334.298
332.796
331.331
329.906
328.522
327.179
325.878
324.619
323.403
322.229
321.098
320.008
318.961
317.954
316.989
316.063
315.177
314.329
313.519
312.746
312.008
311.305
310.636
309.999
309.394
308.82
308.275
307.758
307.269
306.806
306.369
305.955
305.565
305.197
304.85
304.523
304.216
303.926
303.655
303.4
303.16
302.936
302.726
302.529
302.345
302.173
302.013
301.863
301.723
301.593
301.471
301.358
301.253
301.156
301.065
300.981
300.902
300.83
300.763
300.701
300.644
300.59
300.541
300.496
300.454
300.416
300.38
300.348
300.317
300.29
300.264
300.241
300.219
300.2
300.182
300.165
300.15
300.136
300.123
300.111
300.1
300.091
300.081
300.073
300.065
300.058
300.052
300.046
300.04
300.035
300.03
300.026
300.021
300.017
300.013
300.009
300.006
300.002
338.927
337.289
335.687
334.123
332.599
331.117
329.677
328.279
326.925
325.616
324.35
323.129
321.952
320.818
319.728
318.681
317.677
316.714
315.792
314.909
314.067
313.262
312.494
311.763
311.066
310.404
309.775
309.177
308.61
308.072
307.564
307.082
306.626
306.196
305.79
305.407
305.046
304.706
304.386
304.085
303.803
303.537
303.288
303.055
302.836
302.632
302.44
302.261
302.094
301.938
301.793
301.657
301.531
301.413
301.304
301.202
301.108
301.02
300.939
300.864
300.794
300.729
300.67
300.614
300.563
300.516
300.473
300.433
300.396
300.362
300.33
300.302
300.275
300.251
300.228
300.208
300.189
300.172
300.156
300.141
300.128
300.116
300.105
300.094
300.085
300.076
300.068
300.061
300.054
300.048
300.042
300.036
300.031
300.027
300.022
300.018
300.014
300.01
300.006
300.002
340.432
338.73
337.066
335.442
333.86
332.32
330.824
329.372
327.966
326.606
325.291
324.023
322.8
321.623
320.491
319.403
318.36
317.36
316.402
315.486
314.61
313.774
312.977
312.217
311.494
310.806
310.152
309.532
308.943
308.385
307.856
307.356
306.883
306.436
306.014
305.616
305.241
304.888
304.556
304.243
303.95
303.674
303.415
303.173
302.946
302.733
302.535
302.349
302.175
302.013
301.862
301.721
301.59
301.468
301.354
301.249
301.151
301.06
300.975
300.897
300.825
300.758
300.695
300.638
300.585
300.536
300.491
300.449
300.411
300.376
300.343
300.313
300.286
300.26
300.237
300.216
300.196
300.178
300.162
300.147
300.133
300.12
300.109
300.098
300.088
300.079
300.071
300.063
300.056
300.05
300.043
300.038
300.033
300.028
300.023
300.018
300.014
300.01
300.006
300.002
341.927
340.162
338.437
336.753
335.111
333.515
331.963
330.458
329
327.589
326.226
324.911
323.643
322.422
321.248
320.121
319.039
318.001
317.008
316.058
315.15
314.284
313.457
312.669
311.919
311.206
310.528
309.884
309.273
308.695
308.146
307.628
307.137
306.674
306.236
305.824
305.435
305.069
304.724
304.4
304.096
303.81
303.542
303.29
303.055
302.834
302.628
302.436
302.256
302.088
301.931
301.785
301.649
301.522
301.404
301.295
301.193
301.099
301.011
300.93
300.855
300.786
300.721
300.662
300.607
300.556
300.509
300.466
300.426
300.39
300.356
300.325
300.296
300.27
300.246
300.224
300.204
300.185
300.168
300.152
300.138
300.125
300.113
300.101
300.091
300.082
300.073
300.065
300.058
300.051
300.045
300.039
300.034
300.029
300.024
300.019
300.015
300.01
300.006
300.002
343.411
341.584
339.798
338.054
336.355
334.701
333.095
331.537
330.027
328.566
327.155
325.793
324.48
323.216
322.001
320.833
319.713
318.639
317.611
316.627
315.687
314.789
313.933
313.118
312.341
311.602
310.901
310.234
309.602
309.002
308.435
307.898
307.39
306.91
306.457
306.03
305.627
305.248
304.891
304.556
304.241
303.945
303.667
303.407
303.163
302.935
302.721
302.522
302.335
302.161
301.999
301.848
301.707
301.576
301.454
301.341
301.236
301.138
301.047
300.963
300.885
300.813
300.747
300.685
300.628
300.576
300.527
300.482
300.441
300.403
300.368
300.336
300.307
300.28
300.255
300.232
300.211
300.191
300.174
300.158
300.143
300.129
300.117
300.105
300.095
300.085
300.076
300.068
300.06
300.053
300.047
300.041
300.035
300.03
300.025
300.02
300.015
300.011
300.006
300.002
344.885
342.996
341.149
339.346
337.589
335.879
334.218
332.607
331.046
329.536
328.077
326.669
325.311
324.004
322.748
321.54
320.382
319.272
318.208
317.191
316.219
315.291
314.406
313.563
312.76
311.996
311.271
310.581
309.928
309.308
308.721
308.166
307.641
307.145
306.676
306.235
305.818
305.426
305.057
304.711
304.385
304.079
303.792
303.523
303.27
303.034
302.814
302.607
302.415
302.235
302.067
301.911
301.765
301.63
301.503
301.386
301.277
301.176
301.083
300.996
300.915
300.841
300.772
300.708
300.65
300.595
300.545
300.499
300.456
300.417
300.381
300.348
300.317
300.289
300.263
300.24
300.218
300.198
300.18
300.163
300.148
300.133
300.121
300.109
300.098
300.088
300.079
300.07
300.062
300.055
300.048
300.042
300.036
300.031
300.025
300.02
300.016
300.011
300.007
300.002
346.347
344.397
342.49
340.628
338.814
337.048
335.334
333.67
332.058
330.499
328.992
327.538
326.136
324.787
323.489
322.242
321.046
319.9
318.802
317.752
316.748
315.79
314.876
314.005
313.176
312.387
311.638
310.926
310.251
309.611
309.005
308.432
307.89
307.377
306.894
306.438
306.008
305.603
305.222
304.864
304.528
304.212
303.915
303.637
303.377
303.133
302.905
302.692
302.493
302.308
302.134
301.973
301.823
301.683
301.552
301.431
301.319
301.215
301.118
301.028
300.945
300.868
300.797
300.731
300.671
300.615
300.563
300.515
300.471
300.431
300.393
300.359
300.327
300.298
300.272
300.247
300.225
300.204
300.186
300.168
300.152
300.138
300.124
300.112
300.101
300.091
300.081
300.072
300.064
300.057
300.05
300.043
300.037
300.032
300.026
300.021
300.016
300.011
300.007
300.002
347.799
345.787
343.82
341.9
340.029
338.209
336.44
334.724
333.062
331.454
329.9
328.4
326.954
325.563
324.224
322.939
321.705
320.523
319.39
318.307
317.272
316.284
315.342
314.444
313.588
312.775
312.002
311.268
310.572
309.912
309.287
308.696
308.137
307.608
307.11
306.639
306.196
305.779
305.386
305.016
304.669
304.343
304.038
303.751
303.483
303.231
302.996
302.777
302.571
302.38
302.201
302.035
301.88
301.735
301.601
301.476
301.36
301.253
301.153
301.061
300.975
300.896
300.822
300.754
300.692
300.634
300.58
300.531
300.486
300.444
300.406
300.37
300.338
300.308
300.28
300.255
300.232
300.211
300.191
300.173
300.157
300.142
300.128
300.116
300.104
300.093
300.084
300.075
300.066
300.059
300.051
300.045
300.039
300.033
300.027
300.022
300.017
300.012
300.007
300.002
349.238
347.166
345.14
343.162
341.234
339.359
337.537
335.77
334.057
332.401
330.8
329.255
327.766
326.332
324.954
323.63
322.359
321.141
319.974
318.859
317.792
316.775
315.804
314.879
313.998
313.16
312.364
311.608
310.891
310.211
309.567
308.958
308.382
307.838
307.324
306.839
306.383
305.953
305.548
305.167
304.81
304.474
304.159
303.864
303.588
303.329
303.087
302.86
302.649
302.452
302.268
302.096
301.936
301.788
301.649
301.521
301.401
301.291
301.188
301.092
301.004
300.923
300.847
300.777
300.713
300.653
300.598
300.547
300.5
300.457
300.418
300.381
300.348
300.317
300.289
300.263
300.239
300.217
300.197
300.179
300.162
300.146
300.132
300.119
300.107
300.096
300.086
300.077
300.068
300.06
300.053
300.046
300.04
300.034
300.028
300.022
300.017
300.012
300.007
300.002
350.665
348.533
346.448
344.413
342.43
340.5
338.625
336.807
335.045
333.34
331.693
330.103
328.571
327.096
325.677
324.314
323.007
321.754
320.553
319.405
318.308
317.261
316.262
315.31
314.403
313.541
312.722
311.944
311.206
310.507
309.844
309.217
308.625
308.065
307.536
307.038
306.568
306.125
305.709
305.317
304.949
304.604
304.28
303.976
303.692
303.425
303.176
302.943
302.726
302.523
302.333
302.157
301.992
301.839
301.697
301.565
301.442
301.328
301.222
301.124
301.033
300.949
300.871
300.8
300.733
300.672
300.615
300.563
300.515
300.471
300.43
300.392
300.358
300.326
300.297
300.27
300.246
300.223
300.203
300.184
300.167
300.151
300.136
300.123
300.11
300.099
300.089
300.079
300.07
300.062
300.055
300.047
300.041
300.035
300.029
300.023
300.018
300.013
300.007
300.002
352.08
349.888
347.745
345.653
343.615
341.631
339.704
337.834
336.023
334.271
332.578
330.944
329.369
327.852
326.394
324.993
323.649
322.361
321.127
319.947
318.819
317.743
316.716
315.737
314.806
313.919
313.077
312.278
311.519
310.8
310.119
309.475
308.866
308.29
307.747
307.234
306.751
306.296
305.868
305.466
305.088
304.733
304.399
304.087
303.795
303.521
303.265
303.025
302.802
302.593
302.398
302.217
302.048
301.891
301.744
301.609
301.482
301.365
301.256
301.156
301.062
300.976
300.896
300.822
300.754
300.691
300.632
300.579
300.529
300.484
300.442
300.403
300.368
300.335
300.305
300.278
300.253
300.23
300.208
300.189
300.171
300.155
300.14
300.126
300.113
300.102
300.091
300.081
300.072
300.064
300.056
300.049
300.042
300.036
300.03
300.024
300.018
300.013
300.008
300.003
353.482
351.231
349.03
346.882
344.789
342.752
340.773
338.853
336.993
335.194
333.455
331.777
330.159
328.602
327.105
325.666
324.286
322.963
321.696
320.484
319.326
318.22
317.166
316.161
315.204
314.294
313.429
312.608
311.829
311.091
310.392
309.73
309.104
308.513
307.955
307.429
306.933
306.466
306.026
305.613
305.225
304.86
304.518
304.197
303.897
303.616
303.353
303.107
302.877
302.663
302.463
302.277
302.103
301.942
301.791
301.652
301.522
301.402
301.29
301.187
301.091
301.002
300.92
300.844
300.774
300.709
300.649
300.594
300.544
300.497
300.454
300.414
300.378
300.344
300.314
300.286
300.26
300.236
300.214
300.194
300.176
300.159
300.144
300.129
300.116
300.105
300.094
300.083
300.074
300.066
300.058
300.05
300.043
300.037
300.03
300.024
300.019
300.013
300.008
300.003
354.871
352.561
350.303
348.099
345.952
343.862
341.831
339.862
337.954
336.107
334.323
332.602
330.942
329.345
327.809
326.333
324.917
323.559
322.259
321.016
319.828
318.694
317.612
316.581
315.599
314.665
313.778
312.936
312.136
311.379
310.661
309.982
309.341
308.734
308.162
307.622
307.113
306.634
306.183
305.759
305.36
304.986
304.635
304.306
303.998
303.71
303.44
303.188
302.952
302.732
302.527
302.336
302.158
301.992
301.838
301.695
301.562
301.438
301.324
301.217
301.119
301.028
300.944
300.866
300.794
300.728
300.666
300.61
300.558
300.51
300.466
300.425
300.388
300.353
300.322
300.293
300.266
300.242
300.22
300.199
300.18
300.163
300.147
300.133
300.12
300.107
300.096
300.086
300.076
300.067
300.059
300.051
300.044
300.037
300.031
300.025
300.019
300.014
300.008
300.003
356.246
353.879
351.564
349.305
347.103
344.961
342.88
340.861
338.905
337.012
335.184
333.419
331.718
330.08
328.505
326.993
325.541
324.15
322.817
321.543
320.325
319.162
318.053
316.996
315.99
315.033
314.123
313.26
312.441
311.664
310.929
310.233
309.575
308.953
308.366
307.813
307.291
306.8
306.338
305.903
305.495
305.111
304.751
304.414
304.098
303.803
303.526
303.267
303.026
302.801
302.59
302.394
302.212
302.042
301.884
301.737
301.601
301.474
301.357
301.248
301.147
301.054
300.967
300.888
300.814
300.746
300.683
300.625
300.572
300.523
300.477
300.436
300.397
300.362
300.33
300.3
300.273
300.248
300.225
300.204
300.185
300.167
300.151
300.136
300.123
300.11
300.098
300.088
300.078
300.069
300.061