/*--------------------------------*- C++ -*----------------------------------*\
| =========                 |                                                 |
| \\      /  F ield         | OpenFOAM: The Open Source CFD Toolbox           |
|  \\    /   O peration     | Version:  2406                                  |
|   \\  /    A nd           | Website:  www.openfoam.com                      |
|    \\/     M anipulation  |                                                 |
\*---------------------------------------------------------------------------*/
FoamFile
{
    version     2.0;
    format      ascii;
    arch        "LSB;label=32;scalar=64";
    class       volScalarField;
    location    "75";
    object      T;
}
// * * * * * * * * * * * * * * * * * * * * * * * * * * * * * * * * * * * * * //

dimensions      [0 0 0 1 0 0 0];

internalField   nonuniform List<scalar> 
20000
(
300.981
300.954
300.926
300.899
300.871
300.844
300.818
300.791
300.765
300.74
300.715
300.69
300.666
300.642
300.619
300.596
300.574
300.552
300.531
300.51
300.49
300.471
300.452
300.433
300.415
300.398
300.381
300.365
300.349
300.334
300.319
300.305
300.291
300.278
300.265
300.253
300.241
300.23
300.219
300.208
300.198
300.189
300.179
300.17
300.162
300.154
300.146
300.138
300.131
300.124
300.118
300.112
300.106
300.1
300.095
300.089
300.085
300.08
300.075
300.071
300.067
300.063
300.06
300.056
300.053
300.05
300.047
300.044
300.041
300.039
300.036
300.034
300.032
300.03
300.028
300.026
300.024
300.023
300.021
300.02
300.018
300.017
300.016
300.015
300.013
300.012
300.011
300.01
300.009
300.008
300.007
300.007
300.006
300.005
300.004
300.003
300.003
300.002
300.001
300
302.944
302.86
302.778
302.695
302.614
302.533
302.453
302.374
302.296
302.219
302.144
302.07
301.997
301.926
301.856
301.788
301.721
301.656
301.593
301.531
301.47
301.412
301.355
301.299
301.246
301.194
301.143
301.094
301.047
301.002
300.957
300.915
300.874
300.834
300.796
300.759
300.723
300.689
300.657
300.625
300.595
300.566
300.538
300.511
300.486
300.461
300.438
300.415
300.394
300.373
300.354
300.335
300.317
300.3
300.284
300.268
300.254
300.24
300.226
300.213
300.201
300.19
300.179
300.169
300.159
300.149
300.14
300.132
300.124
300.117
300.109
300.103
300.096
300.09
300.084
300.079
300.073
300.068
300.064
300.059
300.055
300.051
300.047
300.044
300.04
300.037
300.034
300.031
300.028
300.025
300.022
300.02
300.017
300.015
300.012
300.01
300.008
300.006
300.003
300.001
304.905
304.767
304.629
304.492
304.356
304.221
304.088
303.956
303.826
303.698
303.573
303.449
303.328
303.209
303.093
302.979
302.868
302.76
302.654
302.551
302.45
302.353
302.258
302.165
302.076
301.989
301.905
301.824
301.745
301.669
301.595
301.524
301.456
301.39
301.326
301.265
301.206
301.149
301.094
301.042
300.991
300.943
300.896
300.852
300.809
300.768
300.729
300.692
300.656
300.622
300.589
300.558
300.528
300.5
300.473
300.447
300.423
300.399
300.377
300.356
300.336
300.316
300.298
300.281
300.265
300.249
300.234
300.22
300.207
300.194
300.182
300.171
300.16
300.15
300.14
300.131
300.122
300.114
300.106
300.099
300.092
300.085
300.079
300.073
300.067
300.061
300.056
300.051
300.046
300.042
300.037
300.033
300.029
300.025
300.021
300.017
300.013
300.009
300.006
300.002
306.866
306.672
306.479
306.287
306.096
305.908
305.721
305.537
305.355
305.177
305.001
304.828
304.658
304.492
304.329
304.17
304.014
303.862
303.714
303.57
303.429
303.293
303.16
303.031
302.906
302.784
302.667
302.553
302.443
302.336
302.233
302.134
302.038
301.945
301.856
301.77
301.687
301.608
301.531
301.458
301.387
301.32
301.255
301.192
301.133
301.076
301.021
300.968
300.918
300.871
300.825
300.781
300.74
300.7
300.662
300.626
300.591
300.559
300.528
300.498
300.47
300.443
300.417
300.393
300.37
300.348
300.328
300.308
300.289
300.272
300.255
300.239
300.224
300.21
300.196
300.183
300.171
300.16
300.149
300.138
300.128
300.119
300.11
300.102
300.094
300.086
300.079
300.072
300.065
300.058
300.052
300.046
300.04
300.034
300.029
300.023
300.018
300.013
300.008
300.003
308.824
308.575
308.327
308.08
307.836
307.593
307.353
307.117
306.883
306.653
306.427
306.205
305.987
305.773
305.564
305.36
305.16
304.964
304.774
304.588
304.408
304.232
304.061
303.896
303.735
303.579
303.427
303.281
303.139
303.002
302.87
302.742
302.619
302.5
302.385
302.275
302.169
302.067
301.968
301.874
301.783
301.696
301.613
301.533
301.456
301.382
301.312
301.245
301.18
301.119
301.06
301.004
300.951
300.899
300.851
300.804
300.76
300.718
300.678
300.64
300.604
300.569
300.536
300.505
300.476
300.448
300.421
300.396
300.372
300.349
300.328
300.307
300.288
300.27
300.252
300.236
300.22
300.205
300.191
300.178
300.165
300.153
300.142
300.131
300.12
300.11
300.101
300.092
300.083
300.075
300.067
300.059
300.052
300.044
300.037
300.03
300.023
300.017
300.01
300.003
310.781
310.476
310.173
309.872
309.573
309.277
308.984
308.695
308.409
308.129
307.852
307.581
307.314
307.053
306.798
306.548
306.304
306.065
305.832
305.606
305.385
305.171
304.962
304.759
304.563
304.372
304.187
304.008
303.835
303.668
303.506
303.35
303.2
303.054
302.914
302.779
302.65
302.525
302.405
302.289
302.178
302.072
301.97
301.872
301.779
301.689
301.603
301.521
301.442
301.367
301.295
301.227
301.161
301.099
301.039
300.983
300.929
300.877
300.828
300.782
300.738
300.695
300.655
300.617
300.581
300.547
300.515
300.484
300.454
300.427
300.4
300.375
300.352
300.329
300.308
300.288
300.269
300.251
300.234
300.217
300.202
300.187
300.173
300.16
300.147
300.135
300.123
300.112
300.102
300.091
300.082
300.072
300.063
300.054
300.045
300.037
300.029
300.02
300.012
300.004
312.735
312.375
312.017
311.661
311.308
310.958
310.612
310.27
309.934
309.602
309.275
308.955
308.64
308.332
308.03
307.735
307.446
307.164
306.889
306.622
306.361
306.108
305.861
305.622
305.39
305.164
304.946
304.735
304.531
304.333
304.142
303.957
303.78
303.608
303.442
303.283
303.13
302.982
302.84
302.704
302.573
302.448
302.327
302.212
302.101
301.995
301.893
301.796
301.703
301.615
301.53
301.449
301.372
301.298
301.228
301.161
301.097
301.036
300.979
300.924
300.871
300.821
300.774
300.729
300.687
300.646
300.608
300.571
300.537
300.504
300.473
300.443
300.416
300.389
300.364
300.34
300.318
300.296
300.276
300.257
300.238
300.221
300.204
300.189
300.174
300.159
300.146
300.133
300.12
300.108
300.096
300.085
300.074
300.064
300.054
300.044
300.034
300.024
300.014
300.005
314.685
314.271
313.858
313.447
313.04
312.637
312.238
311.844
311.455
311.073
310.696
310.326
309.964
309.608
309.26
308.919
308.587
308.262
307.945
307.636
307.336
307.043
306.759
306.483
306.215
305.956
305.704
305.46
305.225
304.997
304.776
304.564
304.358
304.161
303.97
303.786
303.609
303.439
303.276
303.118
302.967
302.823
302.684
302.55
302.423
302.3
302.183
302.071
301.964
301.862
301.764
301.671
301.582
301.497
301.416
301.339
301.265
301.195
301.128
301.065
301.005
300.947
300.893
300.841
300.792
300.745
300.701
300.659
300.619
300.581
300.545
300.511
300.479
300.449
300.42
300.392
300.366
300.342
300.318
300.296
300.275
300.255
300.236
300.218
300.2
300.184
300.168
300.153
300.139
300.125
300.111
300.098
300.086
300.074
300.062
300.05
300.039
300.028
300.017
300.006
316.632
316.163
315.695
315.23
314.769
314.312
313.86
313.414
312.974
312.541
312.114
311.696
311.285
310.882
310.488
310.102
309.725
309.357
308.998
308.649
308.308
307.977
307.655
307.343
307.039
306.745
306.46
306.184
305.917
305.659
305.41
305.169
304.936
304.712
304.496
304.288
304.088
303.895
303.71
303.532
303.361
303.197
303.039
302.889
302.744
302.606
302.473
302.346
302.225
302.109
301.998
301.893
301.792
301.695
301.604
301.516
301.433
301.354
301.278
301.206
301.138
301.073
301.011
300.953
300.897
300.844
300.794
300.746
300.701
300.658
300.618
300.579
300.543
300.508
300.475
300.444
300.415
300.387
300.36
300.335
300.311
300.289
300.267
300.246
300.227
300.208
300.19
300.173
300.157
300.141
300.126
300.111
300.097
300.083
300.07
300.057
300.044
300.031
300.019
300.006
318.575
318.051
317.528
317.009
316.494
315.984
315.479
314.981
314.49
314.006
313.53
313.062
312.603
312.153
311.713
311.282
310.861
310.45
310.049
309.659
309.279
308.909
308.549
308.2
307.862
307.533
307.215
306.907
306.609
306.32
306.042
305.773
305.513
305.263
305.021
304.789
304.565
304.35
304.143
303.944
303.754
303.57
303.395
303.226
303.065
302.91
302.762
302.62
302.485
302.355
302.232
302.114
302.001
301.893
301.791
301.693
301.6
301.512
301.427
301.347
301.271
301.198
301.129
301.064
301.002
300.943
300.887
300.833
300.783
300.735
300.69
300.647
300.606
300.567
300.531
300.496
300.463
300.432
300.402
300.374
300.348
300.322
300.298
300.275
300.253
300.233
300.213
300.194
300.175
300.158
300.141
300.124
300.109
300.093
300.078
300.064
300.049
300.035
300.021
300.007
320.514
319.934
319.358
318.784
318.215
317.652
317.095
316.544
316.002
315.467
314.941
314.425
313.918
313.421
312.935
312.459
311.994
311.541
311.098
310.667
310.247
309.839
309.442
309.056
308.682
308.319
307.968
307.627
307.298
306.98
306.672
306.375
306.088
305.812
305.545
305.289
305.042
304.804
304.576
304.356
304.145
303.943
303.749
303.563
303.384
303.214
303.05
302.894
302.744
302.601
302.465
302.334
302.21
302.091
301.978
301.87
301.767
301.669
301.576
301.488
301.403
301.323
301.247
301.175
301.106
301.041
300.979
300.92
300.865
300.812
300.762
300.714
300.669
300.627
300.586
300.548
300.512
300.477
300.444
300.413
300.384
300.356
300.329
300.304
300.28
300.257
300.235
300.214
300.193
300.174
300.155
300.137
300.12
300.103
300.086
300.07
300.054
300.039
300.023
300.008
322.447
321.813
321.182
320.555
319.932
319.316
318.706
318.104
317.51
316.925
316.35
315.784
315.23
314.686
314.154
313.633
313.125
312.628
312.144
311.672
311.213
310.766
310.331
309.91
309.5
309.103
308.719
308.346
307.986
307.638
307.301
306.976
306.662
306.36
306.068
305.787
305.517
305.257
305.007
304.767
304.536
304.314
304.102
303.898
303.703
303.516
303.338
303.166
303.003
302.846
302.697
302.554
302.418
302.288
302.164
302.046
301.934
301.827
301.725
301.628
301.536
301.448
301.365
301.286
301.21
301.139
301.071
301.007
300.946
300.888
300.834
300.782
300.732
300.686
300.641
300.6
300.56
300.522
300.486
300.452
300.42
300.389
300.36
300.333
300.306
300.281
300.257
300.234
300.212
300.19
300.17
300.15
300.131
300.113
300.094
300.077
300.059
300.042
300.025
300.008
324.375
323.686
323.001
322.32
321.644
320.974
320.312
319.658
319.013
318.378
317.754
317.14
316.538
315.948
315.37
314.804
314.252
313.713
313.187
312.675
312.176
311.69
311.219
310.761
310.316
309.885
309.467
309.063
308.672
308.293
307.928
307.575
307.234
306.906
306.589
306.284
305.991
305.708
305.437
305.176
304.925
304.685
304.454
304.233
304.021
303.818
303.624
303.438
303.261
303.091
302.928
302.774
302.626
302.485
302.35
302.222
302.1
301.984
301.873
301.768
301.668
301.572
301.482
301.396
301.314
301.237
301.163
301.094
301.027
300.965
300.905
300.849
300.795
300.745
300.697
300.651
300.608
300.567
300.528
300.491
300.456
300.423
300.391
300.361
300.332
300.305
300.279
300.254
300.23
300.207
300.185
300.163
300.142
300.122
300.103
300.083
300.064
300.046
300.027
300.009
326.297
325.554
324.815
324.08
323.35
322.628
321.914
321.208
320.513
319.827
319.153
318.491
317.842
317.205
316.581
315.972
315.376
314.794
314.227
313.674
313.136
312.612
312.103
311.609
311.129
310.664
310.214
309.778
309.355
308.947
308.553
308.172
307.805
307.45
307.109
306.78
306.463
306.158
305.865
305.584
305.314
305.054
304.806
304.567
304.338
304.119
303.91
303.709
303.518
303.334
303.159
302.992
302.833
302.681
302.535
302.397
302.265
302.14
302.021
301.907
301.799
301.696
301.599
301.506
301.418
301.334
301.255
301.18
301.108
301.041
300.977
300.916
300.858
300.803
300.752
300.702
300.656
300.612
300.57
300.53
300.492
300.456
300.422
300.39
300.359
300.329
300.301
300.274
300.248
300.223
300.199
300.176
300.154
300.132
300.111
300.09
300.07
300.049
300.03
300.01
328.212
327.415
326.622
325.833
325.051
324.276
323.51
322.753
322.007
321.271
320.548
319.838
319.141
318.458
317.789
317.135
316.496
315.872
315.263
314.67
314.092
313.531
312.985
312.455
311.94
311.441
310.958
310.49
310.037
309.599
309.176
308.767
308.373
307.993
307.626
307.273
306.934
306.607
306.293
305.991
305.701
305.423
305.156
304.9
304.654
304.419
304.195
303.98
303.774
303.577
303.389
303.21
303.039
302.876
302.72
302.572
302.43
302.296
302.168
302.046
301.93
301.82
301.715
301.616
301.521
301.432
301.347
301.266
301.189
301.117
301.048
300.982
300.921
300.862
300.806
300.754
300.704
300.656
300.611
300.568
300.528
300.489
300.453
300.418
300.385
300.353
300.323
300.294
300.266
300.239
300.214
300.189
300.165
300.141
300.119
300.096
300.075
300.053
300.032
300.011
330.12
329.27
328.423
327.581
326.746
325.918
325.1
324.292
323.495
322.71
321.938
321.18
320.436
319.707
318.992
318.294
317.611
316.945
316.295
315.662
315.046
314.446
313.863
313.297
312.748
312.215
311.699
311.199
310.716
310.248
309.797
309.36
308.939
308.533
308.142
307.765
307.403
307.054
306.718
306.396
306.086
305.789
305.504
305.231
304.969
304.718
304.478
304.249
304.029
303.819
303.619
303.427
303.245
303.07
302.904
302.746
302.595
302.451
302.314
302.184
302.061
301.943
301.831
301.725
301.624
301.528
301.438
301.351
301.27
301.192
301.119
301.049
300.983
300.92
300.861
300.804
300.751
300.701
300.653
300.607
300.564
300.523
300.483
300.446
300.411
300.377
300.345
300.314
300.284
300.256
300.228
300.202
300.176
300.151
300.127
300.103
300.08
300.057
300.034
300.011
332.021
331.117
330.216
329.322
328.434
327.554
326.684
325.825
324.978
324.144
323.323
322.517
321.726
320.95
320.191
319.448
318.723
318.015
317.324
316.65
315.995
315.358
314.738
314.136
313.552
312.986
312.437
311.906
311.392
310.895
310.415
309.951
309.504
309.072
308.656
308.256
307.87
307.499
307.142
306.8
306.471
306.155
305.852
305.561
305.283
305.016
304.761
304.517
304.283
304.06
303.847
303.644
303.449
303.264
303.087
302.919
302.759
302.606
302.46
302.322
302.191
302.066
301.947
301.834
301.727
301.625
301.528
301.437
301.35
301.267
301.189
301.115
301.045
300.978
300.915
300.855
300.799
300.745
300.694
300.645
300.599
300.556
300.514
300.474
300.437
300.401
300.366
300.334
300.302
300.272
300.243
300.214
300.187
300.161
300.135
300.109
300.085
300.06
300.036
300.012
333.914
332.956
332.003
331.055
330.115
329.183
328.262
327.352
326.455
325.571
324.702
323.848
323.01
322.189
321.385
320.598
319.83
319.079
318.348
317.635
316.941
316.266
315.609
314.972
314.353
313.754
313.173
312.61
312.066
311.539
311.031
310.539
310.065
309.608
309.168
308.744
308.335
307.942
307.565
307.202
306.853
306.519
306.198
305.89
305.595
305.313
305.042
304.784
304.537
304.3
304.075
303.859
303.653
303.457
303.27
303.092
302.922
302.76
302.606
302.459
302.32
302.188
302.062
301.942
301.829
301.721
301.619
301.522
301.43
301.342
301.259
301.181
301.107
301.036
300.969
300.906
300.846
300.789
300.735
300.683
300.635
300.588
300.544
300.502
300.463
300.424
300.388
300.353
300.32
300.288
300.257
300.227
300.198
300.17
300.143
300.116
300.09
300.064
300.038
300.013
335.799
334.788
333.781
332.781
331.788
330.805
329.832
328.872
327.925
326.992
326.074
325.173
324.289
323.422
322.573
321.743
320.932
320.14
319.367
318.615
317.882
317.169
316.477
315.804
315.151
314.518
313.905
313.311
312.736
312.18
311.643
311.125
310.625
310.142
309.677
309.229
308.798
308.384
307.985
307.602
307.234
306.881
306.542
306.217
305.906
305.608
305.323
305.05
304.789
304.539
304.301
304.073
303.856
303.649
303.452
303.263
303.084
302.913
302.751
302.596
302.449
302.309
302.176
302.05
301.93
301.817
301.709
301.606
301.509
301.417
301.329
301.247
301.168
301.094
301.023
300.956
300.893
300.833
300.776
300.721
300.67
300.621
300.575
300.53
300.488
300.448
300.41
300.373
300.338
300.304
300.271
300.24
300.209
300.18
300.151
300.122
300.095
300.067
300.04
300.013
337.674
336.611
335.551
334.498
333.454
332.419
331.395
330.385
329.388
328.406
327.441
326.492
325.561
324.649
323.756
322.882
322.028
321.195
320.382
319.59
318.819
318.069
317.34
316.632
315.945
315.279
314.633
314.008
313.403
312.819
312.254
311.708
311.181
310.674
310.184
309.713
309.259
308.823
308.403
308
307.613
307.241
306.885
306.543
306.216
305.902
305.602
305.314
305.04
304.777
304.526
304.287
304.058
303.84
303.632
303.434
303.246
303.066
302.895
302.732
302.577
302.43
302.29
302.158
302.032
301.912
301.798
301.69
301.588
301.491
301.399
301.312
301.229
301.151
301.077
301.006
300.94
300.876
300.816
300.759
300.705
300.654
300.605
300.558
300.514
300.472
300.431
300.392
300.355
300.32
300.285
300.252
300.22
300.189
300.159
300.129
300.1
300.071
300.042
300.014
339.541
338.424
337.313
336.207
335.111
334.025
332.951
331.89
330.844
329.814
328.8
327.805
326.828
325.87
324.933
324.016
323.12
322.245
321.392
320.561
319.751
318.964
318.199
317.456
316.735
316.036
315.358
314.702
314.067
313.454
312.861
312.288
311.735
311.203
310.689
310.194
309.718
309.26
308.82
308.397
307.99
307.6
307.226
306.867
306.523
306.194
305.879
305.578
305.289
305.014
304.751
304.499
304.259
304.031
303.812
303.604
303.406
303.218
303.038
302.868
302.705
302.551
302.404
302.265
302.132
302.006
301.887
301.774
301.667
301.565
301.468
301.377
301.29
301.208
301.13
301.056
300.986
300.92
300.857
300.797
300.74
300.686
300.635
300.586
300.539
300.495
300.453
300.412
300.373
300.336
300.3
300.265
300.231
300.198
300.166
300.135
300.105
300.074
300.045
300.015
341.398
340.229
339.065
337.908
336.76
335.623
334.498
333.387
332.292
331.213
330.153
329.11
328.087
327.085
326.103
325.143
324.205
323.29
322.397
321.526
320.679
319.855
319.054
318.276
317.521
316.789
316.079
315.393
314.728
314.085
313.465
312.865
312.287
311.729
311.191
310.673
310.174
309.695
309.234
308.791
308.365
307.957
307.565
307.19
306.83
306.485
306.155
305.84
305.538
305.249
304.974
304.711
304.459
304.22
303.991
303.774
303.566
303.369
303.181
303.002
302.832
302.67
302.517
302.371
302.232
302.101
301.976
301.857
301.745
301.638
301.537
301.442
301.351
301.265
301.183
301.106
301.032
300.963
300.897
300.834
300.775
300.718
300.665
300.613
300.565
300.518
300.474
300.431
300.39
300.351
300.314
300.277
300.242
300.208
300.174
300.142
300.109
300.078
300.047
300.016
343.244
342.023
340.807
339.599
338.399
337.212
336.037
334.877
333.732
332.606
331.497
330.409
329.34
328.293
327.268
326.265
325.285
324.328
323.395
322.486
321.601
320.74
319.904
319.091
318.302
317.538
316.797
316.079
315.385
314.714
314.065
313.439
312.835
312.252
311.69
311.149
310.628
310.127
309.646
309.183
308.738
308.312
307.903
307.51
307.134
306.774
306.43
306.1
305.785
305.483
305.195
304.921
304.658
304.408
304.169
303.942
303.725
303.519
303.323
303.136
302.958
302.79
302.629
302.477
302.332
302.194
302.064
301.94
301.823
301.712
301.606
301.506
301.411
301.321
301.236
301.155
301.078
301.006
300.937
300.871
300.809
300.75
300.694
300.641
300.59
300.541
300.495
300.45
300.408
300.367
300.328
300.29
300.253
300.217
300.182
300.148
300.114
300.081
300.049
300.016
345.08
343.807
342.54
341.28
340.03
338.791
337.567
336.357
335.165
333.99
332.835
331.7
330.586
329.494
328.425
327.38
326.358
325.361
324.389
323.441
322.518
321.621
320.749
319.901
319.079
318.282
317.51
316.762
316.038
315.338
314.662
314.009
313.379
312.772
312.186
311.622
311.08
310.557
310.055
309.573
309.109
308.665
308.238
307.829
307.437
307.062
306.703
306.359
306.03
305.716
305.416
305.13
304.856
304.595
304.346
304.109
303.884
303.669
303.464
303.269
303.084
302.908
302.741
302.582
302.431
302.288
302.152
302.023
301.9
301.784
301.674
301.57
301.471
301.377
301.288
301.204
301.124
301.048
300.977
300.908
300.844
300.782
300.724
300.668
300.615
300.564
300.516
300.47
300.425
300.383
300.341
300.302
300.263
300.226
300.19
300.154
300.119
300.085
300.051
300.017
346.905
345.58
344.261
342.951
341.65
340.361
339.087
337.829
336.588
335.366
334.164
332.983
331.824
330.688
329.576
328.488
327.425
326.388
325.376
324.39
323.43
322.496
321.588
320.707
319.852
319.022
318.218
317.44
316.687
315.959
315.256
314.576
313.921
313.289
312.68
312.093
311.528
310.985
310.462
309.96
309.478
309.015
308.572
308.146
307.738
307.348
306.974
306.616
306.274
305.948
305.635
305.337
305.053
304.781
304.522
304.276
304.041
303.817
303.604
303.402
303.209
303.026
302.852
302.686
302.529
302.38
302.239
302.104
301.977
301.856
301.742
301.633
301.53
301.433
301.34
301.253
301.17
301.091
301.016
300.945
300.878
300.814
300.753
300.695
300.64
300.587
300.537
300.489
300.442
300.398
300.355
300.314
300.274
300.235
300.197
300.16
300.124
300.088
300.053
300.018
348.718
347.342
345.972
344.611
343.26
341.922
340.598
339.291
338.002
336.733
335.484
334.258
333.054
331.874
330.719
329.59
328.486
327.408
326.357
325.333
324.336
323.366
322.423
321.507
320.619
319.757
318.923
318.114
317.332
316.576
315.845
315.14
314.459
313.803
313.17
312.56
311.974
311.409
310.867
310.345
309.845
309.364
308.903
308.461
308.037
307.632
307.244
306.872
306.517
306.177
305.853
305.543
305.248
304.966
304.697
304.441
304.197
303.965
303.743
303.533
303.333
303.143
302.962
302.79
302.627
302.472
302.325
302.186
302.054
301.928
301.809
301.696
301.59
301.488
301.392
301.301
301.215
301.133
301.055
300.982
300.912
300.845
300.782
300.722
300.664
300.61
300.558
300.508
300.46
300.413
300.369
300.326
300.285
300.244
300.205
300.167
300.129
300.092
300.055
300.018
350.519
349.093
347.672
346.26
344.859
343.472
342.099
340.744
339.407
338.091
336.796
335.524
334.276
333.053
331.855
330.683
329.539
328.421
327.331
326.269
325.235
324.229
323.252
322.302
321.381
320.488
319.622
318.784
317.973
317.189
316.431
315.7
314.994
314.313
313.657
313.025
312.416
311.831
311.268
310.728
310.209
309.71
309.232
308.774
308.335
307.914
307.511
307.126
306.758
306.406
306.07
305.748
305.442
305.15
304.871
304.605
304.352
304.111
303.882
303.664
303.456
303.259
303.071
302.893
302.724
302.564
302.411
302.267
302.129
301.999
301.876
301.759
301.648
301.543
301.444
301.349
301.26
301.175
301.094
301.018
300.945
300.876
300.811
300.749
300.689
300.632
300.578
300.526
300.477
300.429
300.383
300.338
300.295
300.253
300.213
300.173
300.134
300.095
300.057
300.019
352.308
350.831
349.36
347.898
346.448
345.011
343.59
342.186
340.802
339.44
338.099
336.782
335.49
334.223
332.983
331.77
330.585
329.427
328.299
327.199
326.129
325.087
324.075
323.092
322.138
321.213
320.317
319.449
318.609
317.798
317.013
316.256
315.525
314.82
314.14
313.486
312.856
312.25
311.667
311.108
310.57
310.054
309.559
309.084
308.63
308.194
307.777
307.379
306.997
306.633
306.284
305.952
305.635
305.332
305.043
304.768
304.506
304.257
304.019
303.793
303.578
303.374
303.18
302.996
302.821
302.654
302.497
302.347
302.205
302.07
301.943
301.821
301.707
301.598
301.495
301.397
301.304
301.217
301.133
301.054
300.979
300.908
300.84
300.775
300.713
300.655
300.599
300.545
300.493
300.444
300.396
300.35
300.306
300.262
300.22
300.179
300.138
300.098
300.059
300.02
354.083
352.556
351.036
349.524
348.024
346.539
345.069
343.619
342.188
340.778
339.392
338.031
336.695
335.385
334.103
332.848
331.623
330.426
329.26
328.123
327.016
325.939
324.892
323.876
322.89
321.933
321.007
320.109
319.241
318.402
317.591
316.807
316.052
315.323
314.62
313.944
313.292
312.666
312.063
311.485
310.929
310.395
309.883
309.393
308.923
308.472
308.041
307.629
307.235
306.858
306.498
306.154
305.826
305.513
305.215
304.93
304.659
304.401
304.156
303.922
303.7
303.489
303.288
303.097
302.916
302.744
302.581
302.427
302.28
302.141
302.008
301.883
301.765
301.652
301.546
301.445
301.349
301.258
301.172
301.09
301.012
300.938
300.868
300.801
300.738
300.677
300.619
300.563
300.51
300.459
300.41
300.362
300.316
300.271
300.228
300.185
300.143
300.102
300.061
300.02
355.846
354.269
352.699
351.138
349.589
348.055
346.538
345.04
343.562
342.107
340.676
339.27
337.89
336.538
335.214
333.919
332.653
331.418
330.213
329.039
327.896
326.784
325.704
324.654
323.636
322.648
321.691
320.765
319.868
319.001
318.164
317.355
316.575
315.822
315.097
314.398
313.725
313.079
312.457
311.859
311.285
310.734
310.206
309.699
309.213
308.748
308.303
307.878
307.47
307.081
306.71
306.355
306.016
305.693
305.384
305.091
304.811
304.545
304.291
304.05
303.821
303.602
303.395
303.198
303.011
302.834
302.665
302.506
302.354
302.21
302.074
301.945
301.822
301.706
301.596
301.492
301.393
301.299
301.21
301.125
301.045
300.969
300.896
300.827
300.762
300.699
300.639
300.582
300.527
300.474
300.423
300.374
300.326
300.28
300.235
300.191
300.148
300.105
300.063
300.021
357.595
355.968
354.349
352.739
351.142
349.56
347.995
346.45
344.926
343.426
341.95
340.5
339.077
337.682
336.317
334.981
333.676
332.402
331.159
329.948
328.77
327.623
326.508
325.426
324.376
323.357
322.37
321.415
320.49
319.596
318.733
317.899
317.094
316.317
315.569
314.849
314.155
313.488
312.847
312.23
311.638
311.07
310.525
310.003
309.502
309.022
308.563
308.124
307.704
307.303
306.92
306.554
306.204
305.871
305.553
305.25
304.962
304.687
304.426
304.177
303.94
303.715
303.502
303.298
303.106
302.923
302.749
302.584
302.428
302.279
302.139
302.006
301.879
301.759
301.646
301.538
301.436
301.34
301.248
301.161
301.078
300.999
300.925
300.853
300.786
300.721
300.659
300.6
300.543
300.489
300.436
300.386
300.337
300.289
300.242
300.197
300.152
300.108
300.065
300.022
359.329
357.654
355.986
354.327
352.682
351.052
349.441
347.849
346.279
344.734
343.213
341.719
340.254
338.817
337.41
336.034
334.69
333.378
332.098
330.85
329.636
328.455
327.307
326.192
325.11
324.061
323.044
322.06
321.107
320.187
319.297
318.438
317.608
316.809
316.038
315.296
314.582
313.894
313.233
312.599
311.989
311.403
310.842
310.304
309.788
309.294
308.821
308.369
307.936
307.523
307.128
306.751
306.391
306.048
305.72
305.408
305.111
304.828
304.559
304.303
304.059
303.827
303.607
303.398
303.199
303.011
302.832
302.662
302.501
302.348
302.203
302.066
301.936
301.812
301.696
301.585
301.48
301.38
301.285
301.196
301.11
301.029
300.952
300.879
300.809
300.743
300.679
300.618
300.56
300.503
300.449
300.397
300.347
300.298
300.25
300.203
300.157
300.112
300.067
300.022
361.049
359.325
357.608
355.902
354.209
352.532
350.874
349.236
347.621
346.03
344.466
342.929
341.42
339.942
338.495
337.079
335.695
334.345
333.028
331.745
330.495
329.28
328.098
326.951
325.838
324.758
323.712
322.699
321.719
320.772
319.856
318.972
318.119
317.296
316.503
315.739
315.004
314.297
313.617
312.964
312.336
311.734
311.156
310.603
310.072
309.564
309.077
308.612
308.166
307.741
307.335
306.947
306.576
306.223
305.886
305.565
305.259
304.968
304.691
304.427
304.176
303.938
303.712
303.496
303.292
303.098
302.914
302.739
302.573
302.416
302.267
302.126
301.992
301.865
301.745
301.631
301.522
301.42
301.323
301.23
301.142
301.059
300.98
300.905
300.833
300.764
300.699
300.636
300.576
300.518
300.462
300.409
300.357
300.306
300.257
300.209
300.161
300.115
300.069
300.023
362.753
360.982
359.217
357.463
355.723
353.999
352.294
350.611
348.951
347.316
345.707
344.127
342.577
341.057
339.57
338.114
336.692
335.304
333.95
332.631
331.347
330.097
328.883
327.704
326.559
325.45
324.374
323.333
322.326
321.352
320.411
319.502
318.625
317.779
316.964
316.179
315.423
314.696
313.997
313.326
312.681
312.062
311.468
310.899
310.353
309.831
309.33
308.852
308.394
307.957
307.539
307.141
306.76
306.397
306.05
305.721
305.406
305.107
304.822
304.551
304.293
304.048
303.815
303.594
303.384
303.184
302.995
302.816
302.645
302.484
302.33
302.185
302.048
301.917
301.793
301.676
301.565
301.459
301.359
301.265
301.174
301.089
301.007
300.93
300.856
300.785
300.718
300.654
300.592
300.533
300.475
300.42
300.367
300.315
300.264
300.215
300.166
300.118
300.071
300.024
364.443
362.623
360.811
359.01
357.223
355.453
353.702
351.973
350.268
348.589
346.938
345.315
343.723
342.163
340.635
339.14
337.68
336.254
334.864
333.509
332.19
330.907
329.66
328.449
327.274
326.135
325.03
323.961
322.927
321.926
320.96
320.027
319.126
318.258
317.421
316.614
315.838
315.092
314.374
313.684
313.022
312.386
311.777
311.192
310.632
310.095
309.582
309.09
308.62
308.171
307.742
307.333
306.942
306.569
306.213
305.874
305.552
305.244
304.952
304.673
304.409
304.157
303.918
303.691
303.475
303.27
303.076
302.891
302.716
302.551
302.393
302.244
302.103
301.969
301.842
301.721
301.607
301.499
301.396
301.299
301.206
301.118
301.034
300.955
300.879
300.807
300.737
300.671
300.608
300.547
300.488
300.431
300.377
300.323
300.271
300.22
300.17
300.121
300.073
300.024
366.116
364.249
362.39
360.542
358.709
356.893
355.097
353.323
351.574
349.851
348.157
346.492
344.858
343.257
341.69
340.157
338.658
337.196
335.769
334.379
333.026
331.71
330.431
329.188
327.982
326.813
325.68
324.583
323.522
322.496
321.504
320.547
319.623
318.732
317.873
317.046
316.25
315.484
314.747
314.04
313.36
312.708
312.082
311.483
310.908
310.357
309.83
309.326
308.844
308.384
307.943
307.523
307.122
306.739
306.375
306.027
305.696
305.38
305.08
304.795
304.523
304.265
304.02
303.787
303.565
303.355
303.156
302.966
302.787
302.617
302.455
302.302
302.157
302.02
301.889
301.766
301.649
301.538
301.432
301.332
301.237
301.147
301.061
300.98
300.902
300.828
300.757
300.689
300.624
300.561
300.501
300.443
300.386
300.332
300.278
300.226
300.175
300.124
300.074
300.025
367.773
365.859
363.954
362.06
360.18
358.319
356.478
354.659
352.866
351.1
349.363
347.657
345.983
344.342
342.735
341.163
339.627
338.128
336.666
335.241
333.854
332.505
331.193
329.92
328.684
327.485
326.324
325.2
324.112
323.06
322.043
321.062
320.115
319.201
318.321
317.473
316.657
315.872
315.117
314.392
313.695
313.027
312.385
311.77
311.181
310.617
310.077
309.56
309.066
308.594
308.142
307.712
307.301
306.908
306.534
306.178
305.839
305.515
305.208
304.915
304.637
304.372
304.12
303.881
303.655
303.439
303.235
303.041
302.857
302.682
302.517
302.36
302.211
302.07
301.937
301.81
301.69
301.576
301.468
301.366
301.268
301.176
301.088
301.004
300.924
300.848
300.776
300.706
300.639
300.575
300.513
300.454
300.396