/*--------------------------------*- C++ -*----------------------------------*\
| =========                 |                                                 |
| \\      /  F ield         | OpenFOAM: The Open Source CFD Toolbox           |
|  \\    /   O peration     | Version:  2406                                  |
|   \\  /    A nd           | Website:  www.openfoam.com                      |
|    \\/     M anipulation  |                                                 |
\*---------------------------------------------------------------------------*/
FoamFile
{
    version     2.0;
    format      ascii;
    arch        "LSB;label=32;scalar=64";
    class       volScalarField;
    location    "50";
    object      gradTx;
}
// * * * * * * * * * * * * * * * * * * * * * * * * * * * * * * * * * * * * * //

dimensions      [0 -1 0 1 0 0 0];

internalField   nonuniform List<scalar> 
20000
(
-7.72242
-7.46103
-7.20246
-6.9471
-6.69554
-6.44838
-6.20575
-5.96703
-5.73335
-5.50546
-5.28263
-5.06481
-4.85257
-4.6462
-4.44566
-4.25085
-4.06175
-3.87842
-3.7009
-3.52923
-3.36337
-3.20327
-3.04886
-2.90004
-2.75675
-2.61889
-2.48637
-2.3591
-2.23696
-2.11985
-2.00765
-1.90024
-1.79749
-1.69929
-1.60549
-1.51597
-1.4306
-1.34924
-1.27176
-1.19803
-1.12793
-1.06131
-0.998044
-0.938014
-0.88109
-0.827149
-0.776068
-0.727729
-0.682016
-0.638815
-0.598014
-0.559508
-0.523189
-0.488957
-0.456713
-0.426361
-0.397809
-0.370968
-0.345751
-0.322076
-0.299863
-0.279035
-0.259519
-0.241244
-0.224143
-0.208151
-0.193206
-0.17925
-0.166226
-0.154081
-0.142763
-0.132225
-0.12242
-0.113306
-0.104841
-0.0969852
-0.0897031
-0.0829597
-0.0767223
-0.0709602
-0.0656449
-0.0607492
-0.0562481
-0.0521182
-0.0483375
-0.044886
-0.0417449
-0.038897
-0.0363265
-0.0340192
-0.0319619
-0.0301429
-0.0285518
-0.0271795
-0.0260178
-0.02506
-0.0243005
-0.0237347
-0.0233594
-0.0231723
-23.1654
-22.3812
-21.6055
-20.8397
-20.0855
-19.3434
-18.615
-17.8997
-17.1992
-16.515
-15.8462
-15.193
-14.5566
-13.9376
-13.3359
-12.7515
-12.1842
-11.6343
-11.1018
-10.5868
-10.0893
-9.60905
-9.14582
-8.69941
-8.26956
-7.85602
-7.4585
-7.07671
-6.71033
-6.35902
-6.02245
-5.70025
-5.39204
-5.09744
-4.81607
-4.54753
-4.29144
-4.04738
-3.81497
-3.59381
-3.3835
-3.18365
-2.99389
-2.81381
-2.64305
-2.48124
-2.32801
-2.18301
-2.04588
-1.91629
-1.7939
-1.67838
-1.56944
-1.46675
-1.37003
-1.27898
-1.19333
-1.11281
-1.03717
-0.966149
-0.899515
-0.837037
-0.778493
-0.723673
-0.672374
-0.624402
-0.579571
-0.537706
-0.498637
-0.462204
-0.428254
-0.396642
-0.367231
-0.33989
-0.314496
-0.290932
-0.269087
-0.248859
-0.230148
-0.212863
-0.196918
-0.182233
-0.168731
-0.156342
-0.145001
-0.134647
-0.125224
-0.116681
-0.108971
-0.102049
-0.0958778
-0.0904213
-0.0856485
-0.0815317
-0.0780469
-0.0751738
-0.0728954
-0.0711984
-0.0700725
-0.0695112
-38.6022
-37.2954
-36.0034
-34.7274
-33.4705
-32.2337
-31.0194
-29.8281
-28.6611
-27.5205
-26.4057
-25.3175
-24.2572
-23.2257
-22.223
-21.2489
-20.3036
-19.3872
-18.4999
-17.6418
-16.8128
-16.0125
-15.2405
-14.4966
-13.7803
-13.0912
-12.4288
-11.7926
-11.182
-10.5966
-10.0358
-9.49885
-8.98525
-8.49434
-8.02546
-7.57798
-7.15122
-6.74452
-6.35723
-5.98869
-5.63824
-5.30522
-4.98899
-4.68891
-4.40436
-4.13472
-3.87938
-3.63775
-3.40924
-3.19328
-2.98933
-2.79685
-2.6153
-2.44418
-2.283
-2.13128
-1.98855
-1.85438
-1.72833
-1.60998
-1.49894
-1.39483
-1.29728
-1.20592
-1.12044
-1.0405
-0.965793
-0.896029
-0.830924
-0.770212
-0.713639
-0.660961
-0.611951
-0.56639
-0.524074
-0.484806
-0.448405
-0.414696
-0.383517
-0.354714
-0.328143
-0.303671
-0.281171
-0.260527
-0.241628
-0.224375
-0.208673
-0.194437
-0.181588
-0.170054
-0.15977
-0.150677
-0.142724
-0.135864
-0.130057
-0.125269
-0.121472
-0.118644
-0.116768
-0.115833
-54.0298
-52.2004
-50.3921
-48.6063
-46.847
-45.1161
-43.4165
-41.7491
-40.1158
-38.519
-36.9587
-35.4357
-33.9518
-32.508
-31.1045
-29.7411
-28.4179
-27.1353
-25.8935
-24.6925
-23.5321
-22.4119
-21.3315
-20.2903
-19.2877
-18.3232
-17.396
-16.5055
-15.651
-14.8316
-14.0466
-13.2951
-12.5762
-11.8891
-11.2329
-10.6065
-10.0092
-9.44
-8.89793
-8.3821
-7.89158
-7.42547
-6.98286
-6.56286
-6.16459
-5.78718
-5.42979
-5.09159
-4.77175
-4.4695
-4.18404
-3.91462
-3.66052
-3.42101
-3.19541
-2.98306
-2.78329
-2.59549
-2.41906
-2.25342
-2.098
-1.95228
-1.81574
-1.68788
-1.56823
-1.45634
-1.35178
-1.25413
-1.16301
-1.07803
-0.998848
-0.925117
-0.85652
-0.792751
-0.733522
-0.678562
-0.627612
-0.580431
-0.536791
-0.496477
-0.459287
-0.425035
-0.393543
-0.364647
-0.338196
-0.314047
-0.29207
-0.272145
-0.25416
-0.238017
-0.223623
-0.210896
-0.199764
-0.190162
-0.182035
-0.175333
-0.170019
-0.166061
-0.163435
-0.162126
-69.4446
-67.0929
-64.7681
-62.4732
-60.212
-57.9875
-55.8029
-53.6598
-51.5605
-49.508
-47.5025
-45.5452
-43.6381
-41.7824
-39.9783
-38.2258
-36.5252
-34.8767
-33.2807
-31.7371
-30.2457
-28.8059
-27.4172
-26.0789
-24.7903
-23.5506
-22.3589
-21.2144
-20.1161
-19.0629
-18.054
-17.0881
-16.1641
-15.281
-14.4375
-13.6325
-12.8648
-12.1332
-11.4364
-10.7734
-10.143
-9.54389
-8.97501
-8.43519
-7.92329
-7.43822
-6.97887
-6.54418
-6.13309
-5.7446
-5.3777
-5.03143
-4.70483
-4.397
-4.10704
-3.83409
-3.57734
-3.33596
-3.1092
-2.8963
-2.69655
-2.50925
-2.33375
-2.16941
-2.01563
-1.87182
-1.73743
-1.61192
-1.4948
-1.38558
-1.28381
-1.18905
-1.10088
-1.01892
-0.94279
-0.872149
-0.806664
-0.746023
-0.689933
-0.638117
-0.590318
-0.546293
-0.505817
-0.468678
-0.43468
-0.403642
-0.375395
-0.349785
-0.32667
-0.305921
-0.28742
-0.271063
-0.256755
-0.244414
-0.233967
-0.225355
-0.218525
-0.213437
-0.210062
-0.20838
-84.8422
-81.969
-79.1284
-76.3247
-73.5622
-70.8445
-68.1754
-65.5572
-62.9924
-60.4848
-58.0347
-55.6435
-53.3136
-51.0465
-48.8423
-46.7012
-44.6234
-42.6095
-40.6596
-38.7738
-36.9518
-35.1928
-33.4962
-31.8612
-30.2868
-28.7722
-27.3163
-25.918
-24.5762
-23.2896
-22.0569
-20.8768
-19.748
-18.6691
-17.6386
-16.6551
-15.7172
-14.8233
-13.9721
-13.1621
-12.3919
-11.66
-10.9649
-10.3054
-9.68004
-9.08741
-8.52622
-7.99515
-7.49292
-7.01829
-6.57005
-6.14699
-5.74798
-5.37189
-5.01765
-4.68419
-4.3705
-4.07561
-3.79857
-3.53847
-3.29442
-3.0656
-2.85119
-2.65041
-2.46253
-2.28684
-2.12265
-1.96932
-1.82623
-1.6928
-1.56846
-1.45268
-1.34496
-1.24483
-1.15182
-1.06552
-0.985517
-0.911431
-0.842904
-0.7796
-0.721203
-0.667417
-0.617967
-0.572593
-0.531057
-0.493137
-0.458627
-0.427339
-0.399099
-0.37375
-0.351147
-0.331163
-0.313683
-0.298605
-0.285843
-0.27532
-0.266976
-0.26076
-0.256637
-0.254582
-100.219
-96.8248
-93.4693
-90.1574
-86.8943
-83.684
-80.5312
-77.4384
-74.4089
-71.4467
-68.5526
-65.7281
-62.976
-60.2979
-57.6941
-55.1649
-52.7107
-50.3318
-48.0286
-45.8011
-43.6487
-41.571
-39.5669
-37.6355
-35.7759
-33.9867
-32.267
-30.6153
-29.0302
-27.5104
-26.0544
-24.6604
-23.3271
-22.0526
-20.8353
-19.6736
-18.5656
-17.5098
-16.5043
-15.5476
-14.6377
-13.7731
-12.9522
-12.1731
-11.4344
-10.7344
-10.0715
-9.44414
-8.8509
-8.29025
-7.76077
-7.26104
-6.78972
-6.34547
-5.92702
-5.53313
-5.16259
-4.81426
-4.487
-4.17976
-3.89149
-3.62119
-3.36792
-3.13076
-2.90883
-2.70129
-2.50735
-2.32623
-2.15721
-1.99959
-1.85271
-1.71596
-1.58872
-1.47044
-1.36058
-1.25863
-1.16413
-1.07661
-0.995668
-0.920891
-0.85191
-0.788377
-0.729964
-0.676367
-0.627303
-0.582511
-0.541747
-0.504788
-0.47143
-0.441486
-0.414787
-0.391182
-0.370533
-0.352723
-0.337647
-0.325218
-0.315361
-0.308019
-0.303149
-0.300721
-115.57
-111.657
-107.787
-103.968
-100.205
-96.5028
-92.867
-89.3005
-85.807
-82.391
-79.0535
-75.7965
-72.6229
-69.5344
-66.5318
-63.6151
-60.7849
-58.0417
-55.3857
-52.817
-50.335
-47.9389
-45.6278
-43.4006
-41.2561
-39.1929
-37.2097
-35.305
-33.4771
-31.7245
-30.0454
-28.438
-26.9003
-25.4306
-24.0269
-22.6872
-21.4096
-20.192
-19.0325
-17.9291
-16.8799
-15.8829
-14.9362
-14.0378
-13.1859
-12.3787
-11.6142
-10.8908
-10.2067
-9.56017
-8.94957
-8.3733
-7.82977
-7.31748
-6.83493
-6.3807
-5.9534
-5.55171
-5.17433
-4.82002
-4.48759
-4.17589
-3.88383
-3.61034
-3.35441
-3.11508
-2.89143
-2.68256
-2.48765
-2.30589
-2.13652
-1.97881
-1.83208
-1.69568
-1.56899
-1.45143
-1.34245
-1.24153
-1.14819
-1.06195
-0.982407
-0.909141
-0.841781
-0.779974
-0.723395
-0.671741
-0.624732
-0.582112
-0.543644
-0.509114
-0.478325
-0.451103
-0.427292
-0.406754
-0.389369
-0.375035
-0.363669
-0.355202
-0.349586
-0.346786
-130.893
-126.461
-122.078
-117.753
-113.491
-109.298
-105.18
-101.141
-97.1839
-93.315
-89.535
-85.8462
-82.2518
-78.7538
-75.353
-72.0496
-68.8441
-65.7372
-62.7292
-59.8199
-57.0088
-54.295
-51.6775
-49.155
-46.7261
-44.3894
-42.1432
-39.9859
-37.9158
-35.9308
-34.029
-32.2085
-30.467
-28.8024
-27.2126
-25.6952
-24.2482
-22.8692
-21.556
-20.3063
-19.118
-17.9888
-16.9166
-15.8991
-14.9342
-14.0199
-13.1541
-12.3348
-11.56
-10.8277
-10.1362
-9.48349
-8.8679
-8.28768
-7.74115
-7.2267
-6.74275
-6.2878
-5.86038
-5.45909
-5.08259
-4.72956
-4.39877
-4.08902
-3.79916
-3.5281
-3.27479
-3.03824
-2.81748
-2.61162
-2.41979
-2.24117
-2.07499
-1.9205
-1.77702
-1.64387
-1.52044
-1.40614
-1.30042
-1.20276
-1.11266
-1.02968
-0.95339
-0.883388
-0.819308
-0.760805
-0.707564
-0.659293
-0.615725
-0.576616
-0.541745
-0.510914
-0.483946
-0.460684
-0.440994
-0.42476
-0.411887
-0.402298
-0.395937
-0.392765
-146.184
-141.234
-136.339
-131.508
-126.749
-122.066
-117.467
-112.956
-108.537
-104.216
-99.9944
-95.8747
-91.8604
-87.9537
-84.1556
-80.4663
-76.8864
-73.4166
-70.0571
-66.808
-63.6685
-60.6377
-57.7144
-54.8972
-52.1846
-49.5749
-47.0663
-44.657
-42.345
-40.1282
-38.0043
-35.971
-34.0261
-32.1671
-30.3915
-28.6969
-27.0808
-25.5407
-24.0741
-22.6785
-21.3514
-20.0902
-18.8927
-17.7564
-16.6788
-15.6577
-14.6908
-13.7757
-12.9104
-12.0926
-11.3203
-10.5913
-9.90384
-9.25584
-8.64546
-8.07091
-7.53043
-7.02233
-6.54498
-6.09682
-5.67633
-5.28207
-4.91263
-4.5667
-4.24298
-3.94025
-3.65735
-3.39316
-3.14662
-2.91671
-2.70247
-2.50298
-2.31739
-2.14486
-1.98461
-1.83591
-1.69806
-1.57041
-1.45233
-1.34326
-1.24264
-1.14997
-1.06476
-0.986585
-0.915018
-0.849681
-0.790221
-0.736311
-0.687653
-0.643976
-0.605031
-0.570599
-0.54048
-0.514501
-0.492511
-0.47438
-0.460003
-0.449294
-0.44219
-0.438648
-161.439
-155.972
-150.567
-145.232
-139.975
-134.804
-129.725
-124.743
-119.863
-115.091
-110.429
-105.879
-101.446
-97.132
-92.9374
-88.8631
-84.9097
-81.0778
-77.3678
-73.7796
-70.3125
-66.9655
-63.7371
-60.6259
-57.6302
-54.7481
-51.9778
-49.3171
-46.7639
-44.3157
-41.9701
-39.7247
-37.5768
-35.5238
-33.5629
-31.6915
-29.9068
-28.206
-26.5863
-25.0451
-23.5794
-22.1867
-20.8642
-19.6093
-18.4193
-17.2916
-16.2238
-15.2133
-14.2576
-13.3545
-12.5016
-11.6966
-10.9373
-10.2217
-9.54764
-8.91313
-8.31625
-7.75513
-7.22797
-6.73304
-6.26867
-5.83327
-5.42528
-5.04324
-4.68574
-4.35143
-4.039
-3.74725
-3.47498
-3.22107
-2.98448
-2.76418
-2.55921
-2.36868
-2.19171
-2.02749
-1.87526
-1.73428
-1.60389
-1.48343
-1.37232
-1.26997
-1.17588
-1.08954
-1.0105
-0.938348
-0.872683
-0.813147
-0.759412
-0.711176
-0.668168
-0.630142
-0.596881
-0.568191
-0.543906
-0.523884
-0.508006
-0.496179
-0.488334
-0.484422
-176.654
-170.672
-164.757
-158.919
-153.167
-147.509
-141.951
-136.499
-131.16
-125.938
-120.837
-115.858
-111.007
-106.286
-101.696
-97.238
-92.912
-88.719
-84.6594
-80.7331
-76.9392
-73.2767
-69.7441
-66.3396
-63.0616
-59.9079
-56.8765
-53.965
-51.1711
-48.4922
-45.9256
-43.4686
-41.1183
-38.8718
-36.7261
-34.6783
-32.7254
-30.8643
-29.092
-27.4054
-25.8017
-24.2777
-22.8306
-21.4574
-20.1552
-18.9213
-17.7528
-16.6471
-15.6013
-14.6131
-13.6798
-12.7989
-11.9681
-11.1851
-10.4475
-9.75316
-9.10002
-8.48602
-7.90918
-7.3676
-6.85947
-6.38303
-5.93659
-5.51855
-5.12735
-4.76153
-4.41966
-4.10041
-3.80248
-3.52465
-3.26575
-3.02469
-2.80041
-2.59192
-2.39827
-2.21857
-2.05199
-1.89773
-1.75505
-1.62324
-1.50165
-1.38966
-1.2867
-1.19222
-1.10574
-1.02678
-0.95493
-0.889783
-0.830983
-0.778202
-0.73114
-0.689531
-0.653135
-0.621741
-0.595167
-0.573258
-0.555884
-0.542942
-0.534357
-0.530077
-191.825
-185.329
-178.907
-172.567
-166.321
-160.177
-154.142
-148.222
-142.424
-136.754
-131.214
-125.808
-120.541
-115.414
-110.43
-105.589
-100.891
-96.3384
-91.9302
-87.6666
-83.547
-79.5699
-75.7338
-72.037
-68.4774
-65.0529
-61.7611
-58.5997
-55.5658
-52.6568
-49.8698
-47.2018
-44.6496
-42.2101
-39.8802
-37.6566
-35.5359
-33.5149
-31.5904
-29.7591
-28.0176
-26.3627
-24.7913
-23.3002
-21.8862
-20.5463
-19.2775
-18.0767
-16.9412
-15.8681
-14.8546
-13.8981
-12.996
-12.1457
-11.3447
-10.5908
-9.88155
-9.21481
-8.58843
-8.00034
-7.44857
-6.93121
-6.44644
-5.99249
-5.5677
-5.17046
-4.79923
-4.45256
-4.12904
-3.82735
-3.54622
-3.28446
-3.04091
-2.81451
-2.60423
-2.40911
-2.22822
-2.06071
-1.90578
-1.76265
-1.63061
-1.50901
-1.3972
-1.29461
-1.2007
-1.11497
-1.03694
-0.966199
-0.90235
-0.845035
-0.793932
-0.748749
-0.709227
-0.675137
-0.646281
-0.62249
-0.603624
-0.589572
-0.580249
-0.575602
-206.949
-199.941
-193.012
-186.173
-179.435
-172.806
-166.295
-159.908
-153.653
-147.536
-141.559
-135.727
-130.044
-124.514
-119.137
-113.914
-108.846
-103.934
-99.1782
-94.5785
-90.1341
-85.8434
-81.7049
-77.7166
-73.8764
-70.1818
-66.6305
-63.2198
-59.9468
-56.8084
-53.8017
-50.9233
-48.1699
-45.5381
-43.0245
-40.6255
-38.3376
-36.1574
-34.0811
-32.1053
-30.2266
-28.4412
-26.7459
-25.1372
-23.6118
-22.1662
-20.7973
-19.5019
-18.2769
-17.1192
-16.0258
-14.9939
-14.0206
-13.1033
-12.2392
-11.4258
-10.6606
-9.94133
-9.26556
-8.63111
-8.03584
-7.47769
-6.95469
-6.46495
-6.00667
-5.57811
-5.17762
-4.80361
-4.45458
-4.12911
-3.82582
-3.54341
-3.28067
-3.03642
-2.80956
-2.59905
-2.4039
-2.22318
-2.05603
-1.90162
-1.75918
-1.62798
-1.50736
-1.39668
-1.29537
-1.20287
-1.1187
-1.04238
-0.973494
-0.911661
-0.856528
-0.807783
-0.765145
-0.728367
-0.697236
-0.671569
-0.651216
-0.636055
-0.625998
-0.620984
-222.022
-214.504
-207.07
-199.733
-192.504
-185.392
-178.407
-171.555
-164.844
-158.281
-151.87
-145.613
-139.516
-133.583
-127.814
-122.211
-116.774
-111.504
-106.402
-101.467
-96.6989
-92.0958
-87.6558
-83.377
-79.2571
-75.2935
-71.4835
-67.8243
-64.3129
-60.946
-57.7203
-54.6322
-51.6783
-48.8548
-46.1581
-43.5844
-41.1299
-38.7908
-36.5634
-34.4437
-32.4281
-30.5127
-28.694
-26.9681
-25.3315
-23.7807
-22.3121
-20.9224
-19.6081
-18.366
-17.193
-16.086
-15.0418
-14.0576
-13.1306
-12.258
-11.4371
-10.6654
-9.94041
-9.25975
-8.62112
-8.02232
-7.46123
-6.93582
-6.44416
-5.98439
-5.55472
-5.15348
-4.77903
-4.42985
-4.10446
-3.80149
-3.51961
-3.25757
-3.01419
-2.78835
-2.57898
-2.38511
-2.20578
-2.04012
-1.8873
-1.74655
-1.61715
-1.49841
-1.38972
-1.29048
-1.20018
-1.1183
-1.0444
-0.978061
-0.918913
-0.866617
-0.820874
-0.781417
-0.748019
-0.720483
-0.698647
-0.682382
-0.671592
-0.666213
-237.041
-229.013
-221.077
-213.243
-205.525
-197.932
-190.475
-183.16
-175.995
-168.988
-162.143
-155.463
-148.953
-142.618
-136.459
-130.477
-124.673
-119.046
-113.599
-108.331
-103.24
-98.3254
-93.5851
-89.0169
-84.6182
-80.3865
-76.3188
-72.4122
-68.6632
-65.0685
-61.6246
-58.3277
-55.1739
-52.1595
-49.2804
-46.5326
-43.9121
-41.4148
-39.0366
-36.7736
-34.6216
-32.5767
-30.6349
-28.7923
-27.045
-25.3893
-23.8214
-22.3376
-20.9344
-19.6084
-18.356
-17.174
-16.0593
-15.0085
-14.0188
-13.0871
-12.2107
-11.3868
-10.6128
-9.8861
-9.20427
-8.56497
-7.96592
-7.40498
-6.88006
-6.38919
-5.93046
-5.50207
-5.1023
-4.72949
-4.3821
-4.05864
-3.75769
-3.47792
-3.21808
-2.97696
-2.75343
-2.54644
-2.35499
-2.17812
-2.01497
-1.8647
-1.72654
-1.59977
-1.48372
-1.37778
-1.28136
-1.19394
-1.11504
-1.04422
-0.981071
-0.925238
-0.8764
-0.834275
-0.798617
-0.769218
-0.745905
-0.72854
-0.717021
-0.711278
-252
-243.466
-235.029
-226.701
-218.496
-210.424
-202.496
-194.719
-187.102
-179.653
-172.375
-165.274
-158.354
-151.619
-145.071
-138.712
-132.541
-126.559
-120.768
-115.167
-109.755
-104.531
-99.4913
-94.6348
-89.9585
-85.4597
-81.1353
-76.9821
-72.9965
-69.175
-65.5137
-62.0087
-58.656
-55.4513
-52.3905
-49.4692
-46.6833
-44.0284
-41.5002
-39.0944
-36.8066
-34.6326
-32.5683
-30.6094
-28.7518
-26.9916
-25.3247
-23.7473
-22.2556
-20.8459
-19.5145
-18.2579
-17.0728
-15.9557
-14.9035
-13.9131
-12.9813
-12.1055
-11.2826
-10.51
-9.78516
-9.1055
-8.46866
-7.87231
-7.31426
-6.79241
-6.30473
-5.84931
-5.4243
-5.02797
-4.65866
-4.31478
-3.99484
-3.69742
-3.42117
-3.16483
-2.9272
-2.70715
-2.50361
-2.31558
-2.14213
-1.98238
-1.8355
-1.70073
-1.57736
-1.46473
-1.36223
-1.26929
-1.18541
-1.11012
-1.04299
-0.98363
-0.93171
-0.886927
-0.849019
-0.817764
-0.79298
-0.774519
-0.762273
-0.756167
-266.898
-257.86
-248.923
-240.103
-231.413
-222.863
-214.467
-206.23
-198.163
-190.273
-182.566
-175.044
-167.715
-160.582
-153.648
-146.912
-140.376
-134.041
-127.908
-121.976
-116.244
-110.71
-105.373
-100.229
-95.2766
-90.5118
-85.9318
-81.533
-77.3119
-73.2644
-69.3867
-65.6745
-62.1235
-58.7294
-55.4876
-52.3937
-49.4431
-46.6313
-43.9536
-41.4055
-38.9825
-36.68
-34.4936
-32.4189
-30.4515
-28.5873
-26.8218
-25.1512
-23.5713
-22.0782
-20.6681
-19.3373
-18.082
-16.8989
-15.7846
-14.7356
-13.7488
-12.8211
-11.9496
-11.1313
-10.3636
-9.6438
-8.9693
-8.3377
-7.74666
-7.19396
-6.67745
-6.1951
-5.74497
-5.32521
-4.93406
-4.56986
-4.231
-3.916
-3.62342
-3.35193
-3.10025
-2.86719
-2.65162
-2.45247
-2.26877
-2.09957
-1.94401
-1.80127
-1.67061
-1.55132
-1.44276
-1.34433
-1.25549
-1.17575
-1.10465
-1.04178
-0.98679
-0.939359
-0.89921
-0.866108
-0.839859
-0.820307
-0.807336
-0.80087
-281.729
-272.189
-262.756
-253.446
-244.272
-235.248
-226.385
-217.69
-209.175
-200.847
-192.711
-184.772
-177.035
-169.506
-162.186
-155.076
-148.177
-141.49
-135.016
-128.754
-122.704
-116.863
-111.229
-105.799
-100.571
-95.5416
-90.7071
-86.0639
-81.6081
-77.3358
-73.2426
-69.3241
-65.5758
-61.993
-58.5711
-55.3053
-52.1907
-49.2226
-46.3961
-43.7064
-41.1487
-38.7183
-36.4104
-34.2204
-32.1438
-30.1759
-28.3123
-26.5489
-24.8812
-23.3051
-21.8166
-20.4118
-19.0869
-17.838
-16.6617
-15.5544
-14.5128
-13.5336
-12.6136
-11.7499
-10.9395
-10.1797
-9.46773
-8.80103
-8.17715
-7.59373
-7.04852
-6.53937
-6.06422
-5.62114
-5.20825
-4.8238
-4.46612
-4.13361
-3.82478
-3.5382
-3.27253
-3.02652
-2.79897
-2.58876
-2.39485
-2.21624
-2.05204
-1.90137
-1.76344
-1.63753
-1.52293
-1.41904
-1.32526
-1.24109
-1.16603
-1.09967
-1.04163
-0.991561
-0.94918
-0.914239
-0.886531
-0.865892
-0.852201
-0.845375
-296.492
-286.451
-276.524
-266.726
-257.072
-247.575
-238.247
-229.097
-220.135
-211.371
-202.809
-194.453
-186.312
-178.388
-170.684
-163.201
-155.941
-148.904
-142.091
-135.501
-129.133
-122.986
-117.057
-111.343
-105.841
-100.548
-95.46
-90.5735
-85.8843
-81.388
-77.0803
-72.9565
-69.0118
-65.2413
-61.6401
-58.2032
-54.9254
-51.8018
-48.8272
-45.9966
-43.3049
-40.7471
-38.3183
-36.0135
-33.828
-31.757
-29.7959
-27.94
-26.1849
-24.5262
-22.9598
-21.4814
-20.087
-18.7727
-17.5348
-16.3694
-15.2732
-14.2427
-13.2746
-12.3656
-11.5128
-10.7131
-9.96382
-9.26219
-8.60562
-7.99163
-7.41785
-6.88202
-6.38198
-5.91568
-5.48116
-5.07656
-4.70014
-4.35021
-4.02519
-3.7236
-3.44401
-3.18511
-2.94563
-2.72441
-2.52033
-2.33237
-2.15956
-2.001
-1.85585
-1.72333
-1.60273
-1.49339
-1.3947
-1.30612
-1.22713
-1.15729
-1.09621
-1.04352
-0.998916
-0.962144
-0.932984
-0.911264
-0.896855
-0.889672
-311.181
-300.643
-290.224
-279.94
-269.808
-259.84
-250.05
-240.447
-231.041
-221.843
-212.856
-204.087
-195.542
-187.226
-179.14
-171.287
-163.667
-156.281
-149.13
-142.214
-135.531
-129.079
-122.856
-116.859
-111.085
-105.529
-100.189
-95.0607
-90.1392
-85.4202
-80.8991
-76.571
-72.4308
-68.4736
-64.6939
-61.0867
-57.6466
-54.3682
-51.2462
-48.2754
-45.4503
-42.7658
-40.2167
-37.7977
-35.504
-33.3304
-31.272
-29.3242
-27.4822
-25.7413
-24.0973
-22.5456
-21.0822
-19.7028
-18.4035
-17.1804
-16.0299
-14.9483
-13.9322
-12.9782
-12.0831
-11.2439
-10.4575
-9.72106
-9.03196
-8.38756
-7.78535
-7.22297
-6.69816
-6.20875
-5.75271
-5.32807
-4.933
-4.56573
-4.22461
-3.90807
-3.61464
-3.34291
-3.09157
-2.85938
-2.6452
-2.44792
-2.26655
-2.10013
-1.94779
-1.80871
-1.68214
-1.56738
-1.4638
-1.37083
-1.28793
-1.21463
-1.15052
-1.09522
-1.04841
-1.00981
-0.979207
-0.956411
-0.941288
-0.933749
-325.793
-314.76
-303.852
-293.085
-282.477
-272.041
-261.792
-251.738
-241.89
-232.26
-222.851
-213.67
-204.724
-196.017
-187.552
-179.33
-171.352
-163.62
-156.133
-148.892
-141.895
-135.14
-128.625
-122.346
-116.301
-110.485
-104.894
-99.5245
-94.3719
-89.4313
-84.6979
-80.1665
-75.832
-71.6889
-67.7318
-63.9552
-60.3535
-56.9212
-53.6526
-50.5422
-47.5845
-44.774
-42.1051
-39.5726
-37.1711
-34.8955
-32.7405
-30.7012
-28.7726
-26.9501
-25.2288
-23.6043
-22.0721
-20.628
-19.2677
-17.9872
-16.7826
-15.6503
-14.5864
-13.5876
-12.6505
-11.7718
-10.9485
-10.1775
-9.45608
-8.78141
-8.15093
-7.56214
-7.01269
-6.5003
-6.02284
-5.57826
-5.16464
-4.78012
-4.42299
-4.09159
-3.78437
-3.49988
-3.23674
-2.99365
-2.76941
-2.56287
-2.37298
-2.19875
-2.03925
-1.89364
-1.76112
-1.64098
-1.53254
-1.4352
-1.3484
-1.27167
-1.20454
-1.14665
-1.09764
-1.05723
-1.02519
-1.00132
-0.985489
-0.977596
-340.325
-328.8
-317.405
-306.158
-295.077
-284.176
-273.469
-262.967
-252.68
-242.62
-232.792
-223.201
-213.856
-204.761
-195.918
-187.329
-178.995
-170.918
-163.097
-155.533
-148.224
-141.168
-134.362
-127.804
-121.488
-115.413
-109.573
-103.964
-98.5813
-93.4204
-88.4758
-83.7423
-79.2144
-74.8865
-70.7529
-66.8079
-63.0455
-59.4601
-56.0457
-52.7966
-49.707
-46.7711
-43.9832
-41.3377
-38.8291
-36.452
-34.2009
-32.0706
-30.056
-28.1522
-26.3541
-24.6572
-23.0566
-21.5481
-20.1271
-18.7895
-17.5312
-16.3483
-15.2371
-14.1937
-13.2148
-12.2969
-11.4369
-10.6315
-9.87786
-9.1731
-8.5145
-7.89945
-7.32549
-6.79024
-6.29149
-5.82708
-5.395
-4.99334
-4.62027
-4.27409
-3.95317
-3.65599
-3.38111
-3.12718
-2.89294
-2.67719
-2.47883
-2.29682
-2.13021
-1.97811
-1.83968
-1.71417
-1.6009
-1.49921
-1.40855
-1.32839
-1.25827
-1.19779
-1.1466
-1.10439
-1.07092
-1.04599
-1.02945
-1.0212
-354.772
-342.758
-330.88
-319.156
-307.604
-296.24
-285.078
-274.13
-263.407
-252.92
-242.674
-232.677
-222.935
-213.453
-204.235
-195.282
-186.594
-178.174
-170.021
-162.136
-154.517
-147.161
-140.067
-133.229
-126.646
-120.312
-114.224
-108.377
-102.766
-97.3863
-92.2319
-87.2975
-82.5773
-78.0657
-73.7566
-69.6441
-65.722
-61.9844
-58.4251
-55.038
-51.8172
-48.7567
-45.8504
-43.0926
-40.4775
-37.9995
-35.6528
-33.4321
-31.332
-29.3473
-27.473
-25.7039
-24.0355
-22.4628
-20.9815
-19.5872
-18.2755
-17.0424
-15.8839
-14.7963
-13.7758
-12.819
-11.9224
-11.0828
-10.2972
-9.56253
-8.87597
-8.23481
-7.63648
-7.07851
-6.55858
-6.07446
-5.62404
-5.20532
-4.81642
-4.45554
-4.121
-3.8112
-3.52465
-3.25994
-3.01575
-2.79084
-2.58406
-2.39433
-2.22065
-2.06208
-1.91778
-1.78695
-1.66886
-1.56286
-1.46835
-1.38478
-1.31169
-1.24864
-1.19527
-1.15127
-1.11638
-1.09039
-1.07315
-1.06456
-369.133
-356.632
-344.273
-332.074
-320.055
-308.231
-296.618
-285.226
-274.069
-263.157
-252.497
-242.095
-231.959
-222.094
-212.502
-203.186
-194.147
-185.386
-176.903
-168.699
-160.771
-153.118
-145.736
-138.622
-131.772
-125.182
-118.848
-112.764
-106.926
-101.328
-95.9652
-90.831
-85.9199
-81.2256
-76.7421
-72.4631
-68.3823
-64.4933
-60.79
-57.2658
-53.9147
-50.7302
-47.7063
-44.8369
-42.116
-39.5376
-37.0959
-34.7853
-32.6003
-30.5352
-28.585
-26.7444
-25.0084
-23.3721
-21.8308
-20.38
-19.0152
-17.7322
-16.5269
-15.3952
-14.3334
-13.3378
-12.405
-11.5314
-10.714
-9.9496
-9.23524
-8.56813
-7.94558
-7.36503
-6.82406
-6.32034
-5.85168
-5.41602
-5.01137
-4.63589
-4.2878
-3.96547
-3.66732
-3.3919
-3.13782
-2.90381
-2.68866
-2.49125
-2.31054
-2.14555
-1.99541
-1.85928
-1.73641
-1.62612
-1.52778
-1.44084
-1.36478
-1.29918
-1.24366
-1.19787
-1.16157
-1.13453
-1.11659
-1.10765
-383.402
-370.418
-357.581
-344.911
-332.427
-320.146
-308.084
-296.252
-284.663
-273.33
-262.258
-251.453
-240.925
-230.679
-220.717
-211.041
-201.652
-192.552
-183.742
-175.22
-166.986
-159.037
-151.37
-143.981
-136.866
-130.021
-123.442
-117.123
-111.059
-105.245
-99.6748
-94.3422
-89.2412
-84.3655
-79.7086
-75.2642
-71.0257
-66.9864
-63.1399
-59.4795
-55.9988
-52.6912
-49.5505
-46.5701
-43.744
-41.0659
-38.5299
-36.13
-33.8604
-31.7156
-29.69
-27.7782
-25.9751
-24.2756
-22.6747
-21.1678
-19.7503
-18.4177
-17.1657
-15.9903
-14.8875
-13.8534
-12.8845
-11.9772
-11.1282
-10.3342
-9.59224
-8.89934
-8.25273
-7.64974
-7.08785
-6.56466
-6.07789
-5.62538
-5.20509
-4.81509
-4.45355
-4.11876
-3.80909
-3.52301
-3.25912
-3.01606
-2.79259
-2.58755
-2.39985
-2.22849
-2.07254
-1.93115
-1.80354
-1.68898
-1.58684
-1.49653
-1.41754
-1.34941
-1.29173
-1.24418
-1.20647
-1.17839
-1.15975
-1.15046
-397.577
-384.113
-370.801
-357.663
-344.717
-331.982
-319.474
-307.205
-295.188
-283.435
-271.954
-260.75
-249.832
-239.207
-228.877
-218.843
-209.107
-199.671
-190.535
-181.698
-173.16
-164.917
-156.966
-149.304
-141.926
-134.828
-128.006
-121.453
-115.165
-109.136
-103.36
-97.8301
-92.5405
-87.4845
-82.6555
-78.0468
-73.6515
-69.4629
-65.4742
-61.6785
-58.0691
-54.6393
-51.3824
-48.2919
-45.3613
-42.5842
-39.9544
-37.4658
-35.1123
-32.8882
-30.7876
-28.8052
-26.9354
-25.173
-23.513
-21.9504
-20.4805
-19.0986
-17.8003
-16.5815
-15.4379
-14.3656
-13.3609
-12.42
-11.5396
-10.7163
-9.94687
-9.22836
-8.55784
-7.93255
-7.34989
-6.80736
-6.30259
-5.83336
-5.39753
-4.99311
-4.61821
-4.27103
-3.94991
-3.65326
-3.37961
-3.12757
-2.89584
-2.68322
-2.48858
-2.31088
-2.14917
-2.00255
-1.87021
-1.75142
-1.64551
-1.55186
-1.46995
-1.3993
-1.33949
-1.29018
-1.25108
-1.22195
-1.20263
-1.193
-411.653
-397.713
-383.93
-370.326
-356.922
-343.736
-330.785
-318.082
-305.639
-293.471
-281.582
-269.982
-258.678
-247.677
-236.98
-226.591
-216.511
-206.74
-197.281
-188.131
-179.291
-170.756
-162.523
-154.59
-146.951
-139.602
-132.538
-125.753
-119.243
-113
-107.019
-101.294
-95.817
-90.582
-85.582
-80.8101
-76.2592
-71.9223
-67.7924
-63.8623
-60.1251
-56.5738
-53.2016
-50.0017
-46.9673
-44.0919
-41.369
-38.7923
-36.3555
-34.0526
-31.8777
-29.8251
-27.8891
-26.0643
-24.3455
-22.7276
-21.2056
-19.7748
-18.4306
-17.1686
-15.9845
-14.8742
-13.8339
-12.8598
-11.9482
-11.0957
-10.2991
-9.5551
-8.86083
-8.21341
-7.61012
-7.04838
-6.52574
-6.03989
-5.58864
-5.1699
-4.78172
-4.42225
-4.08976
-3.78261
-3.49927
-3.2383
-2.99837
-2.77822
-2.57669
-2.3927
-2.22526
-2.07345
-1.93643
-1.81344
-1.70377
-1.60681
-1.52199
-1.44884
-1.38691
-1.33586
-1.29537
-1.26522
-1.24521
-1.23524
-425.628
-411.215
-396.964
-382.898
-369.039
-355.405
-342.015
-328.88
-316.015
-303.433
-291.142
-279.147
-267.46
-256.085
-245.026
-234.284
-223.861
-213.759
-203.978
-194.518
-185.377
-176.553
-168.041
-159.838
-151.94
-144.341
-137.037
-130.023
-123.291
-116.836
-110.653
-104.733
-99.0698
-93.6571
-88.4874
-83.5535
-78.8481
-74.364
-70.0938
-66.0303
-62.1662
-58.4944
-55.0077
-51.6992
-48.5618
-45.5888
-42.7734
-40.1092
-37.5897
-35.2086
-32.9599
-30.8376
-28.8359
-26.9491
-25.172
-23.4991
-21.9255
-20.4461
-19.0563
-17.7514
-16.5271
-15.3792
-14.3036
-13.2963
-12.3538
-11.4724
-10.6487
-9.87948
-9.16165
-8.49225
-7.86847
-7.28766
-6.74728
-6.24494
-5.77836
-5.34541
-4.94405
-4.57238
-4.2286
-3.91103
-3.61807
-3.34824
-3.10016
-2.87253
-2.66416
-2.47393
-2.3008
-2.14384
-2.00217
-1.875
-1.76161
-1.66136
-1.57366
-1.49803
-1.434
-1.38121
-1.33935
-1.30817
-1.28749
-1.27717
-439.498
-424.615
-409.899
-395.376
-381.065
-366.987
-353.16
-339.597
-326.313
-313.321
-300.629
-288.244
-276.176
-264.43
-253.01
-241.918
-231.156
-220.725
-210.625
-200.857
-191.418
-182.306
-173.517
-165.047
-156.891
-149.045
-141.503
-134.26
-127.309
-120.644
-114.258
-108.146
-102.298
-96.7091
-91.3709
-86.2762
-81.4175
-76.7873
-72.3779
-68.182
-64.192
-60.4006
-56.8003
-53.3839
-50.1443
-47.0744
-44.1673
-41.4162
-38.8146
-36.356
-34.034
-31.8425
-29.7755
-27.8273
-25.9923
-24.2649
-22.64
-21.1124
-19.6773
-18.3299
-17.0657
-15.8804
-14.7697
-13.7296
-12.7564
-11.8462
-10.9957
-10.2014
-9.4602
-8.76898
-8.12488
-7.52514
-6.96716
-6.44844
-5.96666
-5.5196
-5.10516
-4.72138
-4.3664
-4.03847
-3.73597
-3.45735
-3.20119
-2.96614
-2.75098
-2.55455
-2.37578
-2.2137
-2.06742
-1.9361
-1.81902
-1.7155
-1.62495
-1.54684
-1.48073
-1.42622
-1.383
-1.3508
-1.32944
-1.31879
-453.26
-437.91
-422.734
-407.756
-392.997
-378.478
-364.218
-350.231
-336.53
-323.132
-310.042
-297.27
-284.823
-272.71
-260.932
-249.493
-238.394
-227.636
-217.22
-207.146
-197.412
-188.014
-178.95
-170.215
-161.804
-153.712
-145.934
-138.464
-131.295
-124.421
-117.836
-111.532
-105.501
-99.7372
-94.2319
-88.9777
-83.9668
-79.1916
-74.6442
-70.3169
-66.202
-62.2918
-58.5788
-55.0554
-51.7144
-48.5483
-45.5502
-42.713
-40.03
-37.4943
-35.0996
-32.8395
-30.7079
-28.6987
-26.8061
-25.0247
-23.3489
-21.7735
-20.2934
-18.9038
-17.6001
-16.3776
-15.2321
-14.1595
-13.1558
-12.2172
-11.34
-10.5208
-9.75642
-9.04356
-8.37929
-7.76077
-7.18531
-6.65036
-6.15349
-5.69243
-5.26502
-4.86922
-4.50312
-4.16493
-3.85295
-3.56561
-3.30142
-3.05902
-2.83712
-2.63454
-2.45017
-2.28302
-2.13215
-1.99672
-1.87597
-1.76921
-1.67583
-1.59528
-1.52709
-1.47088
-1.4263
-1.3931
-1.37107
-1.36009
-466.909
-451.098
-435.465
-420.035
-404.832
-389.876
-375.186
-360.778
-346.665
-332.863
-319.379
-306.222
-293.4
-280.922
-268.79
-257.007
-245.573
-234.491
-223.762
-213.384
-203.357
-193.676
-184.339
-175.341
-166.676
-158.341
-150.328
-142.633
-135.249
-128.168
-121.385
-114.89
-108.678
-102.741
-97.0697
-91.6572
-86.4955
-81.5764
-76.8921
-72.4345
-68.1957
-64.1677
-60.3429
-56.7134
-53.2717
-50.0104
-46.9219
-43.9993
-41.2355
-38.6235
-36.1566
-33.8285
-31.6326
-29.5629
-27.6134
-25.7783
-24.052
-22.4291
-20.9045
-19.4731
-18.1301
-16.8708
-15.6908
-14.5859
-13.552
-12.5851
-11.6815
-10.8377
-10.0502
-9.3159
-8.63163
-7.99448
-7.40169
-6.85063
-6.3388
-5.86385
-5.42357
-5.01585
-4.63873
-4.29035
-3.96898
-3.67298
-3.40084
-3.15114
-2.92256
-2.71387
-2.52396
-2.35177
-2.19636
-2.05686
-1.93247
-1.82249
-1.72629
-1.64332
-1.57308
-1.51517
-1.46925
-1.43505
-1.41236
-1.40105
-480.444
-464.174
-448.088
-432.211
-416.567
-401.177
-386.062
-371.236
-356.714
-342.512
-328.637
-315.098
-301.905
-289.065
-276.582
-264.457
-252.692
-241.289
-230.248
-219.57
-209.252
-199.29
-189.682
-180.423
-171.508
-162.931