/*--------------------------------*- C++ -*----------------------------------*\
| =========                 |                                                 |
| \\      /  F ield         | OpenFOAM: The Open Source CFD Toolbox           |
|  \\    /   O peration     | Version:  2406                                  |
|   \\  /    A nd           | Website:  www.openfoam.com                      |
|    \\/     M anipulation  |                                                 |
\*---------------------------------------------------------------------------*/
FoamFile
{
    version     2.0;
    format      ascii;
    arch        "LSB;label=32;scalar=64";
    class       volScalarField;
    location    "110";
    object      gradTy;
}
// * * * * * * * * * * * * * * * * * * * * * * * * * * * * * * * * * * * * * //

dimensions      [0 -1 0 1 0 0 0];

internalField   nonuniform List<scalar> 
20000
(
144.815
148.654
151.558
153.605
154.867
155.414
155.313
154.625
153.411
151.725
149.622
147.149
144.354
141.278
137.963
134.446
130.76
126.938
123.01
119.001
114.937
110.84
106.729
102.623
98.5396
94.4921
90.4938
86.5563
82.6897
78.9026
75.2026
71.5959
68.0879
64.6828
61.3841
58.1942
55.1151
52.1478
49.293
46.5505
43.9199
41.4003
38.9902
36.6881
34.4918
32.3992
30.4079
28.5151
26.718
25.0138
23.3995
21.8719
20.4278
19.0642
17.7779
16.5656
15.4242
14.3506
13.3416
12.3944
11.5058
10.6731
9.89327
9.16369
8.48166
7.84459
7.25
6.69549
6.17874
5.69754
5.24975
4.83334
4.44636
4.08695
3.75332
3.44379
3.15675
2.89067
2.64408
2.41562
2.20395
2.00785
1.82613
1.65767
1.50141
1.35634
1.2215
1.09598
0.978923
0.869492
0.766905
0.670406
0.579274
0.492813
0.410351
0.331237
0.25484
0.18054
0.10773
0.0358112
144.779
148.617
151.521
153.567
154.829
155.376
155.275
154.587
153.373
151.688
149.585
147.113
144.318
141.243
137.929
134.412
130.728
126.907
122.98
118.972
114.909
110.812
106.703
102.598
98.5153
94.4687
90.4715
86.535
82.6693
78.8832
75.184
71.5783
68.0711
64.6669
61.3689
58.1798
55.1015
52.1349
49.2808
46.539
43.9091
41.3901
38.9806
36.679
34.4833
32.3912
30.4004
28.508
26.7114
25.0077
23.3937
21.8665
20.4228
19.0595
17.7735
16.5615
15.4204
14.347
13.3384
12.3913
11.503
10.6704
9.89083
9.16143
8.47957
7.84266
7.24822
6.69384
6.17722
5.69614
5.24846
4.83215
4.44527
4.08594
3.75239
3.44294
3.15597
2.88995
2.64343
2.41502
2.20341
2.00736
1.82568
1.65727
1.50104
1.35601
1.2212
1.09571
0.978682
0.869278
0.766716
0.670241
0.579131
0.492691
0.410249
0.331156
0.254777
0.180495
0.107703
0.0358024
144.707
148.544
151.446
153.491
154.753
155.299
155.198
154.511
153.297
151.613
149.511
147.04
144.247
141.174
137.861
134.346
130.663
126.845
122.919
118.913
114.852
110.758
106.65
102.548
98.4667
94.4221
90.4268
86.4923
82.6285
78.8442
75.1469
71.5429
68.0375
64.6349
61.3386
58.1511
55.0743
52.1092
49.2565
46.5161
43.8874
41.3696
38.9614
36.6609
34.4663
32.3752
30.3854
28.494
26.6983
24.9953
23.3822
21.8557
20.4127
19.0501
17.7647
16.5533
15.4128
14.3399
13.3318
12.3852
11.4973
10.6652
9.88595
9.15691
8.47538
7.83879
7.24464
6.69054
6.17417
5.69333
5.24587
4.82977
4.44307
4.08392
3.75054
3.44124
3.15442
2.88853
2.64213
2.41383
2.20232
2.00637
1.82478
1.65645
1.5003
1.35534
1.2206
1.09517
0.978199
0.868849
0.766337
0.66991
0.578846
0.492448
0.410047
0.330992
0.254651
0.180406
0.10765
0.0357847
144.6
148.434
151.334
153.378
154.638
155.184
155.083
154.396
153.184
151.501
149.401
146.931
144.14
141.069
137.759
134.247
130.567
126.751
122.828
118.825
114.767
110.675
106.571
102.472
98.3938
94.3522
90.3599
86.4282
82.5673
78.7858
75.0913
71.49
67.9871
64.5871
61.2932
58.1081
55.0335
52.0706
49.22
46.4816
43.8549
41.339
38.9325
36.6337
34.4407
32.3513
30.3629
28.4729
26.6785
24.9768
23.3649
21.8395
20.3976
19.036
17.7516
16.541
15.4013
14.3293
13.3219
12.376
11.4888
10.6573
9.87863
9.15013
8.46911
7.83298
7.23928
6.68558
6.1696
5.68911
5.24199
4.82619
4.43978
4.0809
3.74777
3.4387
3.15208
2.88639
2.64017
2.41204
2.20069
2.00488
1.82343
1.65522
1.49919
1.35434
1.2197
1.09436
0.977475
0.868206
0.76577
0.669415
0.578418
0.492084
0.409744
0.330747
0.254463
0.180273
0.107571
0.0357583
144.458
148.287
151.185
153.226
154.485
155.031
154.93
154.244
153.032
151.351
149.253
146.786
143.998
140.93
137.623
134.114
130.438
126.625
122.707
118.708
114.654
110.566
106.466
102.37
98.2966
94.259
90.2706
86.3428
82.4857
78.708
75.0171
71.4193
67.92
64.5233
61.2326
58.0507
54.9791
52.0192
49.1714
46.4357
43.8116
41.2982
38.894
36.5976
34.4067
32.3193
30.3329
28.4447
26.6521
24.9522
23.3418
21.8179
20.3775
19.0172
17.734
16.5247
15.3861
14.3152
13.3087
12.3638
11.4775
10.6468
9.86888
9.14109
8.46074
7.82525
7.23213
6.67898
6.16351
5.68349
5.23681
4.82143
4.4354
4.07687
3.74407
3.4353
3.14897
2.88354
2.63756
2.40966
2.19852
2.0029
1.82163
1.65359
1.49771
1.353
1.21849
1.09328
0.97651
0.867349
0.765015
0.668754
0.577847
0.491598
0.409339
0.330421
0.254212
0.180095
0.107465
0.035723
144.279
148.104
150.998
153.037
154.294
154.84
154.738
154.053
152.843
151.164
149.068
146.605
143.82
140.756
137.453
133.948
130.277
126.469
122.555
118.561
114.512
110.43
106.334
102.244
98.1751
94.1425
90.1591
86.2361
82.3838
78.6107
74.9244
71.3311
67.836
64.4435
61.157
57.9789
54.9112
51.9549
49.1106
46.3783
43.7575
41.2471
38.846
36.5523
34.3642
32.2794
30.2954
28.4096
26.6192
24.9213
23.3129
21.791
20.3523
18.9937
17.7121
16.5043
15.3671
14.2975
13.2923
12.3486
11.4633
10.6336
9.85669
9.1298
8.45029
7.81558
7.22319
6.67073
6.1559
5.67647
5.23034
4.81547
4.42992
4.07183
3.73944
3.43106
3.14508
2.87998
2.63431
2.40668
2.19581
2.00043
1.81938
1.65155
1.49586
1.35133
1.21699
1.09193
0.975305
0.866279
0.76407
0.667929
0.577133
0.490992
0.408834
0.330013
0.253898
0.179873
0.107332
0.0356789
144.065
147.884
150.774
152.81
154.066
154.61
154.509
153.825
152.617
150.94
148.847
146.387
143.606
140.547
137.249
133.75
130.083
126.281
122.373
118.385
114.342
110.266
106.176
102.092
98.0294
94.0028
90.0253
86.1082
82.2616
78.4941
74.8132
71.2252
67.7354
64.3479
61.0662
57.8929
54.8297
51.8778
49.0377
46.3095
43.6925
41.1859
38.7883
36.4981
34.3132
32.2315
30.2504
28.3674
26.5797
24.8843
23.2783
21.7586
20.3221
18.9655
17.6858
16.4798
15.3443
14.2763
13.2726
12.3302
11.4463
10.6178
9.84206
9.11626
8.43775
7.80399
7.21248
6.66084
6.14676
5.66805
5.22258
4.80833
4.42335
4.06579
3.7339
3.42597
3.14042
2.87571
2.6304
2.40311
2.19255
1.99746
1.81669
1.6491
1.49365
1.34932
1.21518
1.09031
0.973859
0.864994
0.762937
0.666938
0.576278
0.490264
0.408228
0.329524
0.253522
0.179606
0.107173
0.035626
143.815
147.628
150.512
152.545
153.799
154.342
154.241
153.558
152.352
150.678
148.589
146.134
143.357
140.303
137.011
133.518
129.858
126.063
122.161
118.18
114.144
110.075
105.992
101.915
97.8596
93.84
89.8693
85.959
82.119
78.3581
74.6836
71.1018
67.618
64.2364
60.9604
57.7926
54.7347
51.7879
48.9528
46.2292
43.6168
41.1146
38.7211
36.4349
34.2538
32.1756
30.198
28.3183
26.5337
24.8412
23.238
21.7209
20.2869
18.9327
17.6552
16.4513
15.3177
14.2515
13.2496
12.3089
11.4264
10.5994
9.82501
9.10046
8.42314
7.79047
7.19998
6.6493
6.13612
5.65823
5.21354
4.8
4.41569
4.05875
3.72743
3.42004
3.13498
2.87073
2.62584
2.39895
2.18875
1.994
1.81354
1.64624
1.49106
1.34699
1.21308
1.08843
0.972172
0.863496
0.761616
0.665783
0.57528
0.489415
0.407521
0.328953
0.253083
0.179295
0.106987
0.0355643
143.53
147.335
150.214
152.243
153.494
154.036
153.935
153.254
152.05
150.38
148.295
145.844
143.073
140.025
136.739
133.253
129.6
125.813
121.919
117.946
113.918
109.856
105.782
101.713
97.6656
93.6539
89.6911
85.7886
81.9562
78.2027
74.5355
70.9609
67.4839
64.1091
60.8396
57.678
54.6262
51.6852
48.8557
46.1376
43.5304
41.0331
38.6444
36.3626
34.1859
32.1118
30.1381
28.2621
26.4811
24.792
23.1919
21.6779
20.2467
18.8951
17.6202
16.4186
15.2874
14.2233
13.2233
12.2845
11.4038
10.5784
9.80554
9.08242
8.40644
7.77503
7.18571
6.63612
6.12395
5.64702
5.2032
4.79049
4.40694
4.05071
3.72004
3.41326
3.12876
2.86504
2.62064
2.3942
2.18441
1.99005
1.80995
1.64298
1.4881
1.34432
1.21067
1.08627
0.970246
0.861786
0.760107
0.664464
0.57414
0.488445
0.406714
0.328302
0.252581
0.17894
0.106775
0.0354939
143.21
147.006
149.879
151.903
153.151
153.692
153.592
152.912
151.711
150.044
147.964
145.518
142.754
139.712
136.434
132.956
129.311
125.532
121.647
117.683
113.663
109.611
105.546
101.486
97.4475
93.4448
89.4908
85.597
81.7732
78.0281
74.3691
70.8024
67.3332
63.9659
60.7037
57.5492
54.5042
51.5698
48.7466
46.0346
43.4331
40.9414
38.5581
36.2814
34.1095
32.0401
30.0708
28.199
26.4219
24.7366
23.1402
21.6295
20.2014
18.8529
17.5808
16.382
15.2532
14.1915
13.1938
12.257
11.3783
10.5548
9.78364
9.06215
8.38767
7.75767
7.16967
6.6213
6.11028
5.63441
5.19159
4.77979
4.3971
4.04166
3.71174
3.40564
3.12178
2.85864
2.61479
2.38885
2.17954
1.98561
1.80591
1.63931
1.48478
1.34132
1.20797
1.08385
0.968081
0.859862
0.758411
0.662982
0.572859
0.487355
0.405806
0.327569
0.252018
0.178541
0.106537
0.0354147
142.854
146.641
149.506
151.525
152.77
153.31
153.21
152.532
151.334
149.671
147.596
145.157
142.399
139.365
136.095
132.625
128.99
125.22
121.345
117.39
113.381
109.339
105.284
101.234
97.2053
93.2126
89.2684
85.3843
81.57
77.8342
74.1843
70.6264
67.1659
63.8069
60.5528
57.4062
54.3687
51.4417
48.6255
45.9202
43.3252
40.8397
38.4623
36.1913
34.0248
31.9605
29.9961
28.129
26.3563
24.6752
23.0827
21.5757
20.1512
18.8061
17.5372
16.3413
15.2153
14.1563
13.161
12.2266
11.3501
10.5286
9.75933
9.03963
8.36683
7.73839
7.15186
6.60485
6.0951
5.62041
5.17869
4.76792
4.38617
4.03162
3.70252
3.39718
3.11402
2.85154
2.60829
2.38292
2.17413
1.98068
1.80142
1.63524
1.4811
1.33799
1.20497
1.08115
0.965677
0.857727
0.756528
0.661335
0.571436
0.486145
0.404799
0.326756
0.251392
0.178097
0.106273
0.0353267
142.463
146.239
149.097
151.11
152.352
152.89
152.79
152.114
150.919
149.261
147.192
144.759
142.009
138.984
135.723
132.262
128.637
124.877
121.012
117.069
113.07
109.039
104.995
100.957
96.9392
92.9573
89.024
85.1505
81.3466
77.6211
73.9811
70.4331
66.982
63.6322
60.3871
57.249
54.2199
51.3008
48.4924
45.7944
43.2066
40.7279
38.357
36.0922
33.9316
31.873
29.914
28.0519
26.2841
24.6076
23.0195
21.5166
20.0961
18.7546
17.4891
16.2965
15.1737
14.1175
13.125
12.1931
11.319
10.4998
9.73262
9.01489
8.34393
7.71721
7.13228
6.58677
6.07842
5.60503
5.16451
4.75487
4.37417
4.02059
3.69238
3.38788
3.1055
2.84374
2.60116
2.3764
2.16818
1.97526
1.79649
1.63077
1.47704
1.33433
1.20168
1.0782
0.963034
0.85538
0.754458
0.659526
0.569873
0.484815
0.403691
0.325862
0.250704
0.17761
0.105982
0.0352301
142.036
145.802
148.651
150.658
151.896
152.433
152.333
151.659
150.468
148.815
146.751
144.326
141.584
138.568
135.316
131.866
128.252
124.503
120.65
116.718
112.732
108.713
104.681
100.655
96.6491
92.6792
88.7576
84.8957
81.1032
77.3888
73.7598
70.2223
66.7816
63.4418
60.2064
57.0777
54.0577
51.1473
48.3473
45.6574
43.0773
40.606
38.2422
35.9842
33.8301
31.7777
29.8245
27.968
26.2055
24.534
22.9506
21.4523
20.0359
18.6985
17.4368
16.2478
15.1283
14.0753
13.0857
12.1566
11.2851
10.4683
9.7035
8.98792
8.31897
7.69412
7.11094
6.56707
6.06023
5.58826
5.14907
4.74064
4.36108
4.00856
3.68134
3.37775
3.09621
2.83523
2.59338
2.36929
2.16169
1.96935
1.79112
1.62589
1.47262
1.33034
1.19808
1.07497
0.960154
0.852822
0.752201
0.657553
0.568169
0.483365
0.402484
0.324887
0.249955
0.177079
0.105665
0.0351247
141.575
145.328
148.168
150.169
151.403
151.938
151.839
151.166
149.979
148.331
146.275
143.858
141.124
138.118
134.877
131.438
127.835
124.099
120.258
116.339
112.366
108.36
104.341
100.328
96.3352
92.3782
88.4694
84.62
80.8398
77.1375
73.5202
69.9942
66.5647
63.2358
60.0108
56.8923
53.8821
50.9812
48.1902
45.5091
42.9374
40.4741
38.118
35.8673
33.7202
31.6744
29.7276
27.8772
26.1204
24.4543
22.8761
21.3826
19.9709
18.6378
17.3802
16.195
15.0792
14.0296
13.0432
12.1172
11.2485
10.4343
9.67199
8.95873
8.29195
7.66914
7.08785
6.54574
6.04056
5.57012
5.13235
4.72525
4.34692
3.99555
3.66938
3.36678
3.08616
2.82603
2.58496
2.3616
2.15467
1.96296
1.7853
1.62061
1.46784
1.32602
1.19419
1.07148
0.957037
0.850053
0.74976
0.655419
0.566324
0.481796
0.401177
0.323833
0.249143
0.176504
0.105322
0.0350107
141.079
144.819
147.649
149.643
150.872
151.405
151.306
150.636
149.453
147.811
145.762
143.353
140.63
137.634
134.404
130.978
127.387
123.664
119.837
115.932
111.972
107.98
103.976
99.9761
95.9976
92.0544
88.1593
84.3234
80.5565
76.8671
73.2625
69.7489
66.3314
63.0141
59.8005
56.6929
53.6932
50.8025
48.0213
45.3496
42.7869
40.3323
37.9844
35.7416
33.602
31.5634
29.6234
27.7795
26.0288
24.3686
22.7959
21.3077
19.9009
18.5725
17.3193
16.1383
15.0263
13.9804
12.9975
12.0747
11.2091
10.3978
9.6381
8.92733
8.26289
7.64226
7.06301
6.5228
6.01939
5.5506
5.11436
4.70869
4.33169
3.98155
3.65653
3.35498
3.07535
2.81612
2.5759
2.35332
2.14712
1.95608
1.77905
1.61493
1.4627
1.32137
1.19001
1.06773
0.953684
0.847075
0.747133
0.653123
0.56434
0.480108
0.399772
0.322698
0.24827
0.175886
0.104953
0.0348881
140.548
144.274
147.093
149.079
150.304
150.835
150.737
150.069
148.891
147.255
145.213
142.814
140.1
137.116
133.898
130.484
126.908
123.199
119.386
115.495
111.551
107.574
103.584
99.5997
95.6362
91.7079
87.8274
84.006
80.2532
76.5778
72.9867
69.4864
66.0817
62.7769
59.5754
56.4795
53.4911
50.6113
47.8406
45.1789
42.6258
40.1804
37.8414
35.6071
33.4755
31.4446
29.5119
27.6749
25.9308
24.2769
22.7101
21.2275
19.826
18.5025
17.2541
16.0775
14.9698
13.9278
12.9486
12.0292
11.1669
10.3586
9.60182
8.89373
8.23179
7.6135
7.03643
6.49826
5.99673
5.52971
5.09511
4.69097
4.31539
3.96656
3.64277
3.34236
3.06377
2.80553
2.56621
2.34447
2.13904
1.94872
1.77235
1.60886
1.4572
1.3164
1.18553
1.06371
0.950096
0.843888
0.744322
0.650665
0.562217
0.478302
0.398268
0.321484
0.247336
0.175224
0.104558
0.0347568
139.982
143.693
146.501
148.479
149.699
150.228
150.13
149.465
148.291
146.662
144.629
142.239
139.537
136.564
133.359
129.959
126.397
122.703
118.905
115.03
111.102
107.141
103.167
99.1988
95.2512
91.3387
87.4739
83.6678
79.9302
76.2695
72.693
69.2067
65.8157
62.5243
59.3356
56.2522
53.2758
50.4076
47.648
44.9971
42.4543
40.0187
37.6891
35.4637
33.3408
31.3181
29.3931
27.5635
25.8265
24.1791
22.6187
21.142
19.7462
18.4281
17.1846
16.0128
14.9095
13.8717
12.8965
11.9808
11.1219
10.317
9.56318
8.85794
8.19867
7.58286
7.00811
6.4721
5.9726
5.50745
5.07461
4.67209
4.29802
3.9506
3.62811
3.32891
3.05144
2.79424
2.55588
2.33504
2.13044
1.94088
1.76522
1.60238
1.45133
1.3111
1.18076
1.05943
0.946273
0.840493
0.741327
0.648048
0.559955
0.476378
0.396666
0.320191
0.246341
0.174519
0.104137
0.034617
139.382
143.077
145.873
147.843
149.057
149.584
149.486
148.824
147.656
146.034
144.009
141.629
138.938
135.978
132.788
129.402
125.855
122.177
118.395
114.537
110.625
106.681
102.725
98.7734
94.8428
90.9471
87.0988
83.309
79.5874
75.9425
72.3812
68.9099
65.5335
62.2561
59.0811
56.0109
53.0473
50.1914
47.4437
44.8041
42.2722
39.8471
37.5275
35.3117
33.1978
31.1838
29.2671
27.4453
25.7157
24.0755
22.5217
21.0514
19.6615
18.3491
17.111
15.9441
14.8456
13.8122
12.8412
11.9295
11.0742
10.2727
9.52217
8.81996
8.16351
7.55035
6.97807
6.44436
5.94699
5.48384
5.05285
4.65206
4.2796
3.93366
3.61255
3.31464
3.03836
2.78226
2.54492
2.32503
2.1213
1.93256
1.75765
1.59551
1.44511
1.30548
1.1757
1.05489
0.942217
0.83689
0.73815
0.64527
0.557555
0.474336
0.394966
0.318818
0.245285
0.173771
0.103691
0.0344686
138.747
142.426
145.208
147.169
148.379
148.903
148.806
148.147
146.983
145.369
143.353
140.984
138.306
135.359
132.183
128.813
125.282
121.62
117.856
114.016
110.121
106.196
102.257
98.3237
94.4109
90.5329
86.7022
82.9297
79.2251
75.5967
72.0516
68.5961
65.2351
61.9727
58.8121
55.7559
52.8058
49.9629
47.2276
44.6001
42.0797
39.6657
37.3566
35.1509
33.0467
31.0418
29.1338
27.3204
25.5986
23.9658
22.4191
20.9555
19.572
18.2655
17.0331
15.8715
14.778
13.7494
12.7827
11.8751
11.0238
10.2259
9.47882
8.77981
8.12635
7.51597
6.9463
6.41502
5.91992
5.45888
5.02985
4.63089
4.26012
3.91576
3.59611
3.29955
3.02453
2.76959
2.53334
2.31444
2.11165
1.92376
1.74965
1.58825
1.43854
1.29954
1.17035
1.05009
0.937929
0.833081
0.73479
0.642333
0.555017
0.472177
0.393168
0.317367
0.244169
0.17298
0.103219
0.0343117
138.078
141.739
144.508
146.46
147.663
148.185
148.088
147.433
146.275
144.668
142.662
140.304
137.639
134.707
131.546
128.192
124.678
121.034
117.288
113.466
109.591
105.684
101.764
97.8497
93.9558
90.0965
86.2842
82.5299
78.8431
75.2322
71.7043
68.2654
64.9206
61.6739
58.5286
55.4871
52.5512
49.722
47
44.3851
41.8769
39.4744
37.1765
34.9814
32.8874
30.8921
28.9934
27.1887
25.4752
23.8503
22.3111
20.8545
19.4776
18.1775
16.9509
15.795
14.7067
13.6831
12.7211
11.8179
10.9707
10.1767
9.43313
8.73748
8.08718
7.47974
6.91281
6.3841
5.89138
5.43256
5.00561
4.60856
4.23958
3.89688
3.57878
3.28364
3.00995
2.75624
2.52113
2.30329
2.10147
1.91449
1.74122
1.5806
1.4316
1.29328
1.16471
1.04503
0.933409
0.829067
0.731249
0.639238
0.552343
0.469901
0.391273
0.315838
0.242992
0.172147
0.102722
0.0341464
137.375
141.017
143.773
145.714
146.912
147.431
147.334
146.682
145.53
143.931
141.936
139.59
136.938
134.021
130.876
127.539
124.043
120.418
116.691
112.888
109.033
105.146
101.246
97.3515
93.4774
89.6378
85.8449
82.1097
78.4417
74.8492
71.3392
67.9179
64.5901
61.3599
58.2306
55.2046
52.2837
49.4689
46.7607
44.1591
41.6637
39.2735
36.9872
34.8033
32.7199
30.7349
28.8458
27.0502
25.3455
23.7289
22.1975
20.7483
19.3785
18.0849
16.8646
15.7146
14.6319
13.6134
12.6563
11.7577
10.9148
10.1249
9.38511
8.69301
8.04601
7.44167
6.87763
6.3516
5.8614
5.40491
4.98013
4.58511
4.218
3.87705
3.56056
3.26693
2.99463
2.74222
2.5083
2.29156
2.09077
1.90475
1.73236
1.57255
1.42432
1.2867
1.15878
1.03971
0.928658
0.824847
0.727528
0.635984
0.549532
0.46751
0.389282
0.314231
0.241756
0.171271
0.102199
0.0339726
136.639
140.261
143.002
144.933
146.124
146.64
146.544
145.895
144.749
143.159
141.174
138.841
136.204
133.302
130.174
126.855
123.378
119.772
116.065
112.283
108.448
104.582
100.703
96.8293
92.976
89.157
85.3845
81.6693
78.021
74.4477
70.9566
67.5536
64.2436
61.0308
57.9183
54.9085
52.0032
49.2035
46.5099
43.9223
41.4402
39.0628
36.7888
34.6167
32.5444
30.57
28.6911
26.9052
25.2096
23.6016
22.0784
20.637
19.2745
17.9879
16.7742
15.6303
14.5534
13.5404
12.5885
11.6947
10.8563
10.0705
9.33478
8.64638
8.00286
7.40176
6.84074
6.31754
5.82996
5.37593
4.95342
4.56052
4.19538
3.85626
3.54147
3.24941
2.97857
2.72751
2.49485
2.27928
2.07956
1.89453
1.72307
1.56412
1.41668
1.2798
1.15257
1.03413
0.923679
0.820425
0.723627
0.632574
0.546585
0.465003
0.387195
0.312546
0.24046
0.170352
0.101651
0.0337905
135.868
139.47
142.195
144.115
145.3
145.813
145.718
145.073
143.933
142.352
140.378
138.058
135.436
132.55
129.44
126.14
122.682
119.096
115.41
111.649
107.836
103.992
100.135
96.2833
92.4517
88.6542
84.9029
81.2087
77.581
74.0279
70.5564
67.1726
63.8813
60.6866
57.5916
54.5989
51.71
48.926
46.2476
43.6746
41.2065
38.8425
36.5814
34.4215
32.3609
30.3976
28.5293
26.7534
25.0674
23.4685
21.9539
20.5207
19.1659
17.8865
16.6796
15.5422
14.4713
13.464
12.5175
11.6287
10.7951
10.0138
9.28214
8.59763
7.95773
7.36002
6.80217
6.28191
5.79709
5.34561
4.92549
4.5348
4.17173
3.83451
3.5215
3.23109
2.96178
2.71213
2.48078
2.26642
2.06784
1.88385
1.71336
1.5553
1.40869
1.27258
1.14607
1.0283
0.918472
0.815799
0.719547
0.629008
0.543504
0.462382
0.385012
0.310784
0.239104
0.169392
0.101078
0.0336
135.064
138.645
141.354
143.263
144.44
144.95
144.855
144.214
143.081
141.509
139.547
137.241
134.634
131.766
128.674
125.393
121.956
118.392
114.727
110.989
107.198
103.376
99.5425
95.7134
91.9046
88.1295
84.4005
80.7281
77.1218
73.5898
70.1389
66.7751
63.5033
60.3274
57.2508
54.2757
51.4039
48.6365
45.9739
43.4161
40.9627
38.6127
36.3649
34.2177
32.1694
30.2177
28.3604
26.5951
24.9191
23.3296
21.824
20.3992
19.0524
17.7806
16.5809
15.4502
14.3857
13.3844
12.4434
11.5599
10.7312
9.9545
9.22721
8.54675
7.91064
7.31647
6.76192
6.24474
5.76278
5.31398
4.89634
4.50797
4.14704
3.81182
3.50066
3.21197
2.94426
2.69608
2.4661
2.25301
2.0556
1.8727
1.70322
1.5461
1.40036
1.26505
1.13929
1.02222
0.913037
0.810973
0.71529
0.625287
0.540288
0.459646
0.382734
0.308945
0.237689
0.16839
0.10048
0.0334012
134.227
137.785
140.477
142.374
143.544
144.051
143.957
143.32
142.194
140.632
138.682
136.39
133.799
130.949
127.876
124.616
121.2
117.657
114.016
110.301
106.533
102.735
98.9253
95.12
91.3347
87.5831
83.8772
80.2276
76.6437
73.1335
69.704
66.361
63.1095
59.9534
56.8958
53.9392
51.0852
48.3349
45.6888
43.1469
40.7087
38.3733
36.1394
34.0056
31.9699
30.0304
28.1846
26.4302
24.7646
23.185
21.6887
20.2728
18.9343
17.6704
16.4781
15.3544
14.2965
13.3014
12.3662
11.4883
10.6647
9.89279
9.17001
8.49377
7.8616
7.27111
6.72
6.20603
5.72706
5.28104
4.86599
4.48002
4.12133
3.78819
3.47896
3.19206
2.926
2.67937
2.45081
2.23905
2.04286
1.8611
1.69266
1.53652
1.39168
1.25721
1.13223
1.01588
0.907378
0.805946
0.710856
0.621411
0.53694
0.456797
0.380362
0.30703
0.236216
0.167346
0.0998573
0.0331942
133.356
136.891
139.566
141.451
142.613
143.117
143.024
142.39
141.272
139.72
137.783
135.506
132.931
130.099
127.047
123.807
120.414
116.894
113.277
109.585
105.842
102.069
98.2837
94.5031
90.7424
87.0151
83.3332
79.7073
76.1466
72.6592
69.2519
65.9307
62.7002
59.5646
56.5268
53.5894
50.7539
48.0215
45.3925
42.8671
40.4447
38.1244
35.905
33.7851
31.7626
29.8356
28.0018
26.2588
24.604
23.0346
21.548
20.1413
18.8115
17.5558
16.3712
15.2549
14.2038
13.2151
12.286
11.4138
10.5955
9.82863
9.11054
8.43868
7.81062
7.22396
6.67642
6.16578
5.68992
5.24679
4.83443
4.45097
4.09461
3.76363
3.4564
3.17136
2.90703
2.662
2.43492
2.22453
2.02961
1.84903
1.68168
1.52655
1.38265
1.24906
1.12488
1.0093
0.901495
0.80072
0.706247
0.617382
0.533458
0.453836
0.377896
0.30504
0.234685
0.166261
0.0992098
0.0329789
132.453
135.964
138.621
140.493
141.647
142.148
142.055
141.426
140.315
138.773
136.849
134.588
132.031
129.218
126.186
122.969
119.598
116.102
112.509
108.843
105.125
101.378
97.6179
93.8629
90.1276
86.4256
82.7686
79.1673
75.6307
72.1669
68.7828
65.484
62.2755
59.1611
56.1439
53.2264
50.4101
47.6961
45.085
42.5767
40.1707
37.8661
35.6618
33.5562
31.5474
29.6335
27.8121
26.0809
24.4373
22.8786
21.402
20.0048
18.6841
17.4369
16.2603
15.1515
14.1076
13.1256
12.2028
11.3364
10.5237
9.76205
9.04882
8.38152
7.75771
7.17502
6.63119
6.12401
5.65138
5.21125
4.80169
4.42082
4.06687
3.73814
3.43299
3.14988
2.88734
2.64397
2.41843
2.20946
2.01587
1.8365
1.67029
1.51621
1.37329
1.2406
1.11727
1.00246
0.895389
0.795297
0.701464
0.6132
0.529845
0.450762
0.375336
0.302974
0.233095
0.165135
0.0985379
0.0327556
131.516
135.003
137.641
139.5
140.646
141.143
141.051
140.426
139.323
137.793
135.882
133.637
131.098
128.305
125.294
122.1
118.753
115.282
111.714
108.074
104.382
100.661
96.9279
93.1995
89.4907
85.8148
82.1837
78.6078
75.0962
71.6569
68.2966
65.0212
61.8353
58.7429
55.7471
52.8502
50.0538
47.359
44.7664
42.2758
39.8868
37.5985
35.4098
33.319
31.3245
29.4241
27.6156
25.8966
24.2646
22.7169
21.2508
19.8635
18.552
17.3137
16.1454
15.0444
14.0079
13.0328
12.1166
11.2563
10.4494
9.69306
8.98487
8.32229
7.70288
7.12432
6.58433
6.08074
5.61144
5.17442
4.76775
4.38958
4.03813
3.71172
3.40873
3.12762
2.86694
2.62528
2.40134
2.19385
2.00162
1.82353
1.65849
1.5055
1.36358
1.23183
1.10937
0.995377
0.889062
0.789677
0.696507
0.608868
0.526101
0.447577
0.372684
0.300833
0.231448
0.163968
0.0978416
0.0325241
130.548
134.009
136.627
138.472
139.61
140.103
140.012
139.392
138.297
136.778
134.882
132.652
130.132
127.36
124.371
121.2
117.878
114.433
110.891
107.278
103.614
99.9198
96.2141
92.5131
88.8316
85.1828
81.5784
78.0288
74.5431
71.1292
67.7937
64.5423
61.3799
58.3103
55.3366
52.461
49.6852
47.0103
44.4367
41.9644
39.593
37.3216
35.149
33.0736
31.0938
29.2074
27.4122
25.7059
24.0859
22.5496
21.0943
19.7172
18.4154
17.1861
16.0265
14.9337
13.9047
12.9369
12.0274
11.1734
10.3724
9.62168
8.91871
8.261
7.64616
7.07186
6.53584
6.03596
5.57012
5.13632
4.73265
4.35726
4.0084
3.68439
3.38363
3.10459
2.84582
2.60595
2.38366
2.17769
1.98688
1.8101
1.64628
1.49441
1.35354
1.22276
1.1012
0.988048
0.882516
0.783863
0.691379
0.604385
0.522228
0.444281
0.36994
0.298618
0.229744
0.162761
0.0971212
0.0322847
129.547
132.981
135.58
137.411
138.54
139.029
138.939
138.323
137.237
135.729
133.848
131.636
129.135
126.384
123.418
120.271
116.974
113.556
110.041
106.455
102.819
99.1538
95.4765
91.8039
88.1506
84.5298
80.953
77.4307
73.9717
70.5839
67.274
64.0476
60.9094
57.8633
54.9123
52.0588
49.3043
46.6499
44.096
41.6427
39.2895
37.0355
34.8795
32.8201
30.8554
28.9835
27.2021
25.5088
23.9013
22.3767
20.9326
19.566
18.2742
17.0544
15.9037
14.8192
13.7981
12.8377
11.9352
11.0878
10.2929
9.54793
8.85034
8.19768
7.58755
7.01765
6.48574
5.98969
5.52742
5.09695
4.69637
4.32386
3.97767
3.65615
3.35769
3.08079
2.82401
2.58598
2.36539
2.161
1.97165
1.79623
1.63366
1.48296
1.34317
1.21339
1.09276
0.980475
0.875752
0.777855
0.68608
0.599752
0.518225
0.440876
0.367105
0.296329
0.227983
0.161514
0.0963769
0.0320372
128.514
131.921
134.499
136.315
137.435
137.921
137.831
137.221
136.143
134.647
132.78
130.586
128.105
125.376
122.434
119.313
116.042
112.65
109.164
105.607
102
98.3634
94.7154
91.0721
87.4479
83.8559
80.3077
76.8134
73.382
70.0212
66.7377
63.537
60.4238
57.402
54.4746
51.6438
48.9113
46.278
43.7445
41.3108
38.9763
36.7403
34.6015
32.5585
30.6094
28.7524
26.9852
25.3055
23.7107
22.1984
20.7657
19.4101
18.1286
16.9185
15.7769
14.701
13.6881
12.7354
11.84
10.9994
10.2108
9.47182
8.77979
8.13233
7.52706
6.96171
6.43404
5.94195
5.48336
5.05632
4.65893
4.28939
3.94597
3.627
3.33093
3.05624
2.8015
2.56536
2.34653
2.14378
1.95594
1.78191
1.62064
1.47114
1.33246
1.20372
1.08405
0.97266
0.868771
0.771655
0.680612
0.594972
0.514095
0.437362
0.364179
0.293967
0.226166
0.160226
0.0956087
0.0317819
127.45
130.829
133.385
135.186
136.297
136.779
136.689
136.084
135.015
133.532
131.681
129.505
127.044
124.338
121.42
118.324
115.081
111.717
108.26
104.732
101.155
97.5487
93.9309
90.3177
86.7236
83.1614
79.6425
76.1772
72.7742
69.4412
66.1849
63.0107
59.9234
56.9266
54.0234
51.216
48.5061
45.8947
43.3822
40.9686
38.6535
36.436
34.3149
32.2888
30.3559
28.5143
26.7617
25.0959
23.5143
22.0145
20.5937
19.2493
17.9784
16.7783
15.6462
14.5793
13.5748
12.6299
11.7419
10.9083
10.1263
9.39337
8.70708
8.06498
7.46472
6.90405
6.38076
5.89273
5.43795
5.01444
4.62035
4.25387
3.91328
3.59696
3.30334
3.03092
2.7783
2.54412
2.3271
2.12602
1.93974
1.76715
1.60722
1.45896
1.32143
1.19375
1.07507
0.964605
0.861577
0.765265
0.674975
0.590045
0.509837
0.43374
0.361163
0.291533
0.224293
0.158899
0.094817
0.0315187
126.354
129.704
132.238
134.024
135.125
135.603
135.514
134.914
133.854
132.384
130.548
128.391
125.952
123.268
120.376
117.307
114.091
110.757
107.329
103.831
100.285
96.7099
93.1232
89.5411
85.9779
82.4463
78.9577
75.5222
72.1484
68.8441
65.6158
62.4689
59.4081
56.4371
53.5589
50.7757
48.0891
45.5001
43.0092
40.6163
38.3211
36.1227
34.0198
32.0112
30.0949
28.2691
26.5316
24.8801
23.3121
21.8252
20.4167
19.0838
17.8238
16.6341
15.5117
14.4539
13.458
12.5213
11.641
10.8145
10.0392
9.3126
8.63221
7.99563
7.40054
6.84469
6.32589
5.84207
5.39119
4.97133
4.58062
4.21729
3.87964
3.56604
3.27494
3.00487
2.75441
2.52224
2.30709
2.10774
1.92306
1.75196
1.5934
1.44641
1.31007
1.18349
1.06583
0.956312
0.85417
0.758686
0.669172
0.584972
0.505454
0.430011
0.358058
0.289027
0.222365
0.157533
0.0940018
0.0312477
125.227
128.547
131.059
132.828
133.92
134.393
134.305
133.711
132.66
131.203
129.384
127.246
124.828
122.169
119.302
116.261
113.074
109.769
106.372
102.905
99.3906
95.8472
92.2926
88.7424
85.211
81.7109
78.2534
74.8485
71.5049
68.2301
65.0305
61.9117
58.8782
55.9337
53.0811
50.3227
47.6601
45.0942
42.6255
40.254
37.9793
35.8005
33.7164
31.7256
29.8265
28.0169
26.2949
24.6582
23.1042
21.6305
20.2345
18.9136
17.6648
16.4857
15.3733
14.325
13.338
12.4096
11.5372
10.718
9.94966
9.22954
8.55522
7.92432
7.33453
6.78364
6.26947
5.78996
5.34311
4.92699
4.53977
4.17968
3.84504
3.53423
3.24573
2.97806
2.72985
2.49975
2.28651
2.08895
1.90591
1.73633
1.57919
1.43351
1.29838
1.17293
1.05633
0.947783
0.846552
0.751919
0.663204
0.579755
0.500946
0.426176
0.354865
0.286449
0.220382
0.156128
0.0931635
0.030969
124.069
127.358
129.847
131.6
132.682
133.15
133.063
132.474
131.434
129.99
128.188
126.069
123.674
121.039
118.199
115.185
112.028
108.754
105.388
101.954
98.4715
94.9609
91.4392
87.9218
84.423
80.9553
77.5298
74.1564
70.8437
67.5991
64.4292
61.3392
58.3337
55.4165
52.5903
49.8574
47.2194
44.6772
42.2314
39.8818
37.6281
35.4694
33.4046
31.4323
29.5507
27.7579
26.0518
24.4302
22.8906
21.4305
20.0474
18.7387
17.5015
16.3333
15.2312
14.1925
13.2147
12.2949
11.4305
10.6189
9.85766
9.1442
8.47611
7.85104
7.26671
6.72091
6.2115
5.73642
5.2937
4.88143
4.49779
4.14103
3.80948
3.50155
3.21572
2.95053
2.70461
2.47664
2.26537
2.06963
1.88829
1.72028
1.56459
1.42026
1.28638
1.16209
1.04656
0.93902
0.838725
0.744967
0.657073
0.574395
0.496315
0.422236
0.351584
0.283801
0.218344
0.154685
0.0923021
0.0306827
122.88
126.138
128.603
130.339
131.41
131.875
131.789
131.205
130.175
128.745
126.96
124.861
122.489
119.88
117.067
114.082
110.955
107.712
104.378
100.977
97.5282
94.0512
90.5632
87.0795
83.6142
80.1797
76.7871
73.446
70.165
66.9515
63.8119
60.7516
57.7749
54.8856
52.0865
49.3798
46.767
44.2492
41.8268
39.4997
37.2676
35.1296
33.0846
31.1312
29.2676
27.492
25.8022
24.1961
22.6713
21.2252
19.8554
18.5592
17.3338
16.1768
15.0853
14.0566
13.0881
12.1771
11.321
10.5172
9.76323
9.0566
8.39491
7.77583
7.1971
6.65653
6.152
5.68147
5.24299
4.83467
4.4547
4.10136
3.77299
3.46801
3.18491
2.92227
2.6787
2.45291
2.24367
2.04981
1.8702
1.7038
1.5496
1.40665
1.27406
1.15095
1.03653
0.930025
0.830691
0.737831
0.650779
0.568893
0.491561
0.418192
0.348216
0.281082
0.216253
0.153203
0.091418
0.0303888
121.662
124.887
127.327
129.047
130.107
130.567
130.481
129.904
128.883
127.467
125.7
123.623
121.274
118.691
115.905
112.95
109.854
106.644
103.343
99.9753
96.5608
93.1183
89.6648
86.2158
82.7848