/*--------------------------------*- C++ -*----------------------------------*\
| =========                 |                                                 |
| \\      /  F ield         | OpenFOAM: The Open Source CFD Toolbox           |
|  \\    /   O peration     | Version:  2406                                  |
|   \\  /    A nd           | Website:  www.openfoam.com                      |
|    \\/     M anipulation  |                                                 |
\*---------------------------------------------------------------------------*/
FoamFile
{
    version     2.0;
    format      ascii;
    arch        "LSB;label=32;scalar=64";
    class       volScalarField;
    location    "110";
    object      gradTx;
}
// * * * * * * * * * * * * * * * * * * * * * * * * * * * * * * * * * * * * * //

dimensions      [0 -1 0 1 0 0 0];

internalField   nonuniform List<scalar> 
20000
(
2.1733
1.68601
1.23803
0.827223
0.452198
0.11165
-0.197158
-0.475788
-0.725134
-0.947204
-1.14399
-1.31708
-1.46787
-1.59779
-1.70831
-1.80088
-1.87689
-1.93765
-1.98441
-2.01834
-2.04058
-2.05217
-2.05414
-2.04744
-2.03297
-2.01158
-1.98406
-1.95115
-1.91354
-1.87189
-1.82678
-1.77878
-1.72838
-1.67607
-1.62226
-1.56735
-1.51169
-1.45562
-1.39941
-1.34334
-1.28764
-1.2325
-1.17813
-1.12467
-1.07227
-1.02105
-0.9711
-0.922514
-0.875358
-0.829688
-0.785545
-0.74296
-0.701953
-0.662534
-0.624704
-0.588459
-0.553785
-0.520664
-0.489072
-0.45898
-0.430356
-0.403165
-0.377369
-0.352926
-0.329795
-0.307932
-0.287293
-0.267832
-0.249503
-0.232262
-0.216063
-0.20086
-0.186611
-0.173271
-0.160798
-0.149151
-0.13829
-0.128175
-0.11877
-0.110039
-0.101947
-0.0944607
-0.0875501
-0.0811852
-0.0753379
-0.0699822
-0.0650933
-0.0606485
-0.0566266
-0.0530079
-0.0497746
-0.0469105
-0.0444011
-0.0422335
-0.0403964
-0.0388801
-0.0376767
-0.0367797
-0.0361844
-0.0358875
6.51956
5.05752
3.71334
2.4817
1.35681
0.334485
-0.59171
-1.42697
-2.17499
-2.84141
-3.43182
-3.95099
-4.40324
-4.79294
-5.12447
-5.40217
-5.63019
-5.81247
-5.95273
-6.05453
-6.12123
-6.15602
-6.16193
-6.14183
-6.09842
-6.03424
-5.95168
-5.85296
-5.74016
-5.61521
-5.4799
-5.3359
-5.18472
-5.02778
-4.86637
-4.70165
-4.5347
-4.36649
-4.19789
-4.02969
-3.86259
-3.69721
-3.5341
-3.37374
-3.21655
-3.06289
-2.91306
-2.76731
-2.62586
-2.48886
-2.35644
-2.2287
-2.10568
-1.98744
-1.87396
-1.76523
-1.66122
-1.56186
-1.46709
-1.37683
-1.29096
-1.2094
-1.13201
-1.05869
-0.989304
-0.923721
-0.861807
-0.803428
-0.748448
-0.696728
-0.648135
-0.602532
-0.559787
-0.519771
-0.482355
-0.447417
-0.414836
-0.384494
-0.356282
-0.330089
-0.305815
-0.283359
-0.262629
-0.243535
-0.225995
-0.209929
-0.195264
-0.181931
-0.169866
-0.159011
-0.149311
-0.14072
-0.133192
-0.12669
-0.121179
-0.116631
-0.113021
-0.11033
-0.108544
-0.107654
10.8643
8.42814
6.18789
4.13551
2.26114
0.557053
-0.986229
-2.37761
-3.62416
-4.73494
-5.71892
-6.584
-7.33753
-7.98687
-8.53933
-9.00211
-9.3821
-9.68586
-9.9196
-10.0892
-10.2004
-10.2583
-10.2682
-10.2347
-10.1624
-10.0554
-9.91784
-9.75333
-9.56536
-9.35714
-9.13167
-8.8917
-8.63978
-8.37826
-8.10928
-7.83479
-7.55659
-7.27628
-6.99533
-6.71505
-6.43659
-6.161
-5.8892
-5.62198
-5.36004
-5.10398
-4.8543
-4.61143
-4.37571
-4.14741
-3.92675
-3.71388
-3.5089
-3.31185
-3.12275
-2.94157
-2.76824
-2.60268
-2.44476
-2.29433
-2.15125
-2.01533
-1.88638
-1.7642
-1.64857
-1.53928
-1.43611
-1.33883
-1.24721
-1.16102
-1.08005
-1.00405
-0.932825
-0.866142
-0.803794
-0.745573
-0.691279
-0.640719
-0.593705
-0.550058
-0.509607
-0.472187
-0.437643
-0.405826
-0.376597
-0.349825
-0.325386
-0.303168
-0.283063
-0.264974
-0.248812
-0.234495
-0.221951
-0.211115
-0.201932
-0.194353
-0.188337
-0.183853
-0.180877
-0.179393
15.2061
11.7966
8.66116
5.7882
3.1648
0.779577
-1.38042
-3.32763
-5.07246
-6.62737
-8.00467
-9.2154
-10.27
-11.1788
-11.952
-12.5998
-13.1317
-13.5569
-13.884
-14.1215
-14.277
-14.3581
-14.3719
-14.325
-14.2238
-14.0741
-13.8815
-13.6513
-13.3882
-13.0968
-12.7812
-12.4453
-12.0927
-11.7267
-11.3502
-10.966
-10.5766
-10.1843
-9.79105
-9.39874
-9.009
-8.62327
-8.24284
-7.86883
-7.50221
-7.14381
-6.79435
-6.45441
-6.12448
-5.80495
-5.4961
-5.19815
-4.91124
-4.63545
-4.37077
-4.11718
-3.87458
-3.64285
-3.42181
-3.21127
-3.01101
-2.82076
-2.64028
-2.46926
-2.30743
-2.15446
-2.01006
-1.8739
-1.74566
-1.62503
-1.51169
-1.40533
-1.30563
-1.2123
-1.12503
-1.04354
-0.967552
-0.896785
-0.830982
-0.769892
-0.713274
-0.660899
-0.612549
-0.568016
-0.527105
-0.489634
-0.455429
-0.42433
-0.39619
-0.370872
-0.34825
-0.328212
-0.310655
-0.295489
-0.282635
-0.272026
-0.263607
-0.257331
-0.253166
-0.251089
19.544
15.1619
11.1322
7.43948
4.06771
1.00197
-1.77423
-4.27684
-6.51954
-8.5182
-10.2885
-11.8445
-13.1999
-14.3679
-15.3618
-16.1944
-16.878
-17.4245
-17.845
-18.1502
-18.3501
-18.4544
-18.4721
-18.4119
-18.2817
-18.0893
-17.8418
-17.5459
-17.2077
-16.8332
-16.4275
-15.9958
-15.5427
-15.0722
-14.5883
-14.0945
-13.594
-13.0898
-12.5844
-12.0801
-11.5792
-11.0834
-10.5945
-10.1137
-9.64252
-9.18188
-8.73272
-8.2958
-7.87174
-7.46105
-7.06409
-6.68114
-6.31238
-5.9579
-5.61772
-5.29178
-4.97997
-4.68212
-4.39803
-4.12742
-3.87002
-3.6255
-3.39353
-3.17372
-2.96572
-2.76911
-2.58351
-2.4085
-2.24368
-2.08864
-1.94296
-1.80626
-1.67812
-1.55816
-1.446
-1.34126
-1.24359
-1.15263
-1.06805
-0.989535
-0.916765
-0.849448
-0.787303
-0.730066
-0.677484
-0.629322
-0.585359
-0.545388
-0.50922
-0.476679
-0.447603
-0.421848
-0.399282
-0.379789
-0.363268
-0.349633
-0.338812
-0.330745
-0.325392
-0.322722
23.8771
18.5235
13.6004
9.08894
4.96964
1.22414
-2.16761
-5.22502
-7.96504
-10.4069
-12.5697
-14.4707
-16.1266
-17.5535
-18.7678
-19.785
-20.6202
-21.2879
-21.8016
-22.1745
-22.4187
-22.5461
-22.5678
-22.4941
-22.3351
-22.1001
-21.7977
-21.4362
-21.023
-20.5654
-20.0699
-19.5424
-18.9888
-18.414
-17.8228
-17.2195
-16.6081
-15.992
-15.3745
-14.7585
-14.1465
-13.5408
-12.9434
-12.3561
-11.7805
-11.2177
-10.6689
-10.1351
-9.61706
-9.11531
-8.63033
-8.16248
-7.71195
-7.27888
-6.86327
-6.46507
-6.08413
-5.72024
-5.37316
-5.04255
-4.72808
-4.42935
-4.14594
-3.8774
-3.62327
-3.38308
-3.15632
-2.94251
-2.74115
-2.55173
-2.37376
-2.20674
-2.05019
-1.90363
-1.7666
-1.63864
-1.51931
-1.40819
-1.30486
-1.20893
-1.12003
-1.03779
-0.961864
-0.891936
-0.827695
-0.768855
-0.715144
-0.666312
-0.622124
-0.582368
-0.546846
-0.51538
-0.48781
-0.463996
-0.443812
-0.427154
-0.413933
-0.404078
-0.397538
-0.394276
28.2045
21.8805
16.0652
10.7362
5.87035
1.446
-2.56047
-6.17193
-9.40859
-12.2931
-14.8478
-17.0933
-19.0492
-20.7348
-22.1691
-23.3707
-24.3573
-25.146
-25.7529
-26.1933
-26.4818
-26.6323
-26.6578
-26.5709
-26.3831
-26.1054
-25.7482
-25.3211
-24.8331
-24.2926
-23.7072
-23.0842
-22.4302
-21.7512
-21.0529
-20.3403
-19.6181
-18.8903
-18.1609
-17.4333
-16.7104
-15.9949
-15.2892
-14.5955
-13.9155
-13.2507
-12.6025
-11.972
-11.36
-10.7673
-10.1944
-9.6418
-9.10963
-8.59807
-8.10714
-7.63676
-7.18678
-6.75695
-6.34696
-5.95644
-5.58497
-5.2321
-4.89732
-4.58012
-4.27994
-3.99621
-3.72836
-3.4758
-3.23794
-3.01419
-2.80397
-2.60668
-2.42176
-2.24864
-2.08677
-1.93562
-1.79467
-1.6634
-1.54135
-1.42804
-1.32302
-1.22587
-1.13619
-1.05359
-0.977703
-0.908198
-0.844753
-0.787071
-0.734875
-0.687913
-0.645953
-0.608785
-0.576219
-0.548088
-0.524247
-0.504569
-0.488952
-0.477312
-0.469586
-0.465733
32.5249
25.2322
18.5261
12.3808
6.76961
1.66749
-2.95271
-7.11732
-10.8498
-14.1763
-17.1223
-19.7117
-21.9671
-23.9109
-25.5649
-26.9506
-28.0884
-28.9979
-29.6978
-30.2056
-30.5383
-30.7119
-30.7413
-30.641
-30.4245
-30.1043
-29.6924
-29.1999
-28.6371
-28.0137
-27.3387
-26.6203
-25.8661
-25.0831
-24.2778
-23.4561
-22.6232
-21.784
-20.9429
-20.1037
-19.2701
-18.445
-17.6313
-16.8313
-16.0471
-15.2805
-14.533
-13.8059
-13.1001
-12.4167
-11.756
-11.1187
-10.5051
-9.91513
-9.349
-8.80657
-8.28766
-7.79199
-7.31919
-6.86885
-6.44049
-6.03356
-5.6475
-5.28171
-4.93554
-4.60835
-4.29947
-4.00823
-3.73393
-3.47591
-3.23348
-3.00597
-2.79272
-2.59309
-2.40643
-2.23212
-2.06958
-1.91821
-1.77745
-1.64678
-1.52568
-1.41365
-1.31023
-1.21498
-1.12747
-1.04732
-0.974154
-0.907636
-0.847445
-0.793289
-0.744901
-0.702039
-0.664485
-0.632045
-0.604552
-0.58186
-0.563851
-0.550427
-0.541518
-0.537075
36.8372
28.5777
20.9824
14.0223
7.66719
1.88856
-3.34423
-8.06096
-12.2884
-16.0559
-19.3926
-22.3252
-24.8797
-27.0811
-28.9545
-30.5239
-31.8126
-32.8427
-33.6353
-34.2105
-34.5873
-34.7839
-34.8172
-34.7036
-34.4584
-34.0957
-33.6292
-33.0714
-32.434
-31.728
-30.9635
-30.1498
-29.2956
-28.4088
-27.4968
-26.566
-25.6227
-24.6723
-23.7196
-22.7692
-21.825
-20.8906
-19.969
-19.0629
-18.1747
-17.3065
-16.4599
-15.6363
-14.8371
-14.063
-13.3147
-12.5929
-11.8979
-11.2297
-10.5886
-9.97421
-9.3865
-8.8251
-8.28962
-7.77958
-7.29441
-6.83353
-6.39629
-5.98199
-5.58993
-5.21936
-4.86953
-4.53967
-4.229
-3.93677
-3.6622
-3.40453
-3.163
-2.9369
-2.72549
-2.52807
-2.34397
-2.17254
-2.01312
-1.86513
-1.72797
-1.60108
-1.48395
-1.37607
-1.27696
-1.18618
-1.10331
-1.02798
-0.959805
-0.898469
-0.843666
-0.795121
-0.752587
-0.715847
-0.684708
-0.659008
-0.63861
-0.623407
-0.613317
-0.608285
41.1405
31.9161
23.4336
15.6604
8.56287
2.10915
-3.73493
-9.00262
-13.7239
-17.9316
-21.658
-24.9332
-27.786
-30.2446
-32.3368
-34.0896
-35.5289
-36.6793
-37.5646
-38.207
-38.6278
-38.8473
-38.8846
-38.7577
-38.4837
-38.0788
-37.5577
-36.9348
-36.2229
-35.4344
-34.5806
-33.6719
-32.7179
-31.7275
-30.7089
-29.6695
-28.6159
-27.5544
-26.4905
-25.4291
-24.3746
-23.331
-22.3017
-21.2898
-20.2979
-19.3282
-18.3827
-17.463
-16.5703
-15.7058
-14.8702
-14.064
-13.2878
-12.5416
-11.8255
-11.1394
-10.483
-9.85604
-9.25801
-8.68838
-8.14654
-7.63182
-7.1435
-6.6808
-6.24294
-5.82908
-5.43838
-5.06999
-4.72303
-4.39666
-4.09001
-3.80224
-3.5325
-3.27998
-3.04388
-2.8234
-2.6178
-2.42633
-2.24829
-2.08301
-1.92983
-1.78812
-1.6573
-1.53682
-1.42613
-1.32475
-1.2322
-1.14806
-1.07193
-1.00343
-0.942223
-0.888006
-0.840504
-0.799472
-0.764695
-0.735993
-0.713213
-0.696233
-0.684964
-0.679345
45.4337
35.2466
25.879
17.2946
9.45643
2.32923
-4.1247
-9.94205
-15.156
-19.8028
-23.9181
-27.5351
-30.6855
-33.4007
-35.7113
-37.647
-39.2364
-40.507
-41.4846
-42.194
-42.6588
-42.9011
-42.9423
-42.8022
-42.4996
-42.0524
-41.477
-40.789
-40.0029
-39.1321
-38.1892
-37.1856
-36.1321
-35.0384
-33.9135
-32.7655
-31.6021
-30.4298
-29.2549
-28.0827
-26.9182
-25.7657
-24.629
-23.5114
-22.416
-21.3451
-20.301
-19.2853
-18.2995
-17.3447
-16.4219
-15.5317
-14.6744
-13.8503
-13.0595
-12.3018
-11.577
-10.8846
-10.2241
-9.59504
-8.99665
-8.42822
-7.88894
-7.37797
-6.89441
-6.43736
-6.00589
-5.59905
-5.2159
-4.85547
-4.51682
-4.19901
-3.90113
-3.62226
-3.36151
-3.11803
-2.89097
-2.67952
-2.48291
-2.30038
-2.13121
-1.97472
-1.83025
-1.69719
-1.57495
-1.46299
-1.36079
-1.26787
-1.18379
-1.10814
-1.04055
-0.980673
-0.928214
-0.882899
-0.844494
-0.812796
-0.787639
-0.768888
-0.756443
-0.750237
49.7156
38.5685
28.3179
18.9245
10.3477
2.54873
-4.51346
-10.879
-16.5844
-21.6692
-26.1723
-30.1301
-33.5775
-36.5485
-39.0769
-41.195
-42.9343
-44.3246
-45.3943
-46.1706
-46.6792
-46.9444
-46.9894
-46.8361
-46.5051
-46.0156
-45.386
-44.6332
-43.773
-42.8202
-41.7883
-40.6902
-39.5374
-38.3406
-37.1097
-35.8536
-34.5804
-33.2977
-32.012
-30.7294
-29.4551
-28.194
-26.9501
-25.7273
-24.5286
-23.3568
-22.2142
-21.1028
-20.0241
-18.9794
-17.9696
-16.9955
-16.0574
-15.1557
-14.2903
-13.4612
-12.668
-11.9104
-11.1877
-10.4993
-9.84455
-9.22255
-8.63244
-8.07331
-7.54418
-7.04406
-6.57192
-6.12674
-5.70747
-5.31307
-4.94251
-4.59475
-4.2688
-3.96364
-3.67832
-3.41189
-3.16343
-2.93206
-2.71691
-2.51718
-2.33207
-2.16083
-2.00274
-1.85714
-1.72338
-1.60087
-1.48904
-1.38736
-1.29536
-1.21258
-1.13861
-1.0731
-1.01569
-0.966109
-0.924084
-0.889399
-0.861871
-0.841353
-0.827735
-0.820944
53.9853
41.8808
30.7499
20.5497
11.2363
2.7676
-4.9011
-11.8133
-18.0087
-23.5302
-28.42
-32.7177
-36.4611
-39.6874
-42.4328
-44.7329
-46.6216
-48.1313
-49.2929
-50.1359
-50.6881
-50.9761
-51.025
-50.8585
-50.499
-49.9676
-49.2839
-48.4664
-47.5323
-46.4976
-45.3772
-44.1847
-42.9329
-41.6333
-40.2967
-38.9327
-37.5503
-36.1574
-34.7613
-33.3685
-31.9847
-30.6153
-29.2646
-27.9368
-26.6352
-25.3627
-24.122
-22.9152
-21.7438
-20.6094
-19.5129
-18.4551
-17.4364
-16.4573
-15.5176
-14.6173
-13.756
-12.9333
-12.1485
-11.401
-10.69
-10.0146
-9.37381
-8.76666
-8.19209
-7.64901
-7.13633
-6.65292
-6.19764
-5.76937
-5.36698
-4.98936
-4.63541
-4.30405
-3.99422
-3.70491
-3.43511
-3.18387
-2.95025
-2.73336
-2.53235
-2.3464
-2.17474
-2.01664
-1.87139
-1.73836
-1.61692
-1.50651
-1.4066
-1.31672
-1.2364
-1.16526
-1.10292
-1.04908
-1.00345
-0.965783
-0.935891
-0.91361
-0.898823
-0.891449
58.2416
45.1828
33.1743
22.1699
12.1222
2.9858
-5.28752
-12.7447
-19.4285
-25.3854
-30.6608
-35.2973
-39.3358
-42.8164
-45.7783
-48.2598
-50.2973
-51.9261
-53.1793
-54.0887
-54.6845
-54.9952
-55.0479
-54.8683
-54.4805
-53.9071
-53.1695
-52.2876
-51.2799
-50.1636
-48.9548
-47.6684
-46.3178
-44.9158
-43.4738
-42.0023
-40.5108
-39.0081
-37.5019
-35.9993
-34.5065
-33.0291
-31.5719
-30.1394
-28.7351
-27.3624
-26.0239
-24.7218
-23.4581
-22.2343
-21.0513
-19.9101
-18.8112
-17.7548
-16.741
-15.7697
-14.8405
-13.9529
-13.1063
-12.2999
-11.5328
-10.8042
-10.1129
-9.45784
-8.83797
-8.25208
-7.69898
-7.17745
-6.68628
-6.22424
-5.79013
-5.38273
-5.00088
-4.64339
-4.30914
-3.99702
-3.70595
-3.43489
-3.18285
-2.94887
-2.73201
-2.5314
-2.34621
-2.17563
-2.01894
-1.87541
-1.7444
-1.62529
-1.5175
-1.42053
-1.33388
-1.25713
-1.18988
-1.13179
-1.08256
-1.04193
-1.00968
-0.985642
-0.969689
-0.961733
62.4836
48.4736
35.5905
23.7847
13.0052
3.20326
-5.67264
-13.6729
-20.8436
-27.2343
-32.8939
-37.8681
-42.2007
-45.9348
-49.1125
-51.7747
-53.9607
-55.7081
-57.0526
-58.0283
-58.6674
-59.0007
-59.0573
-58.8646
-58.4485
-57.8334
-57.0421
-56.0959
-55.0148
-53.8172
-52.5204
-51.1402
-49.6913
-48.1872
-46.6402
-45.0615
-43.4614
-41.8492
-40.2333
-38.6213
-37.0197
-35.4347
-33.8714
-32.3346
-30.828
-29.3553
-27.9193
-26.5224
-25.1667
-23.8537
-22.5845
-21.3602
-20.1813
-19.048
-17.9604
-16.9183
-15.9214
-14.9692
-14.0609
-13.1958
-12.3728
-11.5911
-10.8494
-10.1467
-9.48168
-8.85311
-8.25973
-7.70021
-7.17327
-6.67758
-6.21185
-5.77478
-5.36511
-4.98159
-4.62299
-4.28814
-3.97587
-3.68507
-3.41467
-3.16364
-2.93099
-2.71577
-2.51709
-2.3341
-2.16599
-2.01201
-1.87145
-1.74366
-1.62803
-1.52399
-1.43104
-1.34869
-1.27655
-1.21423
-1.16141
-1.11782
-1.08322
-1.05743
-1.04032
-1.03178
66.7101
51.7525
37.998
25.3935
13.8849
3.41993
-6.05636
-14.5977
-22.2535
-29.0766
-35.1189
-40.4296
-45.0553
-49.042
-52.4346
-55.2769
-57.6108
-59.4764
-60.9118
-61.9535
-62.6358
-62.9917
-63.0521
-62.8464
-62.4021
-61.7454
-60.9006
-59.8904
-58.7361
-57.4576
-56.073
-54.5995
-53.0526
-51.4467
-49.795
-48.1095
-46.4012
-44.68
-42.9548
-41.2337
-39.5239
-37.8316
-36.1626
-34.5217
-32.9133
-31.341
-29.8078
-28.3165
-26.869
-25.4672
-24.1122
-22.8051
-21.5464
-20.3364
-19.1753
-18.0627
-16.9984
-15.9817
-15.012
-14.0884
-13.2098
-12.3751
-11.5833
-10.833
-10.123
-9.45196
-8.81843
-8.22108
-7.65849
-7.12927
-6.63203
-6.1654
-5.72802
-5.31855
-4.9357
-4.5782
-4.24481
-3.93434
-3.64565
-3.37764
-3.12925
-2.89947
-2.68735
-2.49198
-2.3125
-2.14811
-1.99804
-1.86161
-1.73816
-1.62708
-1.52784
-1.43992
-1.3629
-1.29636
-1.23997
-1.19343
-1.15649
-1.12896
-1.11069
-1.10157
70.9202
55.0186
40.396
26.9961
14.7612
3.63576
-6.43858
-15.519
-23.6579
-30.9116
-37.3353
-42.9811
-47.8987
-52.137
-55.7438
-58.7654
-61.2466
-63.2299
-64.756
-65.8634
-66.5888
-66.9671
-67.0314
-66.8126
-66.3404
-65.6422
-64.744
-63.6701
-62.443
-61.0837
-59.6118
-58.0453
-56.4008
-54.6935
-52.9376
-51.1457
-49.3296
-47.4998
-45.6657
-43.836
-42.0182
-40.2192
-38.4448
-36.7004
-34.9905
-33.3189
-31.689
-30.1035
-28.5647
-27.0744
-25.634
-24.2443
-22.9062
-21.6198
-20.3854
-19.2027
-18.0712
-16.9904
-15.9594
-14.9775
-14.0434
-13.1561
-12.3143
-11.5167
-10.7619
-10.0485
-9.37497
-8.73991
-8.14181
-7.5792
-7.05058
-6.5545
-6.08952
-5.65421
-5.2472
-4.86713
-4.5127
-4.18264
-3.87573
-3.59081
-3.32674
-3.08246
-2.85695
-2.64925
-2.45844
-2.28367
-2.12414
-1.9791
-1.84785
-1.72977
-1.62426
-1.5308
-1.44891
-1.37818
-1.31823
-1.26875
-1.22948
-1.20021
-1.18078
-1.1711
75.1128
58.2712
42.7841
28.592
15.6338
3.85069
-6.81922
-16.4364
-25.0565
-32.739
-39.5425
-45.522
-50.7303
-55.2192
-59.0392
-62.2395
-64.8673
-66.9679
-68.5842
-69.7571
-70.5254
-70.9261
-70.9941
-70.7624
-70.2622
-69.5228
-68.5715
-67.4341
-66.1344
-64.6948
-63.1359
-61.4768
-59.735
-57.9268
-56.0671
-54.1693
-52.2458
-50.3078
-48.3653
-46.4274
-44.5022
-42.5968
-40.7176
-38.87
-37.059
-35.2886
-33.5624
-31.8832
-30.2534
-28.675
-27.1494
-25.6776
-24.2603
-22.8979
-21.5905
-20.3379
-19.1395
-17.9948
-16.9029
-15.8629
-14.8736
-13.9339
-13.0423
-12.1976
-11.3981
-10.6425
-9.92919
-9.25659
-8.62314
-8.02726
-7.46739
-6.94199
-6.44951
-5.98847
-5.5574
-5.15486
-4.77948
-4.4299
-4.10485
-3.80309
-3.52341
-3.26469
-3.02585
-2.80587
-2.60378
-2.41868
-2.24972
-2.0961
-1.95709
-1.83203
-1.72028
-1.6213
-1.53457
-1.45965
-1.39616
-1.34375
-1.30216
-1.27116
-1.25059
-1.24033
79.2869
61.5094
45.1617
30.1809
16.5026
4.06467
-7.19817
-17.3498
-26.4489
-34.5583
-41.7399
-48.0517
-53.5494
-58.2877
-62.32
-65.6982
-68.4721
-70.6894
-72.3955
-73.6335
-74.4445
-74.8675
-74.9393
-74.6947
-74.1667
-73.3862
-72.3821
-71.1814
-69.8096
-68.29
-66.6444
-64.893
-63.0545
-61.1459
-59.1828
-57.1795
-55.1492
-53.1034
-51.053
-49.0074
-46.9752
-44.9639
-42.9803
-41.0301
-39.1184
-37.2496
-35.4274
-33.6549
-31.9346
-30.2685
-28.6581
-27.1045
-25.6085
-24.1704
-22.7903
-21.468
-20.2031
-18.9948
-17.8422
-16.7444
-15.7002
-14.7082
-13.7671
-12.8754
-12.0315
-11.2339
-10.481
-9.77098
-9.10233
-8.47334
-7.88236
-7.32776
-6.80792
-6.32126
-5.86623
-5.44132
-5.04508
-4.67608
-4.33296
-4.01443
-3.71921
-3.44611
-3.194
-2.96179
-2.74848
-2.55309
-2.37473
-2.21258
-2.06585
-1.93383
-1.81588
-1.71139
-1.61985
-1.54077
-1.47375
-1.41843
-1.37453
-1.3418
-1.32009
-1.30926
83.4414
64.7323
47.5281
31.7623
17.3673
4.27765
-7.57535
-18.2588
-27.8347
-36.3692
-43.927
-50.5695
-56.3553
-61.3419
-65.5854
-69.1406
-72.0599
-74.3934
-76.1889
-77.4918
-78.3453
-78.7904
-78.866
-78.6086
-78.053
-77.2315
-76.1748
-74.9112
-73.4675
-71.8682
-70.1364
-68.2933
-66.3585
-64.3498
-62.2838
-60.1756
-58.0389
-55.886
-53.7281
-51.5753
-49.4366
-47.32
-45.2323
-43.18
-41.1681
-39.2014
-37.2838
-35.4184
-33.6079
-31.8545
-30.1597
-28.5247
-26.9503
-25.4369
-23.9845
-22.5929
-21.2617
-19.9901
-18.7771
-17.6218
-16.5228
-15.4789
-14.4885
-13.55
-12.662
-11.8226
-11.0301
-10.283
-9.57928
-8.91733
-8.29539
-7.71172
-7.16464
-6.65248
-6.17361
-5.72644
-5.30943
-4.9211
-4.56001
-4.22478
-3.91409
-3.62668
-3.36136
-3.11699
-2.89249
-2.68687
-2.49917
-2.32852
-2.1741
-2.03517
-1.91103
-1.80107
-1.70472
-1.6215
-1.55097
-1.49275
-1.44655
-1.41211
-1.38926
-1.37786
87.5753
67.9394
49.8828
33.3359
18.2278
4.48958
-7.95066
-19.1634
-29.2137
-38.171
-46.1033
-53.0748
-59.1473
-64.3809
-68.8347
-72.566
-75.63
-78.0791
-79.9635
-81.331
-82.2268
-82.6939
-82.7732
-82.5031
-81.9199
-81.0578
-79.9487
-78.6225
-77.1072
-75.4288
-73.6112
-71.6768
-69.646
-67.5379
-65.3695
-63.1569
-60.9143
-58.6547
-56.3899
-54.1305
-51.8858
-49.6643
-47.4733
-45.3192
-43.2077
-41.1436
-39.1309
-37.1731
-35.2729
-33.4326
-31.6539
-29.9379
-28.2855
-26.6971
-25.1728
-23.7122
-22.315
-20.9804
-19.7074
-18.4948
-17.3414
-16.2457
-15.2063
-14.2213
-13.2893
-12.4083
-11.5766
-10.7924
-10.0539
-9.35912
-8.70636
-8.09378
-7.5196
-6.98206
-6.47946
-6.01014
-5.57247
-5.1649
-4.78592
-4.43408
-4.108
-3.80636
-3.52789
-3.27141
-3.0358
-2.81998
-2.62298
-2.44388
-2.28181
-2.13599
-2.00571
-1.8903
-1.78918
-1.70184
-1.62781
-1.56671
-1.51822
-1.48207
-1.45809
-1.44612
91.6876
71.1296
52.2251
34.9013
19.0837
4.70039
-8.324
-20.0633
-30.5855
-39.9634
-48.2682
-55.5671
-61.9247
-67.404
-72.067
-75.9736
-79.1814
-81.7455
-83.7184
-85.1501
-86.0879
-86.577
-86.66
-86.3772
-85.7667
-84.864
-83.7029
-82.3144
-80.728
-78.9707
-77.0678
-75.0425
-72.9164
-70.7092
-68.4391
-66.1226
-63.7746
-61.409
-59.0379
-56.6723
-54.3223
-51.9964
-49.7025
-47.4473
-45.2366
-43.0756
-40.9684
-38.9187
-36.9293
-35.0025
-33.1403
-31.3437
-29.6137
-27.9507
-26.3548
-24.8257
-23.3629
-21.9656
-20.6328
-19.3633
-18.1557
-17.0086
-15.9203
-14.8891
-13.9133
-12.9909
-12.1202
-11.2992
-10.526
-9.7986
-9.11519
-8.47385
-7.8727
-7.30992
-6.78372
-6.29236
-5.83414
-5.40743
-5.01066
-4.6423
-4.30091
-3.9851
-3.69355
-3.42503
-3.17835
-2.9524
-2.74615
-2.55864
-2.38896
-2.2363
-2.09989
-1.97906
-1.8732
-1.78175
-1.70425
-1.64028
-1.58951
-1.55167
-1.52656
-1.51403
95.7773
74.3023
54.5546
36.458
19.9349
4.91004
-8.6953
-20.9581
-31.9498
-41.746
-50.4212
-58.0456
-64.6868
-70.4105
-75.2815
-79.3623
-82.7132
-85.3917
-87.4527
-88.9482
-89.9279
-90.4388
-90.5255
-90.23
-89.5922
-88.6494
-87.4364
-85.986
-84.3288
-82.4932
-80.5053
-78.3897
-76.1688
-73.8632
-71.4918
-69.0719
-66.6193
-64.1481
-61.6712
-59.2002
-56.7453
-54.3157
-51.9194
-49.5636
-47.2544
-44.9969
-42.7958
-40.6546
-38.5765
-36.5638
-34.6185
-32.7418
-30.9346
-29.1974
-27.5303
-25.933
-24.405
-22.9454
-21.5531
-20.227
-18.9656
-17.7673
-16.6304
-15.5533
-14.5339
-13.5704
-12.6608
-11.8032
-10.9955
-10.2357
-9.52177
-8.85182
-8.22386
-7.63598
-7.08631
-6.57303
-6.09437
-5.64863
-5.23416
-4.84937
-4.49275
-4.16285
-3.8583
-3.5778
-3.32012
-3.08409
-2.86865
-2.67277
-2.49552
-2.33605
-2.19356
-2.06734
-1.95675
-1.86123
-1.78027
-1.71345
-1.66041
-1.62088
-1.59465
-1.58157
99.8433
77.4567
56.8706
38.0058
20.7812
5.11849
-9.06445
-21.8479
-33.3062
-43.5182
-52.5617
-60.5099
-67.4329
-73.3997
-78.4774
-82.7315
-86.2247
-89.0169
-91.1653
-92.7243
-93.7456
-94.2782
-94.3686
-94.0606
-93.3957
-92.4128
-91.1483
-89.6364
-87.9088
-85.9952
-83.923
-81.7176
-79.4024
-76.9989
-74.5269
-72.0042
-69.4475
-66.8714
-64.2893
-61.7134
-59.1543
-56.6215
-54.1236
-51.6678
-49.2605
-46.9072
-44.6126
-42.3805
-40.2142
-38.1161
-36.0881
-34.1318
-32.2479
-30.437
-28.6991
-27.034
-25.4411
-23.9195
-22.4681
-21.0857
-19.7707
-18.5215
-17.3364
-16.2135
-15.1509
-14.1465
-13.1983
-12.3043
-11.4623
-10.6702
-9.926
-9.22761
-8.57299
-7.96015
-7.38715
-6.85208
-6.3531
-5.88844
-5.45637
-5.05524
-4.68348
-4.33958
-4.0221
-3.72969
-3.46107
-3.21503
-2.99043
-2.78624
-2.60147
-2.43522
-2.28668
-2.15511
-2.03982
-1.94024
-1.85585
-1.78619
-1.7309
-1.6897
-1.66235
-1.64871
103.885
80.5919
59.1726
39.5442
21.6224
5.32567
-9.43136
-22.7322
-34.6543
-45.2798
-54.6893
-62.9591
-70.1624
-76.3707
-81.654
-86.0803
-89.7149
-92.6201
-94.8555
-96.4776
-97.5402
-98.0943
-98.1884
-97.868
-97.1762
-96.1534
-94.8378
-93.2647
-91.4672
-89.4761
-87.32
-85.0254
-82.6164
-80.1156
-77.5435
-74.9188
-72.2585
-69.5781
-66.8916
-64.2114
-61.5487
-58.9134
-56.3144
-53.7591
-51.2544
-48.8059
-46.4184
-44.096
-41.8419
-39.6589
-37.5489
-35.5133
-33.5532
-31.669
-29.8608
-28.1282
-26.4708
-24.8877
-23.3776
-21.9392
-20.571
-19.2712
-18.0382
-16.8698
-15.7642
-14.7191
-13.7326
-12.8023
-11.9262
-11.1021
-10.3278
-9.60112
-8.92
-8.28236
-7.68616
-7.12944
-6.61026
-6.12679
-5.67723
-5.25986
-4.87306
-4.51524
-4.18491
-3.88066
-3.60117
-3.34516
-3.11148
-2.89902
-2.70677
-2.53379
-2.37924
-2.24234
-2.12239
-2.01878
-1.93097
-1.85849
-1.80097
-1.75809
-1.72964
-1.71545
107.901
83.7073
61.46
41.0728
22.4582
5.53153
-9.79594
-23.6109
-35.9939
-47.0301
-56.8034
-65.3929
-72.8746
-79.3229
-84.8104
-89.4078
-93.1829
-96.2005
-98.5223
-100.207
-101.311
-101.886
-101.984
-101.651
-100.933
-99.8704
-98.5038
-96.8699
-95.0029
-92.9349
-90.6955
-88.3121
-85.81
-83.2126
-80.541
-77.8149
-75.0518
-72.2678
-69.4774
-66.6935
-63.9279
-61.1908
-58.4913
-55.8373
-53.2357
-50.6925
-48.2127
-45.8005
-43.4594
-41.1919
-39.0004
-36.8861
-34.8502
-32.8932
-31.0151
-29.2156
-27.4941
-25.8497
-24.2812
-22.7873
-21.3662
-20.0162
-18.7355
-17.5219
-16.3736
-15.2881
-14.2634
-13.2972
-12.3873
-11.5313
-10.727
-9.97226
-9.26482
-8.60253
-7.98328
-7.40503
-6.86579
-6.36363
-5.89669
-5.46319
-5.06143
-4.68978
-4.34668
-4.03068
-3.74038
-3.47448
-3.23176
-3.01108
-2.8114
-2.63174
-2.47122
-2.32902
-2.20444
-2.09682
-2.00561
-1.93033
-1.87059
-1.82606
-1.7965
-1.78176
111.89
86.802
63.7322
42.5913
23.2885
5.73603
-10.1581
-24.4838
-37.3246
-48.7689
-58.9035
-67.8105
-75.5689
-82.2555
-87.9459
-92.7133
-96.6279
-99.7571
-102.165
-103.912
-105.056
-105.653
-105.754
-105.409
-104.664
-103.563
-102.146
-100.451
-98.5153
-96.3708
-94.0486
-91.5771
-88.9825
-86.289
-83.5187
-80.6917
-77.8265
-74.9395
-72.046
-69.1592
-66.2914
-63.4531
-60.6537
-57.9016
-55.2039
-52.5667
-49.9952
-47.4938
-45.0661
-42.7148
-40.4422
-38.2498
-36.1387
-34.1093
-32.1617
-30.2957
-28.5106
-26.8054
-25.1789
-23.6297
-22.1561
-20.7562
-19.4281
-18.1697
-16.9789
-15.8533
-14.7907
-13.7888
-12.8452
-11.9576
-11.1236
-10.3409
-9.60735
-8.92057
-8.27843
-7.6788
-7.11962
-6.5989
-6.11469
-5.66517
-5.24856
-4.86317
-4.50739
-4.1797
-3.87866
-3.60293
-3.35124
-3.12241
-2.91534
-2.72904
-2.56258
-2.41513
-2.28594
-2.17434
-2.07976
-2.0017
-1.93975
-1.89357
-1.86292
-1.84764
115.851
89.8753
65.9887
44.0993
24.1131
5.93912
-10.5178
-25.3507
-38.6461
-50.4956
-60.989
-70.2114
-78.2444
-85.1678
-91.0597
-95.9959
-100.049
-103.289
-105.782
-107.591
-108.776
-109.394
-109.499
-109.141
-108.37
-107.229
-105.762
-104.008
-102.003
-99.7829
-97.3784
-94.8194
-92.133
-89.3441
-86.4757
-83.5487
-80.582
-77.5928
-74.5968
-71.6079
-68.6385
-65.6997
-62.8012
-59.9516
-57.1584
-54.4278
-51.7653
-49.1754
-46.6617
-44.2272
-41.8741
-39.6041
-37.4182
-35.3169
-33.3004
-31.3683
-29.52
-27.7545
-26.0704
-24.4663
-22.9405
-21.4911
-20.116
-18.8131
-17.58
-16.4146
-15.3144
-14.277
-13.3
-12.381
-11.5174
-10.7071
-9.94751
-9.23641
-8.57154
-7.95068
-7.3717
-6.83254
-6.33119
-5.86575
-5.43439
-5.03535
-4.66697
-4.32768
-4.01599
-3.7305
-3.4699
-3.23296
-3.01857
-2.82567
-2.65331
-2.50064
-2.36688
-2.25133
-2.1534
-2.07257
-2.00843
-1.96061
-1.92888
-1.91305
119.784
92.9265
68.2289
45.5964
24.9317
6.14074
-10.8748
-26.2113
-39.9581
-52.2098
-63.0595
-72.595
-80.9007
-88.0591
-94.1511
-99.2548
-103.446
-106.796
-109.373
-111.243
-112.469
-113.108
-113.216
-112.847
-112.049
-110.87
-109.353
-107.539
-105.466
-103.17
-100.684
-98.0384
-95.2608
-92.3772
-89.4114
-86.385
-83.3176
-80.227
-77.1293
-74.0389
-70.9686
-67.9301
-64.9332
-61.9869
-59.0988
-56.2755
-53.5227
-50.8448
-48.2458
-45.7286
-43.2957
-40.9486
-38.6885
-36.5159
-34.4309
-32.4332
-30.5222
-28.6967
-26.9555
-25.2969
-23.7193
-22.2207
-20.7989
-19.4517
-18.1769
-16.9719
-15.8343
-14.7617
-13.7515
-12.8013
-11.9084
-11.0706
-10.2852
-9.54998
-8.86253
-8.2206
-7.62196
-7.06449
-6.54613
-6.06489
-5.61888
-5.2063
-4.82541
-4.4746
-4.15233
-3.85715
-3.58769
-3.34272
-3.12104
-2.9216
-2.74339
-2.58554
-2.44723
-2.32776
-2.22651
-2.14294
-2.07661
-2.02717
-1.99436
-1.978
123.688
95.9547
70.4523
47.0822
25.7442
6.34084
-11.2292
-27.0654
-41.2602
-53.9112
-65.1144
-74.9606
-83.537
-90.9287
-97.2192
-102.489
-106.817
-110.276
-112.937
-114.869
-116.134
-116.793
-116.905
-116.524
-115.7
-114.483
-112.916
-111.043
-108.903
-106.532
-103.965
-101.233
-98.365
-95.3875
-92.3251
-89.2
-86.0327
-82.8413
-79.6427
-76.4516
-73.2813
-70.1437
-67.0492
-64.0069
-61.0247
-58.1094
-55.2668
-52.5017
-49.818
-47.2188
-44.7066
-42.283
-39.9492
-37.7058
-35.5529
-33.4901
-31.5168
-29.6318
-27.8339
-26.1213
-24.4923
-22.9448
-21.4767
-20.0856
-18.7692
-17.5249
-16.3503
-15.2428
-14.1997
-13.2184
-12.2965
-11.4313
-10.6204
-9.86118
-9.15134
-8.48848
-7.87034
-7.29471
-6.75945
-6.26253
-5.80199
-5.37596
-4.98266
-4.62042
-4.28764
-3.98284
-3.70461
-3.45165
-3.22275
-3.0168
-2.83279
-2.66979
-2.52698
-2.40362
-2.29906
-2.21277
-2.14428
-2.09324
-2.05936
-2.04246
127.561
98.9592
72.6583
48.5565
26.5503
6.53938
-11.5808
-27.9129
-42.5521
-55.5993
-67.1533
-77.3078
-86.1527
-93.7759
-100.263
-105.698
-110.161
-113.729
-116.474
-118.465
-119.77
-120.451
-120.566
-120.172
-119.323
-118.067
-116.452
-114.52
-112.313
-109.868
-107.221
-104.403
-101.445
-98.3743
-95.216
-91.9931
-88.7265
-85.4353
-82.1364
-78.8454
-75.5759
-72.34
-69.1486
-66.011
-62.9355
-59.9289
-56.9973
-54.1456
-51.3779
-48.6973
-46.1064
-43.6069
-41.2001
-38.8865
-36.6661
-34.5388
-32.5037
-30.5597
-28.7054
-26.9392
-25.2592
-23.6632
-22.1492
-20.7145
-19.3569
-18.0737
-16.8623
-15.72
-14.6443
-13.6323
-12.6815
-11.7893
-10.9529
-10.17
-9.43788
-8.75427
-8.11678
-7.52312
-6.9711
-6.45862
-5.98366
-5.54429
-5.13868
-4.7651
-4.4219
-4.10755
-3.82061
-3.55973
-3.32366
-3.11127
-2.92149
-2.75339
-2.60611
-2.47888
-2.37105
-2.28206
-2.21143
-2.15878
-2.12384
-2.10642
131.402
101.939
74.8464
50.0187
27.3498
6.73631
-11.9296
-28.7535
-43.8336
-57.2736
-69.1756
-79.6359
-88.7471
-96.5999
-103.283
-108.881
-113.479
-117.154
-119.981
-122.033
-123.377
-124.078
-124.197
-123.791
-122.916
-121.623
-119.959
-117.969
-115.695
-113.177
-110.449
-107.547
-104.5
-101.337
-98.0833
-94.7634
-91.3984
-88.0081
-84.6099
-81.2198
-77.8518
-74.5185
-71.231
-67.9989
-64.8307
-61.7336
-58.7137
-55.7762
-52.9251
-50.1638
-47.4949
-44.9201
-42.4408
-40.0575
-37.7703
-35.5789
-33.4825
-31.4799
-29.5698
-27.7505
-26.0198
-24.3759
-22.8162
-21.3383
-19.9398
-18.618
-17.3701
-16.1934
-15.0853
-14.0429
-13.0634
-12.1443
-11.2828
-10.4762
-9.7221
-9.01791
-8.36121
-7.74968
-7.18104
-6.65312
-6.16386
-5.71125
-5.29343
-4.9086
-4.55507
-4.23125
-3.93567
-3.66693
-3.42375
-3.20496
-3.00948
-2.83631
-2.68459
-2.55353
-2.44246
-2.35078
-2.27802
-2.22379
-2.1878
-2.16985
135.211
104.894
77.016
51.4686
28.1426
6.93157
-12.2754
-29.587
-45.1042
-58.9339
-71.1808
-81.9443
-91.3197
-99.4
-106.277
-112.038
-116.768
-120.55
-123.459
-125.57
-126.953
-127.675
-127.797
-127.38
-126.479
-125.148
-123.436
-121.388
-119.049
-116.457
-113.651
-110.664
-107.529
-104.274
-100.927
-97.5103
-94.0478
-90.5592
-87.0625
-83.5741
-80.1085
-76.6786
-73.2958
-69.97
-66.71
-63.5231
-60.4157
-57.393
-54.4592
-51.6179
-48.8716
-46.2223
-43.6711
-41.2187
-38.8652
-36.6102
-34.4531
-32.3925
-30.427
-28.5549
-26.7741
-25.0824
-23.4775
-21.9569
-20.5178