/*--------------------------------*- C++ -*----------------------------------*\
| =========                 |                                                 |
| \\      /  F ield         | OpenFOAM: The Open Source CFD Toolbox           |
|  \\    /   O peration     | Version:  2406                                  |
|   \\  /    A nd           | Website:  www.openfoam.com                      |
|    \\/     M anipulation  |                                                 |
\*---------------------------------------------------------------------------*/
FoamFile
{
    version     2.0;
    format      ascii;
    arch        "LSB;label=32;scalar=64";
    class       volScalarField;
    location    "200";
    object      gradTy;
}
// * * * * * * * * * * * * * * * * * * * * * * * * * * * * * * * * * * * * * //

dimensions      [0 -1 0 1 0 0 0];

internalField   nonuniform List<scalar> 
20000
(
-98.6221
-97.8065
-96.2739
-94.1156
-91.4181
-88.2606
-84.7159
-80.8529
-76.7341
-72.4161
-67.9505
-63.3848
-58.7615
-54.119
-49.4914
-44.9088
-40.3979
-35.9816
-31.6802
-27.5106
-23.4873
-19.622
-15.9244
-12.402
-9.06014
-5.90272
-2.9319
-0.148455
2.44811
4.85942
7.08809
9.13761
11.0122
12.7167
14.2567
15.6378
16.8665
17.9492
18.8926
19.7036
20.3893
20.9565
21.4124
21.764
22.018
22.1812
22.2602
22.2615
22.1913
22.0557
21.8604
21.611
21.3128
20.971
20.5903
20.1752
19.7302
19.2593
18.7661
18.2544
17.7274
17.1881
16.6394
16.0839
15.5239
14.9617
14.3992
13.8381
13.2801
12.7266
12.1788
11.6378
11.1045
10.5798
10.0642
9.55828
9.06249
8.5771
8.10231
7.63823
7.18485
6.74212
6.30989
5.88793
5.47596
5.07365
4.6806
4.29636
3.92045
3.55234
3.19145
2.8372
2.48896
2.14607
1.80787
1.47367
1.14275
0.814405
0.487904
0.162511
-98.5979
-97.7823
-96.25
-94.0926
-91.3954
-88.2385
-84.695
-80.8332
-76.7153
-72.3981
-67.9337
-63.3691
-58.747
-54.1057
-49.4792
-44.8978
-40.3879
-35.9728
-31.6724
-27.5038
-23.4815
-19.6172
-15.9205
-12.3989
-9.0579
-5.90126
-2.93117
-0.148416
2.44751
4.85822
7.08635
9.13535
11.0095
12.7136
14.2532
15.634
16.8623
17.9447
18.8879
19.6988
20.3842
20.9514
21.4072
21.7586
22.0125
22.1757
22.2547
22.256
22.1859
22.0503
21.855
21.6057
21.3076
20.9658
20.5852
20.1703
19.7254
19.2545
18.7615
18.2499
17.723
17.1838
16.6353
16.0799
15.5201
14.958
14.3956
13.8347
13.2769
12.7235
12.1758
11.635
11.1018
10.5772
10.0617
9.55592
9.06025
8.57498
8.10031
7.63634
7.18308
6.74046
6.30833
5.88648
5.47461
5.0724
4.67945
4.2953
3.91948
3.55146
3.19066
2.8365
2.48834
2.14554
1.80742
1.4733
1.14247
0.814205
0.487784
0.162471
-98.5493
-97.7343
-96.2025
-94.0461
-91.3503
-88.1949
-84.6533
-80.7934
-76.6774
-72.3623
-67.9001
-63.3377
-58.718
-54.079
-49.4548
-44.8756
-40.368
-35.955
-31.6568
-27.4903
-23.4699
-19.6075
-15.9126
-12.3928
-9.05343
-5.89834
-2.92972
-0.148337
2.44631
4.85583
7.08285
9.13085
11.0041
12.7073
14.2461
15.6263
16.854
17.9359
18.8786
19.689
20.3742
20.941
21.3966
21.7479
22.0017
22.1647
22.2437
22.245
22.1749
22.0394
21.8442
21.595
21.2971
20.9555
20.575
20.1603
19.7156
19.245
18.7522
18.2409
17.7142
17.1754
16.6271
16.072
15.5124
14.9506
14.3885
13.8279
13.2703
12.7172
12.1698
11.6292
11.0963
10.5719
10.0567
9.55121
9.05578
8.57075
8.09631
7.63257
7.17953
6.73713
6.30522
5.88357
5.47191
5.0699
4.67714
4.29318
3.91755
3.54971
3.18909
2.8351
2.48711
2.14448
1.80653
1.47257
1.1419
0.813803
0.487543
0.162391
-98.4761
-97.662
-96.1313
-93.9764
-91.2827
-88.1297
-84.5907
-80.7336
-76.6206
-72.3087
-67.8497
-63.2908
-58.6745
-54.039
-49.4182
-44.8424
-40.3381
-35.9284
-31.6333
-27.4699
-23.4525
-19.593
-15.9009
-12.3836
-9.04672
-5.89397
-2.92755
-0.148222
2.4445
4.85224
7.07761
9.12409
10.9959
12.6979
14.2356
15.6147
16.8415
17.9226
18.8646
19.6745
20.3591
20.9255
21.3808
21.7318
21.9854
22.1483
22.2273
22.2286
22.1585
22.023
21.828
21.579
21.2813
20.9399
20.5598
20.1454
19.701
19.2307
18.7384
18.2274
17.7011
17.1626
16.6148
16.0601
15.5009
14.9395
14.3779
13.8176
13.2605
12.7078
12.1608
11.6206
11.0881
10.5641
10.0493
9.54413
9.04907
8.5644
8.09032
7.62692
7.17422
6.73214
6.30055
5.87921
5.46786
5.06614
4.67367
4.29001
3.91465
3.54708
3.18673
2.833
2.48527
2.14289
1.80519
1.47148
1.14106
0.8132
0.487182
0.162271
-98.3787
-97.5654
-96.0363
-93.8836
-91.1926
-88.0427
-84.5071
-80.6538
-76.5449
-72.2372
-67.7827
-63.2283
-58.6166
-53.9856
-49.3694
-44.7982
-40.2983
-35.8929
-31.6021
-27.4428
-23.4293
-19.5736
-15.8851
-12.3714
-9.03777
-5.88814
-2.92465
-0.148071
2.44209
4.84745
7.07062
9.11508
10.985
12.6854
14.2215
15.5993
16.8249
17.9049
18.846
19.655
20.339
20.9048
21.3596
21.7103
21.9636
22.1265
22.2053
22.2066
22.1366
22.0013
21.8065
21.5577
21.2603
20.9193
20.5395
20.1255
19.6816
19.2117
18.7198
18.2094
17.6836
17.1457
16.5983
16.0442
15.4856
14.9248
14.3637
13.804
13.2474
12.6952
12.1488
11.6091
11.0772
10.5537
10.0394
9.53471
9.04013
8.55594
8.08233
7.61938
7.16713
6.72549
6.29432
5.87341
5.46246
5.06114
4.66906
4.28577
3.91078
3.54357
3.18358
2.8302
2.48282
2.14078
1.80341
1.47003
1.13993
0.812397
0.486701
0.162111
-98.2572
-97.4448
-95.9177
-93.7676
-91.0799
-87.9339
-84.4027
-80.5541
-76.4503
-72.148
-67.6989
-63.1502
-58.5442
-53.9189
-49.3085
-44.7428
-40.2485
-35.8486
-31.563
-27.4089
-23.4004
-19.5494
-15.8655
-12.3561
-9.0266
-5.88086
-2.92103
-0.147881
2.43908
4.84147
7.06189
9.10382
10.9715
12.6697
14.204
15.58
16.8041
17.8828
18.8227
19.6307
20.3138
20.879
21.3332
21.6835
21.9365
22.0991
22.1779
22.1792
22.1093
21.9741
21.7795
21.531
21.234
20.8934
20.5141
20.1006
19.6572
19.188
18.6967
18.1869
17.6618
17.1245
16.5778
16.0244
15.4665
14.9063
14.3459
13.7869
13.231
12.6795
12.1338
11.5948
11.0635
10.5406
10.027
9.52292
9.02896
8.54537
8.07234
7.60997
7.15828
6.71718
6.28655
5.86615
5.45571
5.05489
4.66329
4.28047
3.90595
3.5392
3.17964
2.8267
2.47975
2.13813
1.80118
1.46821
1.13852
0.811393
0.486099
0.16191
-98.1115
-97.3002
-95.7754
-93.6285
-90.9448
-87.8034
-84.2774
-80.4346
-76.3368
-72.0409
-67.5985
-63.0565
-58.4573
-53.839
-49.2353
-44.6765
-40.1888
-35.7954
-31.5162
-27.3682
-23.3656
-19.5204
-15.842
-12.3377
-9.0132
-5.87213
-2.91669
-0.147655
2.43547
4.83429
7.05142
9.09032
10.9552
12.6509
14.1829
15.5569
16.7792
17.8563
18.7948
19.6016
20.2837
20.848
21.3016
21.6513
21.904
22.0663
22.145
22.1463
22.0764
21.9415
21.7472
21.4991
21.2025
20.8624
20.4837
20.0708
19.6281
19.1595
18.669
18.1599
17.6356
17.0991
16.5532
16.0006
15.4435
14.8842
14.3246
13.7665
13.2114
12.6607
12.1158
11.5776
11.047
10.525
10.0121
9.50879
9.01557
8.53269
8.06036
7.59868
7.14765
6.70722
6.27722
5.85744
5.44761
5.04739
4.65637
4.27412
3.90015
3.53394
3.17493
2.82251
2.47607
2.13496
1.79851
1.46604
1.13683
0.810189
0.485378
0.16167
-97.9415
-97.1316
-95.6094
-93.4663
-90.7872
-87.6512
-84.1314
-80.2952
-76.2046
-71.9161
-67.4814
-62.9473
-58.3561
-53.7457
-49.15
-44.5991
-40.1192
-35.7334
-31.4616
-27.3208
-23.3252
-19.4866
-15.8145
-12.3163
-8.99758
-5.86194
-2.91163
-0.147393
2.43125
4.82592
7.03921
9.07457
10.9362
12.629
14.1583
15.5299
16.7501
17.8253
18.7622
19.5676
20.2486
20.8119
21.2647
21.6138
21.866
22.0281
22.1066
22.1079
22.0382
21.9035
21.7095
21.4618
21.1657
20.8263
20.4482
20.036
19.5941
19.1263
18.6366
18.1284
17.605
17.0695
16.5245
15.9729
15.4168
14.8584
14.2998
13.7426
13.1885
12.6388
12.0948
11.5575
11.0279
10.5068
9.99473
9.49232
8.99994
8.5179
8.04639
7.58551
7.13527
6.69559
6.26634
5.84729
5.43817
5.03864
4.6483
4.26671
3.8934
3.52782
3.16943
2.81762
2.47178
2.13126
1.79539
1.4635
1.13486
0.808785
0.484537
0.16139
-97.7474
-96.9391
-95.4199
-93.281
-90.6072
-87.4775
-83.9646
-80.136
-76.0535
-71.7735
-67.3476
-62.8225
-58.2404
-53.6392
-49.0526
-44.5107
-40.0396
-35.6626
-31.3992
-27.2666
-23.2789
-19.4479
-15.7831
-12.2919
-8.97973
-5.85032
-2.90585
-0.147094
2.42644
4.81636
7.02526
9.05659
10.9145
12.604
14.1302
15.4992
16.7169
17.79
18.725
19.5289
20.2084
20.7707
21.2225
21.5709
21.8227
21.9844
22.0628
22.0641
21.9945
21.8601
21.6665
21.4193
21.1238
20.785
20.4076
19.9963
19.5552
19.0884
18.5997
18.0925
17.5701
17.0356
16.4918
15.9412
15.3862
14.829
14.2714
13.7154
13.1623
12.6137
12.0708
11.5346
11.006
10.4859
9.97491
9.4735
8.9821
8.50102
8.03044
7.57047
7.12112
6.68232
6.25392
5.8357
5.42739
5.02865
4.63909
4.25826
3.88568
3.52083
3.16314
2.81203
2.46688
2.12703
1.79183
1.46059
1.13261
0.807182
0.483577
0.16107
-97.5291
-96.7226
-95.2068
-93.0727
-90.4048
-87.2821
-83.7771
-79.957
-75.8837
-71.6133
-67.1972
-62.6822
-58.1103
-53.5194
-48.9431
-44.4113
-39.9502
-35.5829
-31.3291
-27.2057
-23.2269
-19.4045
-15.7479
-12.2645
-8.95967
-5.83724
-2.89935
-0.14676
2.42102
4.80561
7.00957
9.03637
10.8902
12.5758
14.0987
15.4646
16.6796
17.7502
18.6832
19.4852
20.1633
20.7243
21.1751
21.5227
21.7739
21.9353
22.0135
22.0148
21.9454
21.8112
21.6181
21.3715
21.0766
20.7385
20.362
19.9516
19.5115
19.0458
18.5581
18.0521
17.5309
16.9976
16.455
15.9056
15.3518
14.7959
14.2396
13.6847
13.1329
12.5856
12.0438
11.5088
10.9815
10.4625
9.95263
9.45234
8.96204
8.48203
8.01251
7.55357
7.10522
6.6674
6.23995
5.82267
5.41527
5.01742
4.62873
4.24875
3.877
3.51296
3.15608
2.80575
2.46137
2.12228
1.78783
1.45733
1.13008
0.805379
0.482497
0.16071
-97.2868
-96.4822
-94.9702
-92.8414
-90.1802
-87.0652
-83.5689
-79.7584
-75.6951
-71.4353
-67.0303
-62.5265
-57.966
-53.3864
-48.8215
-44.3009
-39.851
-35.4945
-31.2513
-27.1381
-23.1692
-19.3563
-15.7088
-12.234
-8.9374
-5.82273
-2.89214
-0.14639
2.41501
4.79367
6.99216
9.01392
10.8631
12.5446
14.0637
15.4261
16.6381
17.7061
18.6368
19.4368
20.1132
20.6728
21.1225
21.4693
21.7198
21.8808
21.9588
21.9601
21.8908
21.757
21.5644
21.3184
21.0242
20.687
20.3114
19.902
19.463
18.9985
18.512
18.0072
17.4873
16.9553
16.4141
15.8661
15.3137
14.7591
14.2042
13.6507
13.1003
12.5543
12.0139
11.4802
10.9542
10.4365
9.9279
9.42885
8.93977
8.46095
7.9926
7.5348
7.08756
6.65083
6.22444
5.8082
5.40181
5.00495
4.61722
4.23819
3.86737
3.50423
3.14824
2.79878
2.45525
2.11701
1.78339
1.45371
1.12728
0.803378
0.481298
0.160311
-97.0204
-96.2181
-94.7102
-92.5872
-89.9333
-86.8269
-83.3401
-79.54
-75.4879
-71.2398
-66.8468
-62.3553
-57.8073
-53.2403
-48.6878
-44.1796
-39.7419
-35.3973
-31.1657
-27.0638
-23.1058
-19.3033
-15.6657
-12.2005
-8.91293
-5.80679
-2.88422
-0.145985
2.40841
4.78055
6.97302
8.98924
10.8334
12.5102
14.0252
15.3839
16.5926
17.6577
18.5857
19.3836
20.0581
20.6162
21.0647
21.4105
21.6603
21.8209
21.8987
21.9
21.8309
21.6975
21.5053
21.26
20.9667
20.6304
20.2558
19.8476
19.4098
18.9464
18.4613
17.9579
17.4394
16.9089
16.3691
15.8226
15.2718
14.7187
14.1653
13.6134
13.0644
12.5199
11.981
11.4488
10.9242
10.4079
9.90072
9.40304
8.91529
8.43779
7.97071
7.51417
7.06816
6.63262
6.2074
5.7923
5.38703
4.99125
4.60458
4.22658
3.85678
3.49464
3.13962
2.79112
2.44853
2.11121
1.77851
1.44973
1.12419
0.801178
0.47998
0.159872
-96.7301
-95.9302
-94.4268
-92.3102
-89.6642
-86.5671
-83.0908
-79.302
-75.262
-71.0266
-66.6468
-62.1687
-57.6343
-53.081
-48.5421
-44.0474
-39.623
-35.2914
-31.0724
-26.9828
-23.0366
-19.2455
-15.6189
-12.164
-8.88625
-5.78941
-2.87559
-0.145544
2.4012
4.76625
6.95216
8.96235
10.801
12.4728
13.9832
15.3379
16.5429
17.6048
18.5301
19.3256
19.9981
20.5545
21.0016
21.3464
21.5955
21.7556
21.8331
21.8344
21.7656
21.6325
21.441
21.1964
20.9039
20.5686
20.1952
19.7882
19.3517
18.8897
18.4061
17.9042
17.3872
16.8583
16.3201
15.7753
15.2261
14.6746
14.1229
13.5726
13.0253
12.4825
11.9452
11.4145
10.8915
10.3768
9.87109
9.3749
8.88862
8.41254
7.94686
7.49168
7.04701
6.61277
6.18883
5.77497
5.37091
4.97632
4.5908
4.21394
3.84524
3.48418
3.13022
2.78277
2.4412
2.1049
1.77319
1.44539
1.12083
0.798781
0.478544
0.159394
-96.416
-95.6187
-94.1202
-92.0104
-89.373
-86.2859
-82.8209
-79.0445
-75.0176
-70.796
-66.4303
-61.9668
-57.4471
-52.9086
-48.3845
-43.9044
-39.4943
-35.1768
-30.9715
-26.8952
-22.9618
-19.183
-15.5681
-12.1245
-8.85739
-5.7706
-2.86624
-0.145067
2.39341
4.75077
6.92958
8.93324
10.7659
12.4323
13.9378
15.288
16.4892
17.5477
18.47
19.2628
19.9331
20.4877
20.9334
21.2771
21.5254
21.6849
21.7622
21.7635
21.6949
21.5623
21.3713
21.1275
20.836
20.5018
20.1296
19.7239
19.2888
18.8284
18.3463
17.846
17.3308
16.8036
16.2671
15.724
15.1766
14.627
14.077
13.5285
12.983
12.4419
11.9064
11.3775
10.8561
10.3431
9.83903
9.34445
8.85975
8.38522
7.92105
7.46735
7.02412
6.5913
6.16873
5.75621
5.35346
4.96015
4.57589
4.20025
3.83275
3.47287
3.12006
2.77373
2.43328
2.09806
1.76743
1.4407
1.11719
0.796187
0.47699
0.158876
-96.078
-95.2835
-93.7903
-91.6879
-89.0598
-85.9835
-82.5306
-78.7674
-74.7547
-70.5478
-66.1975
-61.7496
-57.2458
-52.7231
-48.2149
-43.7505
-39.3558
-35.0535
-30.863
-26.8009
-22.8813
-19.1158
-15.5136
-12.082
-8.82634
-5.75037
-2.85619
-0.144555
2.38502
4.73412
6.90529
8.90193
10.7282
12.3887
13.8889
15.2345
16.4314
17.4861
18.4052
19.1953
19.8633
20.4159
20.8601
21.2025
21.4499
21.6089
21.6859
21.6872
21.6188
21.4867
21.2964
21.0535
20.763
20.43
20.0591
19.6548
19.2212
18.7624
18.282
17.7835
17.27
16.7447
16.2101
15.6689
15.1234
14.5757
14.0277
13.4811
12.9375
12.3983
11.8646
11.3376
10.8181
10.3068
9.80455
9.3117
8.82869
8.35583
7.89329
7.44118
6.9995
6.56819
6.14711
5.73603
5.3347
4.94277
4.55986
4.18553
3.81931
3.4607
3.10912
2.76401
2.42475
2.09071
1.76123
1.43565
1.11327
0.793396
0.475318
0.158319
-95.7164
-94.9248
-93.4372
-91.3428
-88.7246
-85.6599
-82.22
-78.471
-74.4733
-70.2823
-65.9483
-61.5172
-57.0303
-52.5247
-48.0334
-43.5858
-39.2077
-34.9215
-30.7468
-26.7
-22.7952
-19.0438
-15.4552
-12.0365
-8.79311
-5.72872
-2.84544
-0.144008
2.37605
4.7163
6.8793
8.86842
10.6878
12.3421
13.8366
15.1771
16.3696
17.4203
18.3359
19.1231
19.7885
20.3391
20.7815
21.1227
21.3692
21.5276
21.6043
21.6056
21.5375
21.4058
21.2163
20.9742
20.6848
20.3531
19.9836
19.5808
19.1489
18.6918
18.2132
17.7165
17.205
16.6816
16.1491
15.6099
15.0665
14.5208
13.9749
13.4304
12.8888
12.3516
11.82
11.2949
10.7773
10.268
9.76764
9.27665
8.79546
8.32437
7.86358
7.41317
6.97315
6.54347
6.12397
5.71444
5.31462
4.92416
4.54269
4.16977
3.80494
3.44767
3.09742
2.7536
2.41562
2.08284
1.7546
1.43025
1.10908
0.79041
0.473529
0.157723
-95.3311
-94.5428
-93.0611
-90.9751
-88.3674
-85.3151
-81.889
-78.1551
-74.1735
-69.9994
-65.6829
-61.2696
-56.8007
-52.3132
-47.8401
-43.4104
-39.0499
-34.781
-30.623
-26.5925
-22.7034
-18.9671
-15.3929
-11.988
-8.75771
-5.70566
-2.83398
-0.143426
2.36649
4.69732
6.85161
8.83273
10.6448
12.2924
13.7809
15.116
16.3037
17.3502
18.2621
19.0461
19.7088
20.2572
20.6979
21.0377
21.2832
21.4409
21.5173
21.5186
21.4508
21.3196
21.1309
20.8898
20.6016
20.2711
19.9031
19.5019
19.0718
18.6165
18.1399
17.6452
17.1358
16.6145
16.0841
15.5471
15.0058
14.4624
13.9186
13.3763
12.837
12.3019
11.7724
11.2494
10.734
10.2267
9.72832
9.23931
8.76006
8.29087
7.83192
7.38333
6.94508
6.51713
6.09932
5.69144
5.29323
4.90434
4.52441
4.15299
3.78962
3.43379
3.08495
2.74252
2.4059
2.07445
1.74754
1.42449
1.10462
0.787228
0.471623
0.157088
-94.9223
-94.1374
-92.6621
-90.585
-87.9885
-84.9492
-81.5379
-77.82
-73.8555
-69.6992
-65.4012
-61.0069
-56.5572
-52.0889
-47.6349
-43.2242
-38.8824
-34.6318
-30.4917
-26.4785
-22.6061
-18.8858
-15.3269
-11.9366
-8.72015
-5.68119
-2.82183
-0.142809
2.35634
4.67718
6.82223
8.79485
10.5991
12.2397
13.7219
15.0512
16.2338
17.2758
18.1838
18.9644
19.6243
20.1703
20.6091
20.9474
21.1919
21.349
21.4251
21.4263
21.3588
21.2282
21.0402
20.8002
20.5132
20.1842
19.8178
19.4183
18.99
18.5367
18.0621
17.5695
17.0623
16.5432
16.0151
15.4804
14.9415
14.4004
13.859
13.319
12.7819
12.2492
11.7219
11.2012
10.6879
10.1829
9.68661
9.19969
8.72249
8.25531
7.79834
7.35167
6.9153
6.48918
6.07316
5.66704
5.27053
4.88331
4.505
4.13518
3.77337
3.41907
3.07172
2.73076
2.39558
2.06556
1.74005
1.41838
1.09988
0.783853
0.4696
0.156415
-94.4901
-93.7087
-92.2402
-90.1725
-87.5879
-84.5624
-81.1666
-77.4656
-73.5192
-69.3818
-65.1034
-60.7291
-56.2996
-51.8517
-47.418
-43.0274
-38.7054
-34.4741
-30.3529
-26.3579
-22.5031
-18.7998
-15.2571
-11.8823
-8.68045
-5.65532
-2.80898
-0.142158
2.34561
4.65588
6.79117
8.7548
10.5508
12.184
13.6594
14.9827
16.1598
17.1971
18.101
18.8781
19.535
20.0785
20.5153
20.8521
21.0954
21.2518
21.3275
21.3288
21.2615
21.1316
20.9444
20.7055
20.4198
20.0923
19.7275
19.3299
18.9035
18.4523
17.9798
17.4895
16.9846
16.4679
15.9422
15.4099
14.8735
14.3348
13.7958
13.2583
12.7237
12.1934
11.6685
11.1502
10.6393
10.1365
9.6425
9.1578
8.68278
8.21772
7.76283
7.31819
6.88381
6.45963
6.04551
5.64123
5.24653
4.86108
4.48449
4.11635
3.75619
3.4035
3.05773
2.71833
2.38467
2.05615
1.73212
1.41192
1.09487
0.780284
0.467462
0.155702
-94.0346
-93.257
-91.7955
-89.7378
-87.1656
-84.1548
-80.7753
-77.0922
-73.1647
-69.0474
-64.7895
-60.4363
-56.0282
-51.6018
-47.1894
-42.82
-38.5188
-34.3079
-30.2065
-26.2309
-22.3946
-18.7092
-15.1836
-11.825
-8.6386
-5.62805
-2.79543
-0.141472
2.3343
4.63344
6.75843
8.7126
10.5
12.1252
13.5935
14.9104
16.0819
17.1142
18.0137
18.787
19.4408
19.9817
20.4164
20.7515
20.9937
21.1493
21.2247
21.2259
21.159
21.0297
20.8435
20.6057
20.3214
19.9954
19.6324
19.2367
18.8124
18.3633
17.8931
17.4052
16.9027
16.3885
15.8653
15.3357
14.8018
14.2657
13.7293
13.1944
12.6624
12.1346
11.6123
11.0964
10.588
10.0876
9.59601
9.11365
8.64092
8.17811
7.72541
7.28291
6.85063
6.42849
6.01636
5.61404
5.22124
4.83764
4.46287
4.09651
3.73808
3.38709
3.04299
2.70522
2.37318
2.04624
1.72377
1.40512
1.08959
0.776522
0.465208
0.154952
-93.5559
-92.7822
-91.3282
-89.281
-86.7218
-83.7263
-80.3641
-76.6997
-72.7923
-68.6958
-64.4597
-60.1286
-55.743
-51.3391
-46.9492
-42.602
-38.3227
-34.1333
-30.0527
-26.0973
-22.2806
-18.6139
-15.1063
-11.7648
-8.59462
-5.5994
-2.7812
-0.140752
2.32242
4.60985
6.72402
8.66824
10.4465
12.0635
13.5243
14.8345
16.0001
17.0271
17.922
18.6914
19.3418
19.8799
20.3124
20.6459
20.8868
21.0416
21.1166
21.1179
21.0513
20.9226
20.7373
20.5008
20.2179
19.8936
19.5325
19.1388
18.7166
18.2698
17.802
17.3166
16.8166
16.3051
15.7846
15.2576
14.7264
14.1931
13.6594
13.1272
12.5979
12.0728
11.5532
11.04
10.5341
10.0363
9.54716
9.06725
8.59692
8.13647
7.68608
7.24583
6.81575
6.39577
5.98574
5.58545
5.19465
4.81301
4.44015
4.07565
3.71905
3.36985
3.0275
2.69145
2.36109
2.03582
1.715
1.39796
1.08405
0.772569
0.46284
0.154163
-93.054
-92.2845
-90.8383
-88.8021
-86.2567
-83.2772
-79.9331
-76.2883
-72.4018
-68.3274
-64.114
-59.8061
-55.444
-51.0637
-46.6973
-42.3735
-38.1171
-33.9502
-29.8915
-25.9573
-22.1611
-18.5141
-15.0253
-11.7017
-8.54852
-5.56937
-2.76628
-0.139998
2.30996
4.58512
6.68795
8.62174
10.3905
11.9988
13.4518
14.755
15.9142
16.9358
17.8259
18.5911
19.2381
19.7733
20.2035
20.5351
20.7748
20.9288
21.0034
21.0046
20.9384
20.8104
20.6261
20.3908
20.1095
19.7869
19.4277
19.0361
18.6162
18.1718
17.7066
17.2237
16.7264
16.2176
15.6999
15.1757
14.6474
14.1169
13.5862
13.0568
12.5303
12.0081
11.4912
10.9807
10.4776
9.98243
9.49595
9.01861
8.55081
8.09283
7.64485
7.20697
6.77919
6.36146
5.95363
5.5555
5.16679
4.7872
4.41634
4.05379
3.6991
3.35177
3.01126
2.67701
2.34843
2.0249
1.7058
1.39046
1.07823
0.768425
0.460358
0.153336
-92.5293
-91.7641
-90.326
-88.3013
-85.7703
-82.8076
-79.4823
-75.8581
-71.9935
-67.942
-63.7524
-59.4688
-55.1313
-50.7757
-46.434
-42.1345
-37.9021
-33.7587
-29.723
-25.8109
-22.0361
-18.4097
-14.9405
-11.6357
-8.50031
-5.53796
-2.75068
-0.139209
2.29693
4.55926
6.65023
8.57312
10.3319
11.9311
13.3759
14.6717
15.8245
16.8403
17.7254
18.4863
19.1296
19.6618
20.0895
20.4193
20.6576
20.8108
20.8849
20.8861
20.8203
20.693
20.5098
20.2758
19.9961
19.6753
19.3181
18.9288
18.5112
18.0694
17.6067
17.1266
16.6321
16.1262
15.6114
15.0902
14.5648
14.0373
13.5095
12.9832
12.4597
11.9403
11.4264
10.9188
10.4185
9.92614
9.4424
8.96775
8.50259
8.04719
7.60174
7.16632
6.74096
6.32559
5.92005
5.52417
5.13765
4.7602
4.39143
4.03093
3.67824
3.33287
2.99428
2.66192
2.33519
2.01349
1.69618
1.38262
1.07215
0.764091
0.457761
0.152471
-91.9817
-91.221
-89.7915
-87.7787
-85.2627
-82.3175
-79.0119
-75.4091
-71.5674
-67.5399
-63.3751
-59.1169
-54.805
-50.4752
-46.1592
-41.8851
-37.6778
-33.5589
-29.5471
-25.6582
-21.9057
-18.3007
-14.8521
-11.5668
-8.45
-5.50518
-2.73441
-0.138386
2.28334
4.53228
6.61088
8.52238
10.2707
11.8605
13.2967
14.5849
15.7308
16.7406
17.6205
18.3769
19.0164
19.5454
19.9706
20.2985
20.5354
20.6876
20.7613
20.7625
20.6971
20.5706
20.3884
20.1558
19.8777
19.5589
19.2038
18.8167
18.4017
17.9624
17.5025
17.0252
16.5337
16.0307
15.519
15.0008
14.4786
13.9542
13.4296
12.9063
12.3859
11.8697
11.3588
10.8542
10.3568
9.86739
9.38651
8.91468
8.45227
7.99957
7.55675
7.12391
6.70107
6.28815
5.88502
5.49147
5.10725
4.73203
4.36544
4.00708
3.65648
3.31315
2.97656
2.64616
2.32137
2.00157
1.68614
1.37444
1.06581
0.759569
0.455052
0.151569
-91.4114
-90.6555
-89.2348
-87.2345
-84.734
-81.8072
-78.522
-74.9416
-71.1237
-67.1212
-62.9822
-58.7504
-54.4652
-50.1623
-45.873
-41.6254
-37.4442
-33.3509
-29.3639
-25.4991
-21.7699
-18.1873
-14.76
-11.4951
-8.39761
-5.47105
-2.71745
-0.137529
2.26918
4.50418
6.56989
8.46954
10.2071
11.787
13.2143
14.4945
15.6333
16.6368
17.5112
18.2629
18.8984
19.4242
19.8468
20.1726
20.408
20.5593
20.6326
20.6338
20.5687
20.443
20.262
20.0308
19.7545
19.4376
19.0847
18.7001
18.2876
17.851
17.394
16.9197
16.4312
15.9313
15.4227
14.9078
14.3888
13.8677
13.3463
12.8263
12.3091
11.7961
11.2883
10.7869
10.2926
9.80621
9.32832
8.85941
8.39986
7.94997
7.5099
7.07974
6.65952
6.24916
5.84853
5.45742
5.07558
4.70269
4.33838
3.98223
3.63381
3.2926
2.95811
2.62976
2.30697
1.98916
1.67569
1.36592
1.0592
0.75486
0.452231
0.150629
-90.8185
-90.0675
-88.656
-86.6687
-84.1845
-81.2766
-78.0128
-74.4556
-70.6624
-66.6859
-62.5737
-58.3693
-54.112
-49.8369
-45.5755
-41.3555
-37.2014
-33.1346
-29.1734
-25.3337
-21.6287
-18.0693
-14.6643
-11.4206
-8.34315
-5.43557
-2.69983
-0.136639
2.25446
4.47496
6.52727
8.41461
10.1409
11.7105
13.1286
14.4005
15.5319
16.5289
17.3976
18.1445
18.7759
19.2983
19.7181
20.0418
20.2757
20.426
20.4988
20.5
20.4353
20.3104
20.1306
19.9009
19.6263
19.3115
18.961
18.5788
18.169
17.7353
17.2812
16.8099
16.3246
15.828
15.3227
14.8112
14.2955
13.7778
13.2598
12.7431
12.2293
11.7196
11.2151
10.7169
10.2259
9.74261
9.26782
8.80195
8.34539
7.89841
7.46119
7.03383
6.61633
6.20863
5.8106
5.42203
5.04267
4.67219
4.31024
3.95641
3.61024
3.27125
2.93892
2.6127
2.29201
1.97626
1.66482
1.35706
1.05233
0.749964
0.449298
0.149652
-90.2033
-89.4573
-88.0554
-86.0816
-83.6142
-80.726
-77.4842
-73.9512
-70.1837
-66.2341
-62.1498
-57.9739
-53.7454
-49.4993
-45.2667
-41.0753
-36.9494
-32.9101
-28.9758
-25.1621
-21.4822
-17.9469
-14.565
-11.3432
-8.28663
-5.39875
-2.68154
-0.135715
2.23919
4.44464
6.48305
8.3576
10.0722
11.6312
13.0396
14.3029
15.4267
16.4169
17.2798
18.0216
18.6487
19.1675
19.5845
19.906
20.1383
20.2876
20.3599
20.3611
20.2969
20.1728
19.9942
19.7661
19.4934
19.1807
18.8325
18.4529
18.0459
17.6151
17.1641
16.696
16.214
15.7208
15.2189
14.7108
14.1987
13.6844
13.1699
12.6568
12.1464
11.6402
11.1391
10.6443
10.1566
9.67661
9.20503
8.74232
8.28885
7.8449
7.41064
6.98618
6.57151
6.16657
5.77124
5.3853
5.0085
4.64054
4.28104
3.9296
3.58578
3.24909
2.91901
2.595
2.27649
1.96287
1.65354
1.34787
1.0452
0.744884
0.446254
0.148639
-89.5658
-88.8251
-87.4331
-85.4732
-83.0232
-80.1555
-76.9366
-73.4285
-69.6877
-65.766
-61.7105
-57.5642
-53.3656
-49.1495
-44.9468
-40.785
-36.6882
-32.6775
-28.771
-24.9843
-21.3304
-17.8201
-14.462
-11.263
-8.22807
-5.36059
-2.66259
-0.134757
2.22336
4.41323
6.43723
8.29853
10.001
11.549
12.9475
14.2018
15.3176
16.3009
17.1576
17.8942
18.5169
19.0321
19.4461
19.7653
19.996
20.1442
20.216
20.2172
20.1534
20.0303
19.8529
19.6264
19.3556
19.0452
18.6994
18.3225
17.9183
17.4906
17.0428
16.578
16.0994
15.6097
15.1113
14.6068
14.0983
13.5877
13.0769
12.5673
12.0606
11.5579
11.0604
10.5691
10.0848
9.60822
9.13997
8.68053
8.23027
7.78945
7.35827
6.9368
6.52506
6.12299
5.73045
5.34724
4.97311
4.60774
4.25078
3.90183
3.56044
3.22613
2.89838
2.57666
2.2604
1.949
1.64185
1.33834
1.03781
0.739619
0.4431
0.147588
-88.9061
-88.1709
-86.7892
-84.8437
-82.4118
-79.5651
-76.37
-72.8877
-69.1745
-65.2817
-61.2561
-57.1402
-52.9726
-48.7875
-44.6158
-40.4846
-36.418
-32.4368
-28.5591
-24.8003
-21.1733
-17.6888
-14.3555
-11.1801
-8.16747
-5.32112
-2.64298
-0.133766
2.20698
4.38073
6.38982
8.23741
9.92731
11.4639
12.8521
14.0972
15.2048
16.1808
17.0313
17.7624
18.3805
18.8919
19.3029
19.6198
19.8487
19.9959
20.0671
20.0683
20.005
19.8827
19.7067
19.4818
19.2131
18.9049
18.5617
18.1876
17.7864
17.3618
16.9173
16.456
15.9808
15.4947
15.0001
14.4993
13.9945
13.4877
12.9806
12.4748
11.9718
11.4728
10.979
10.4913
10.0105
9.53746
9.07266
8.6166
8.16966
7.73209
7.30408
6.88571
6.47701
6.0779
5.68824
5.30786
4.93648
4.57381
4.21948
3.8731
3.53422
3.20237
2.87704
2.55768
2.24375
1.93464
1.62976
1.32848
1.03017
0.734172
0.439837
0.146501
-88.2246
-87.495
-86.1239
-84.1933
-81.78
-78.9552
-75.7846
-72.329
-68.6442
-64.7812
-60.7865
-56.7022
-52.5665
-48.4135
-44.2738
-40.1743
-36.1389
-32.1882
-28.3402
-24.6102
-21.011
-17.5532
-14.2455
-11.0944
-8.10486
-5.28033
-2.62272
-0.132743
2.19006
4.34714
6.34084
8.17426
9.85121
11.376
12.7536
13.9892
15.0883
16.0568
16.9007
17.6262
18.2396
18.7471
19.1549
19.4694
19.6966
19.8426
19.9133
19.9144
19.8517
19.7303
19.5556
19.3325
19.0658
18.76
18.4194
18.0481
17.65
17.2287
16.7876
16.3298
15.8583
15.3759
14.8851
14.3881
13.8872
13.3843
12.881
12.3792
11.88
11.3848
10.8948
10.4108
9.93378
9.46435
9.00311
8.55055
8.10703
7.67281
7.24808
6.83293
6.42736
6.0313
5.64464
5.26717
4.89864
4.53874
4.18713
3.8434
3.50712
3.17782
2.85498
2.53808
2.22655
1.91981
1.61727
1.3183
1.02227
0.728544
0.436465
0.145378
-87.5213
-86.7975
-85.4373
-83.5221
-81.1281
-78.3258
-75.1804
-71.7524
-68.097
-64.2648
-60.3019
-56.2502
-52.1474
-48.0276
-43.9208
-39.854
-35.8508
-31.9316
-28.1143
-24.414
-20.8435
-17.4133
-14.1319
-11.0059
-8.04025
-5.23823
-2.60182
-0.131686
2.1726
4.31248
6.29029
8.1091
9.77267
11.2853
12.6519
13.8776
14.968
15.9288
16.766
17.4857
18.0942
18.5976
19.0022
19.3141
19.5395
19.6844
19.7545
19.7557
19.6934
19.573
19.3997
19.1784
18.9138
18.6104
18.2726
17.9042
17.5093
17.0914
16.6537
16.1996
15.7319
15.2533
14.7664
14.2734
13.7765
13.2776
12.7784
12.2805
11.7853
11.2941
10.8079
10.3278
9.85459
9.3889
8.93134
8.48238
8.0424
7.61165
7.1903
6.77846
6.37612
5.98322
5.59964
5.22518
4.85959
4.50256
4.15375
3.81277
3.47917
3.15248
2.83222
2.51784
2.2088
1.90451
1.60438
1.30779
1.01412
0.722737
0.432986
0.144219
-86.7964
-86.0786
-84.7296
-82.8304
-80.4561
-77.677
-74.5577
-71.1581
-67.533
-63.7325
-59.8024
-55.7843
-51.7155
-47.6298
-43.557
-39.5239
-35.5538
-31.6671
-27.8814
-24.2118
-20.6708
-17.2691
-14.0149
-10.9148
-7.97366
-5.19485
-2.58027
-0.130597
2.1546
4.27676
6.23818
8.04193
9.69173
11.1919
12.5471
13.7627
14.844
15.7968
16.6271
17.3409
17.9443
18.4436
18.8448
19.1542
19.3777
19.5213
19.5909
19.5921
19.5303
19.4109
19.239
19.0195
18.7571
18.4563
18.1212
17.7559
17.3643
16.9498
16.5158
16.0654
15.6016
15.127
14.6441
14.1552
13.6624
13.1676
12.6725
12.1788
11.6877
11.2005
10.7184
10.2423
9.77297
9.31113
8.85736
8.41213
7.97579
7.5486
7.13075
6.72231
6.32331
5.93367
5.55326
5.1819
4.81934
4.46527
4.11935
3.78119
3.45035
3.12637
2.80876
2.49699
2.1905
1.88873
1.59109
1.29696
1.00572
0.71675
0.4294
0.143025
-86.05
-85.3385
-84.0011
-82.1181
-79.7643
-77.0091
-73.9166
-70.5462
-66.9523
-63.1845
-59.2882
-55.3046
-51.2708
-47.2202
-43.1825
-39.1841
-35.2481
-31.3948
-27.6417
-24.0036
-20.4931
-17.1206
-13.8943
-10.8209
-7.9051
-5.15018
-2.55808
-0.129476
2.13608
4.23999
6.18454
7.97278
9.60839
11.0956
12.4392
13.6443
14.7164
15.661
16.4841
17.1918
17.79
18.285
18.6828
18.9895
19.2111
19.3535
19.4224
19.4236
19.3624
19.244
19.0736
18.856
18.5958
18.2976
17.9654
17.6033
17.215
16.8041
16.3738
15.9273
15.4675
14.9969
14.5182
14.0335
13.5449
13.0544
12.5636
12.074
11.5872
11.1042
10.6263
10.1542
9.68893
9.23107
8.7812
8.33979
7.90721
7.48369
7.06943
6.66451
6.26893
5.88264
5.50551
5.13734
4.7779
4.42687
4.08393
3.74867
3.42068
3.09949
2.78461
2.47552
2.17167
1.87249
1.57741
1.28581
0.997075
0.710587
0.425708
0.141795
-85.2825
-84.5773
-83.2518
-81.3856
-79.0528
-76.3222
-73.2573
-69.917
-66.3551
-62.6209
-58.7594
-54.8113
-50.8135
-46.799
-42.7973
-38.8346
-34.9337
-31.1148
-27.3951
-23.7895
-20.3103
-16.9679
-13.7704
-10.7244
-7.83459
-5.10425
-2.53527
-0.128323
2.11702
4.20216
6.12937
7.90166
9.52268
10.9967
12.3283
13.5226
14.5851
15.5213
16.3371
17.0384
17.6313
18.1219
18.5161
18.8201
19.0397
19.1808
19.2492
19.2503
19.1896
19.0723
18.9035
18.6878
18.43
18.1344
17.8051
17.4462
17.0614
16.6542
16.2277
15.7852
15.3295
14.8632
14.3887
13.9083
13.4241
12.9379
12.4515
11.9663
11.4838
11.0052
10.5315
10.0637
9.60251
9.14873
8.70287
8.2654
7.83667
7.41694
7.00637
6.60506
6.21302
5.83017
5.4564
5.09152
4.73528
4.38739
4.0475
3.71523
3.39017
3.07184
2.75977
2.45344
2.1523
1.85579
1.56334
1.27434
0.988182
0.704249
0.42191
0.14053
-84.4939
-83.7952
-82.482
-80.6331
-78.3218
-75.6165
-72.5799
-69.2704
-65.7415
-62.0418
-58.216
-54.3045
-50.3436
-46.3663
-42.4016
-38.4755
-34.6107
-30.8271
-27.1418
-23.5695
-20.1225
-16.811
-13.6431
-10.6252
-7.76214
-5.05705
-2.51183
-0.127139
2.09744
4.16331
6.07269
7.82859
9.43462
10.895
12.2143
13.3976
14.4502
15.3778
16.186
16.8809
17.4683
17.9543
18.3449
18.646
18.8636
19.0035
19.0712
19.0723
19.0122
18.896
18.7287
18.515
18.2595
17.9667
17.6405
17.2849
16.9037
16.5002
16.0777
15.6393
15.1877
14.7257
14.2556
13.7797
13.3
12.8183
12.3363
11.8557
11.3776
10.9034
10.4341
9.9706
9.51372
9.06413
8.6224
8.18897
7.76421
7.34836
6.94159
6.54399
6.15557
5.77626
5.40595
5.04444
4.69149
4.34682
4.01007
3.68088
3.35882
3.04344
2.73425
2.43075
2.1324
1.83863
1.54888
1.26255
0.979044
0.697737
0.418009
0.139231
-83.6844
-82.9924
-81.6918
-79.8606
-77.5715
-74.8921
-71.8846
-68.6068
-65.1117
-61.4475
-57.6583
-53.7842
-49.8613
-45.9221
-41.9954
-38.1069
-34.2791
-30.5317
-26.8818
-23.3437
-19.9297
-16.6499
-13.5124
-10.5234
-7.68778
-5.0086
-2.48777
-0.125923
2.07735
4.12342
6.01452
7.75359
9.34424
10.7906
12.0973
13.2692
14.3118
15.2305
16.031
16.7192
17.3009
17.7823
18.1691
18.4674
18.6829