/*--------------------------------*- C++ -*----------------------------------*\
| =========                 |                                                 |
| \\      /  F ield         | OpenFOAM: The Open Source CFD Toolbox           |
|  \\    /   O peration     | Version:  2406                                  |
|   \\  /    A nd           | Website:  www.openfoam.com                      |
|    \\/     M anipulation  |                                                 |
\*---------------------------------------------------------------------------*/
FoamFile
{
    version     2.0;
    format      ascii;
    arch        "LSB;label=32;scalar=64";
    class       volScalarField;
    location    "200";
    object      T;
}
// * * * * * * * * * * * * * * * * * * * * * * * * * * * * * * * * * * * * * //

dimensions      [0 0 0 1 0 0 0];

internalField   nonuniform List<scalar> 
20000
(
299.753
299.755
299.759
299.765
299.771
299.779
299.788
299.798
299.808
299.819
299.83
299.842
299.853
299.865
299.876
299.888
299.899
299.91
299.921
299.931
299.941
299.951
299.96
299.969
299.977
299.985
299.993
300
300.006
300.012
300.018
300.023
300.028
300.032
300.036
300.039
300.042
300.045
300.047
300.049
300.051
300.052
300.054
300.054
300.055
300.055
300.056
300.056
300.055
300.055
300.055
300.054
300.053
300.052
300.051
300.05
300.049
300.048
300.047
300.046
300.044
300.043
300.042
300.04
300.039
300.037
300.036
300.035
300.033
300.032
300.03
300.029
300.028
300.026
300.025
300.024
300.023
300.021
300.02
300.019
300.018
300.017
300.016
300.015
300.014
300.013
300.012
300.011
300.01
300.009
300.008
300.007
300.006
300.005
300.005
300.004
300.003
300.002
300.001
300
299.26
299.266
299.278
299.294
299.314
299.338
299.365
299.394
299.425
299.457
299.49
299.525
299.559
299.594
299.629
299.663
299.697
299.73
299.762
299.794
299.824
299.853
299.881
299.907
299.932
299.956
299.978
299.999
300.018
300.036
300.053
300.069
300.083
300.095
300.107
300.117
300.126
300.135
300.142
300.148
300.153
300.157
300.161
300.163
300.165
300.166
300.167
300.167
300.166
300.165
300.164
300.162
300.16
300.157
300.154
300.151
300.148
300.144
300.141
300.137
300.133
300.129
300.125
300.121
300.116
300.112
300.108
300.104
300.1
300.095
300.091
300.087
300.083
300.079
300.075
300.072
300.068
300.064
300.061
300.057
300.054
300.051
300.047
300.044
300.041
300.038
300.035
300.032
300.029
300.027
300.024
300.021
300.019
300.016
300.014
300.011
300.009
300.006
300.004
300.001
298.767
298.778
298.797
298.824
298.857
298.897
298.941
298.99
299.041
299.095
299.151
299.208
299.266
299.324
299.381
299.439
299.495
299.55
299.604
299.656
299.706
299.755
299.801
299.845
299.887
299.926
299.963
299.998
300.031
300.061
300.089
300.114
300.138
300.159
300.178
300.195
300.211
300.224
300.236
300.246
300.255
300.262
300.268
300.272
300.275
300.277
300.278
300.278
300.277
300.276
300.273
300.27
300.266
300.262
300.257
300.252
300.247
300.241
300.235
300.228
300.222
300.215
300.208
300.201
300.194
300.187
300.18
300.173
300.166
300.159
300.152
300.145
300.139
300.132
300.126
300.119
300.113
300.107
300.101
300.095
300.09
300.084
300.079
300.074
300.068
300.063
300.058
300.054
300.049
300.044
300.04
300.035
300.031
300.027
300.023
300.018
300.014
300.01
300.006
300.002
298.275
298.289
298.316
298.354
298.401
298.456
298.518
298.586
298.658
298.733
298.811
298.891
298.972
299.053
299.134
299.214
299.293
299.371
299.446
299.519
299.589
299.657
299.721
299.783
299.842
299.897
299.949
299.997
300.043
300.085
300.124
300.16
300.193
300.222
300.249
300.274
300.295
300.314
300.33
300.345
300.357
300.367
300.375
300.381
300.385
300.388
300.389
300.389
300.388
300.386
300.382
300.378
300.373
300.367
300.36
300.353
300.345
300.337
300.328
300.319
300.31
300.301
300.291
300.281
300.272
300.262
300.252
300.242
300.232
300.223
300.213
300.204
300.194
300.185
300.176
300.167
300.159
300.15
300.142
300.134
300.126
300.118
300.11
300.103
300.096
300.089
300.082
300.075
300.069
300.062
300.056
300.05
300.044
300.038
300.032
300.026
300.02
300.014
300.009
300.003
297.783
297.801
297.835
297.884
297.945
298.016
298.095
298.182
298.275
298.372
298.472
298.575
298.679
298.783
298.887
298.99
299.092
299.191
299.288
299.381
299.472
299.559
299.642
299.721
299.796
299.867
299.934
299.997
300.055
300.109
300.159
300.205
300.248
300.286
300.321
300.352
300.379
300.404
300.425
300.443
300.458
300.471
300.481
300.489
300.495
300.499
300.5
300.501
300.499
300.496
300.491
300.486
300.479
300.471
300.463
300.454
300.444
300.433
300.422
300.41
300.399
300.386
300.374
300.362
300.349
300.336
300.324
300.311
300.299
300.286
300.274
300.262
300.25
300.238
300.226
300.215
300.204
300.193
300.182
300.172
300.162
300.152
300.142
300.132
300.123
300.114
300.105
300.097
300.088
300.08
300.072
300.064
300.056
300.048
300.041
300.033
300.026
300.018
300.011
300.004
297.291
297.313
297.356
297.415
297.489
297.576
297.673
297.779
297.892
298.011
298.134
298.259
298.386
298.513
298.641
298.766
298.89
299.012
299.13
299.244
299.355
299.461
299.563
299.659
299.751
299.838
299.919
299.996
300.067
300.133
300.195
300.251
300.302
300.349
300.392
300.43
300.463
300.493
300.519
300.541
300.56
300.576
300.588
300.598
300.605
300.609
300.611
300.611
300.61
300.606
300.6
300.594
300.585
300.576
300.566
300.554
300.542
300.529
300.515
300.501
300.487
300.472
300.457
300.442
300.426
300.411
300.396
300.38
300.365
300.35
300.335
300.32
300.305
300.291
300.276
300.263
300.249
300.236
300.223
300.21
300.197
300.185
300.173
300.162
300.15
300.139
300.129
300.118
300.108
300.098
300.088
300.078
300.068
300.059
300.05
300.04
300.031
300.022
300.013
300.004
296.8
296.827
296.876
296.946
297.034
297.136
297.251
297.377
297.51
297.65
297.795
297.943
298.093
298.244
298.394
298.543
298.689
298.833
298.972
299.107
299.238
299.363
299.483
299.598
299.706
299.808
299.905
299.995
300.079
300.158
300.23
300.296
300.357
300.413
300.463
300.507
300.547
300.582
300.613
300.639
300.662
300.68
300.695
300.706
300.714
300.72
300.722
300.722
300.72
300.716
300.709
300.701
300.692
300.68
300.668
300.655
300.64
300.625
300.609
300.592
300.575
300.558
300.54
300.522
300.504
300.485
300.467
300.449
300.431
300.413
300.395
300.378
300.36
300.343
300.327
300.31
300.294
300.278
300.263
300.248
300.233
300.219
300.205
300.191
300.178
300.165
300.152
300.139
300.127
300.115
300.104
300.092
300.081
300.07
300.059
300.048
300.037
300.026
300.016
300.005
296.31
296.34
296.398
296.479
296.58
296.698
296.83
296.975
297.129
297.29
297.458
297.628
297.801
297.975
298.148
298.32
298.488
298.654
298.815
298.971
299.121
299.266
299.404
299.536
299.661
299.779
299.89
299.994
300.092
300.182
300.265
300.342
300.412
300.476
300.533
300.585
300.631
300.672
300.707
300.737
300.763
300.784
300.801
300.814
300.824
300.83
300.833
300.833
300.83
300.825
300.818
300.809
300.797
300.785
300.77
300.755
300.738
300.721
300.702
300.683
300.663
300.643
300.623
300.602
300.581
300.56
300.539
300.518
300.497
300.476
300.456
300.435
300.415
300.396
300.377
300.358
300.339
300.321
300.303
300.286
300.269
300.252
300.236
300.22
300.205
300.19
300.175
300.161
300.147
300.133
300.119
300.106
300.093
300.08
300.068
300.055
300.043
300.03
300.018
300.006
295.821
295.855
295.92
296.012
296.126
296.26
296.41
296.574
296.748
296.931
297.12
297.314
297.51
297.707
297.903
298.097
298.288
298.475
298.657
298.834
299.005
299.168
299.325
299.474
299.616
299.75
299.876
299.994
300.104
300.206
300.3
300.387
300.467
300.539
300.604
300.663
300.715
300.761
300.801
300.835
300.864
300.888
300.907
300.922
300.933
300.94
300.943
300.943
300.94
300.935
300.926
300.916
300.903
300.889
300.873
300.855
300.836
300.816
300.795
300.774
300.751
300.728
300.705
300.682
300.658
300.634
300.61
300.586
300.563
300.539
300.516
300.493
300.471
300.448
300.426
300.405
300.384
300.363
300.343
300.324
300.304
300.286
300.267
300.25
300.232
300.215
300.198
300.182
300.166
300.151
300.135
300.12
300.105
300.091
300.077
300.062
300.048
300.035
300.021
300.007
295.332
295.371
295.444
295.546
295.673
295.823
295.991
296.173
296.368
296.573
296.784
297
297.219
297.439
297.658
297.875
298.088
298.297
298.501
298.698
298.888
299.071
299.246
299.413
299.571
299.721
299.861
299.993
300.116
300.23
300.335
300.432
300.521
300.602
300.675
300.74
300.798
300.849
300.894
300.933
300.965
300.992
301.013
301.03
301.042
301.05
301.054
301.054
301.05
301.044
301.035
301.023
301.009
300.993
300.974
300.955
300.934
300.911
300.888
300.864
300.839
300.813
300.787
300.761
300.735
300.708
300.681
300.655
300.629
300.602
300.576
300.551
300.526
300.501
300.476
300.452
300.429
300.406
300.383
300.361
300.34
300.319
300.299
300.279
300.259
300.24
300.222
300.203
300.186
300.168
300.151
300.134
300.118
300.102
300.086
300.07
300.054
300.039
300.023
300.008
294.845
294.888
294.968
295.081
295.222
295.387
295.572
295.774
295.989
296.215
296.449
296.687
296.929
297.171
297.413
297.653
297.889
298.119
298.344
298.562
298.772
298.974
299.168
299.352
299.526
299.691
299.847
299.992
300.128
300.254
300.37
300.478
300.576
300.665
300.745
300.817
300.882
300.938
300.987
301.03
301.066
301.095
301.119
301.138
301.151
301.159
301.163
301.164
301.16
301.153
301.143
301.13
301.114
301.096
301.076
301.054
301.031
301.007
300.981
300.954
300.927
300.898
300.87
300.841
300.811
300.782
300.753
300.723
300.694
300.665
300.637
300.608
300.58
300.553
300.526
300.5
300.474
300.448
300.423
300.399
300.376
300.352
300.33
300.308
300.286
300.265
300.245
300.225
300.205
300.186
300.167
300.148
300.13
300.112
300.094
300.077
300.06
300.043
300.026
300.008
294.36
294.406
294.494
294.617
294.772
294.952
295.155
295.376
295.611
295.858
296.114
296.375
296.639
296.905
297.169
297.432
297.69
297.942
298.188
298.427
298.657
298.878
299.089
299.291
299.482
299.662
299.832
299.992
300.14
300.278
300.405
300.523
300.63
300.727
300.815
300.894
300.965
301.027
301.081
301.127
301.166
301.199
301.225
301.245
301.259
301.269
301.273
301.273
301.269
301.261
301.25
301.236
301.219
301.199
301.178
301.154
301.128
301.101
301.073
301.044
301.014
300.983
300.952
300.92
300.888
300.856
300.824
300.791
300.76
300.728
300.697
300.666
300.635
300.605
300.576
300.547
300.518
300.491
300.463
300.437
300.411
300.386
300.361
300.337
300.313
300.29
300.268
300.246
300.224
300.203
300.183
300.162
300.142
300.123
300.103
300.084
300.065
300.047
300.028
300.009
293.875
293.926
294.021
294.155
294.323
294.519
294.739
294.979
295.235
295.503
295.78
296.064
296.351
296.639
296.926
297.211
297.491
297.765
298.033
298.291
298.541
298.781
299.011
299.23
299.437
299.633
299.818
299.991
300.152
300.302
300.44
300.567
300.684
300.79
300.885
300.971
301.047
301.115
301.173
301.224
301.266
301.301
301.33
301.352
301.367
301.378
301.382
301.383
301.378
301.37
301.358
301.342
301.324
301.302
301.279
301.253
301.225
301.196
301.165
301.134
301.101
301.067
301.033
300.999
300.964
300.929
300.894
300.859
300.825
300.79
300.756
300.723
300.69
300.657
300.625
300.594
300.563
300.533
300.503
300.474
300.446
300.419
300.392
300.366
300.34
300.315
300.291
300.267
300.243
300.221
300.198
300.176
300.155
300.133
300.112
300.092
300.071
300.051
300.03
300.01
293.392
293.447
293.55
293.694
293.875
294.087
294.324
294.583
294.859
295.148
295.447
295.753
296.063
296.374
296.684
296.991
297.293
297.589
297.877
298.157
298.426
298.685
298.933
299.169
299.393
299.605
299.804
299.99
300.164
300.326
300.475
300.612
300.738
300.852
300.955
301.048
301.13
301.203
301.266
301.32
301.366
301.404
301.435
301.458
301.475
301.486
301.491
301.492
301.487
301.478
301.465
301.448
301.428
301.405
301.38
301.352
301.322
301.29
301.257
301.223
301.188
301.152
301.115
301.078
301.04
301.002
300.965
300.927
300.89
300.853
300.816
300.78
300.744
300.709
300.674
300.64
300.607
300.575
300.543
300.512
300.481
300.452
300.423
300.394
300.367
300.34
300.314
300.288
300.263
300.238
300.214
300.19
300.167
300.144
300.121
300.099
300.077
300.055
300.033
300.011
292.911
292.97
293.08
293.235
293.429
293.656
293.911
294.188
294.484
294.795
295.116
295.444
295.776
296.11
296.443
296.772
297.096
297.414
297.723
298.023
298.312
298.59
298.855
299.109
299.349
299.576
299.789
299.989
300.176
300.349
300.509
300.657
300.792
300.914
301.025
301.124
301.212
301.29
301.358
301.416
301.466
301.506
301.539
301.564
301.583
301.594
301.6
301.6
301.595
301.585
301.571
301.553
301.532
301.507
301.48
301.45
301.418
301.384
301.349
301.312
301.274
301.235
301.196
301.156
301.116
301.075
301.035
300.995
300.955
300.915
300.875
300.837
300.798
300.76
300.723
300.687
300.651
300.617
300.582
300.549
300.516
300.485
300.454
300.423
300.394
300.365
300.336
300.309
300.282
300.255
300.229
300.204
300.179
300.154
300.13
300.106
300.082
300.059
300.035
300.012
292.432
292.494
292.612
292.777
292.984
293.227
293.499
293.795
294.111
294.443
294.785
295.136
295.491
295.847
296.202
296.554
296.9
297.239
297.569
297.889
298.198
298.494
298.778
299.048
299.305
299.547
299.775
299.989
300.188
300.373
300.544
300.701
300.845
300.976
301.094
301.2
301.294
301.377
301.45
301.512
301.565
301.608
301.643
301.67
301.69
301.702
301.708
301.708
301.703
301.693
301.678
301.658
301.636
301.609
301.58
301.548
301.514
301.478
301.44
301.401
301.36
301.319
301.277
301.234
301.191
301.148
301.105
301.062
301.019
300.977
300.935
300.893
300.852
300.812
300.772
300.734
300.695
300.658
300.622
300.586
300.551
300.517
300.484
300.452
300.42
300.389
300.359
300.33
300.301
300.273
300.245
300.218
300.191
300.165
300.139
300.113
300.088
300.062
300.037
300.012
291.954
292.02
292.145
292.322
292.542
292.799
293.088
293.404
293.74
294.092
294.456
294.829
295.206
295.585
295.962
296.336
296.704
297.064
297.415
297.756
298.084
298.399
298.701
298.988
299.261
299.518
299.761
299.988
300.2
300.396
300.578
300.745
300.898
301.038
301.163
301.276
301.376
301.464
301.541
301.608
301.663
301.71
301.747
301.776
301.796
301.81
301.816
301.816
301.81
301.799
301.783
301.763
301.739
301.711
301.68
301.646
301.61
301.571
301.531
301.489
301.446
301.402
301.358
301.312
301.267
301.221
301.175
301.129
301.083
301.038
300.994
300.949
300.906
300.863
300.821
300.78
300.739
300.7
300.661
300.623
300.586
300.55
300.515
300.48
300.447
300.414
300.382
300.351
300.32
300.29
300.26
300.231
300.203
300.175
300.147
300.12
300.093
300.066
300.04
300.013
291.478
291.549
291.681
291.868
292.101
292.374
292.68
293.014
293.37
293.743
294.129
294.523
294.923
295.324
295.724
296.119
296.509
296.891
297.263
297.623
297.971
298.304
298.624
298.928
299.217
299.49
299.747
299.987
300.212
300.42
300.612
300.79
300.952
301.099
301.232
301.351
301.457
301.551
301.632
301.703
301.762
301.811
301.85
301.881
301.903
301.917
301.923
301.924
301.918
301.906
301.889
301.867
301.842
301.812
301.779
301.743
301.705
301.664
301.622
301.577
301.532
301.485
301.438
301.39
301.341
301.293
301.244
301.196
301.148
301.1
301.052
301.006
300.96
300.914
300.87
300.826
300.783
300.741
300.7
300.66
300.621
300.583
300.545
300.509
300.473
300.438
300.404
300.371
300.339
300.307
300.276
300.245
300.215
300.185
300.156
300.127
300.099
300.07
300.042
300.014
291.005
291.079
291.219
291.416
291.662
291.95
292.273
292.625
293.001
293.395
293.802
294.219
294.64
295.064
295.486
295.904
296.315
296.718
297.11
297.491
297.858
298.21
298.548
298.869
299.174
299.462
299.733
299.986
300.223
300.443
300.647
300.833
301.004
301.16
301.3
301.426
301.538
301.637
301.723
301.797
301.86
301.911
301.953
301.985
302.008
302.023
302.03
302.03
302.024
302.012
301.994
301.971
301.944
301.913
301.878
301.84
301.8
301.757
301.712
301.665
301.617
301.568
301.518
301.467
301.416
301.365
301.313
301.262
301.211
301.161
301.111
301.061
301.013
300.965
300.918
300.872
300.827
300.782
300.739
300.697
300.655
300.615
300.576
300.537
300.499
300.463
300.427
300.392
300.358
300.324
300.291
300.259
300.227
300.196
300.165
300.134
300.104
300.074
300.045
300.015
290.533
290.612
290.759
290.966
291.225
291.528
291.868
292.239
292.634
293.049
293.477
293.916
294.36
294.805
295.249
295.689
296.122
296.546
296.959
297.359
297.745
298.116
298.471
298.81
299.13
299.433
299.719
299.986
300.235
300.466
300.68
300.877
301.057
301.221
301.368
301.501
301.619
301.723
301.813
301.891
301.957
302.012
302.055
302.089
302.113
302.129
302.137
302.137
302.13
302.117
302.098
302.074
302.046
302.013
301.976
301.937
301.894
301.849
301.801
301.752
301.702
301.65
301.597
301.544
301.49
301.436
301.382
301.328
301.275
301.222
301.169
301.117
301.066
301.016
300.966
300.917
300.87
300.823
300.778
300.733
300.69
300.647
300.606
300.565
300.526
300.487
300.449
300.412
300.376
300.341
300.306
300.272
300.239
300.206
300.174
300.141
300.11
300.078
300.047
300.016
290.064
290.146
290.301
290.518
290.79
291.108
291.465
291.854
292.269
292.704
293.154
293.614
294.08
294.548
295.014
295.476
295.93
296.375
296.808
297.228
297.634
298.023
298.396
298.751
299.087
299.405
299.705
299.985
300.247
300.49
300.714
300.921
301.109
301.281
301.436
301.575
301.699
301.808
301.903
301.985
302.054
302.111
302.157
302.193
302.218
302.235
302.243
302.243
302.236
302.222
302.202
302.177
302.147
302.113
302.074
302.033
301.988
301.94
301.891
301.839
301.786
301.732
301.676
301.62
301.564
301.507
301.451
301.394
301.338
301.282
301.227
301.172
301.119
301.066
301.014
300.963
300.913
300.864
300.816
300.77
300.724
300.679
300.636
300.593
300.552
300.511
300.472
300.433
300.395
300.358
300.322
300.286
300.251
300.216
300.182
300.148
300.115
300.082
300.049
300.016
289.598
289.684
289.845
290.073
290.358
290.691
291.065
291.472
291.906
292.362
292.833
293.314
293.802
294.292
294.78
295.263
295.739
296.205
296.659
297.098
297.523
297.93
298.32
298.692
299.044
299.377
299.691
299.984
300.258
300.513
300.748
300.964
301.162
301.341
301.504
301.649
301.779
301.893
301.993
302.078
302.151
302.21
302.258
302.296
302.322
302.34
302.348
302.348
302.341
302.326
302.306
302.279
302.248
302.212
302.172
302.128
302.081
302.031
301.979
301.925
301.87
301.813
301.755
301.696
301.637
301.578
301.519
301.46
301.401
301.342
301.285
301.228
301.171
301.116
301.062
301.008
300.956
300.905
300.855
300.806
300.758
300.711
300.666
300.621
300.578
300.535
300.494
300.453
300.414
300.375
300.337
300.299
300.263
300.226
300.191
300.155
300.121
300.086
300.051
300.017
289.134
289.224
289.393
289.63
289.928
290.275
290.666
291.092
291.545
292.021
292.513
293.016
293.526
294.037
294.547
295.052
295.549
296.036
296.509
296.969
297.412
297.838
298.245
298.634
299.002
299.35
299.677
299.984
300.27
300.535
300.781
301.007
301.213
301.401
301.571
301.723
301.858
301.978
302.082
302.171
302.246
302.309
302.359
302.398
302.426
302.444
302.453
302.453
302.445
302.43
302.409
302.381
302.348
302.311
302.269
302.223
302.174
302.122
302.068
302.011
301.953
301.894
301.833
301.772
301.71
301.648
301.587
301.525
301.463
301.402
301.342
301.282
301.224
301.166
301.109
301.053
300.999
300.945
300.893
300.842
300.792
300.743
300.695
300.649
300.603
300.559
300.516
300.473
300.432
300.391
300.352
300.313
300.274
300.236
300.199
300.162
300.126
300.09
300.054
300.018
288.672
288.766
288.942
289.19
289.5
289.863
290.27
290.713
291.186
291.682
292.195
292.72
293.251
293.784
294.316
294.842
295.36
295.867
296.361
296.84
297.302
297.746
298.171
298.576
298.959
299.322
299.663
299.983
300.281
300.558
300.814
301.05
301.265
301.461
301.637
301.796
301.937
302.062
302.17
302.263
302.342
302.407
302.459
302.5
302.529
302.548
302.557
302.557
302.549
302.533
302.511
302.482
302.448
302.409
302.365
302.317
302.266
302.212
302.155
302.097
302.036
301.974
301.911
301.847
301.783
301.718
301.654
301.589
301.525
301.462
301.399
301.337
301.275
301.215
301.156
301.098
301.041
300.985
300.931
300.877
300.825
300.774
300.725
300.676
300.629
300.583
300.538
300.493
300.45
300.408
300.367
300.326
300.286
300.246
300.208
300.169
300.131
300.094
300.056
300.019
288.214
288.311
288.495
288.753
289.075
289.452
289.876
290.337
290.83
291.346
291.879
292.425
292.978
293.532
294.085
294.633
295.172
295.7
296.214
296.712
297.193
297.655
298.097
298.518
298.917
299.295
299.65
299.982
300.293
300.581
300.847
301.092
301.316
301.52
301.704
301.869
302.016
302.145
302.258
302.355
302.437
302.504
302.559
302.601
302.631
302.651
302.66
302.66
302.652
302.636
302.612
302.583
302.547
302.506
302.461
302.411
302.358
302.302
302.243
302.182
302.119
302.054
301.989
301.922
301.855
301.788
301.721
301.654
301.587
301.521
301.455
301.391
301.327
301.264
301.203
301.142
301.083
301.025
300.968
300.913
300.859
300.806
300.754
300.704
300.654
300.606
300.559
300.513
300.469
300.425
300.381
300.339
300.297
300.256
300.216
300.176
300.137
300.097
300.058
300.019
287.758
287.86
288.05
288.318
288.653
289.045
289.484
289.964
290.475
291.011
291.566
292.132
292.706
293.282
293.857
294.426
294.986
295.534
296.068
296.585
297.085
297.564
298.023
298.461
298.875
299.267
299.636
299.982
300.304
300.603
300.88
301.134
301.367
301.578
301.77
301.941
302.094
302.228
302.345
302.446
302.531
302.601
302.658
302.701
302.733
302.753
302.763
302.763
302.755
302.738
302.713
302.682
302.645
302.603
302.556
302.504
302.449
302.391
302.329
302.266
302.2
302.133
302.065
301.996
301.927
301.857
301.787
301.718
301.648
301.58
301.512
301.445
301.378
301.313
301.249
301.186
301.125
301.065
301.006
300.948
300.892
300.837
300.783
300.731
300.68
300.63
300.581
300.533
300.487
300.441
300.396
300.352
300.309
300.266
300.224
300.183
300.142
300.101
300.061
300.02
287.306
287.411
287.608
287.886
288.233
288.639
289.096
289.593
290.123
290.679
291.254
291.841
292.436
293.034
293.63
294.22
294.8
295.369
295.922
296.459
296.977
297.474
297.95
298.404
298.834
299.24
299.623
299.981
300.315
300.625
300.912
301.176
301.417
301.637
301.835
302.013
302.171
302.31
302.432
302.536
302.624
302.697
302.756
302.801
302.834
302.855
302.865
302.865
302.856
302.839
302.814
302.782
302.743
302.699
302.65
302.597
302.54
302.479
302.415
302.35
302.282
302.212
302.142
302.07
301.998
301.926
301.853
301.781
301.709
301.638
301.568
301.498
301.429
301.362
301.295
301.23
301.166
301.104
301.043
300.983
300.925
300.868
300.812
300.758
300.705
300.653
300.602
300.553
300.505
300.457
300.411
300.365
300.32
300.276
300.233
300.19
300.147
300.105
300.063
300.021
286.856
286.965
287.169
287.457
287.816
288.237
288.71
289.224
289.773
290.349
290.944
291.553
292.169
292.787
293.404
294.015
294.616
295.205
295.778
296.334
296.87
297.385
297.878
298.347
298.793
299.213
299.609
299.98
300.326
300.648
300.945
301.218
301.468
301.695
301.9
302.084
302.248
302.392
302.518
302.626
302.717
302.793
302.854
302.901
302.934
302.956
302.967
302.967
302.958
302.939
302.913
302.88
302.84
302.795
302.744
302.689
302.63
302.567
302.501
302.433
302.363
302.291
302.218
302.144
302.069
301.994
301.919
301.844
301.77
301.696
301.623
301.551
301.48
301.41
301.341
301.274
301.208
301.143
301.08
301.018
300.958
300.899
300.841
300.785
300.73
300.676
300.624
300.573
300.522
300.473
300.425
300.378
300.332
300.286
300.241
300.196
300.152
300.109
300.065
300.022
286.41
286.522
286.734
287.031
287.403
287.838
288.326
288.859
289.426
290.021
290.637
291.266
291.903
292.543
293.18
293.812
294.433
295.042
295.635
296.209
296.764
297.296
297.806
298.291
298.752
299.187
299.596
299.98
300.337
300.67
300.977
301.259
301.517
301.752
301.965
302.155
302.324
302.473
302.603
302.715
302.81
302.888
302.951
302.999
303.034
303.057
303.067
303.068
303.058
303.039
303.012
302.978
302.937
302.89
302.837
302.78
302.719
302.654
302.586
302.515
302.443
302.368
302.293
302.216
302.139
302.062
301.984
301.907
301.83
301.754
301.678
301.604
301.53
301.458
301.387
301.317
301.249
301.182
301.116
301.053
300.99
300.929
300.869
300.811
300.755
300.699
300.645
300.592
300.54
300.49
300.44
300.391
300.343
300.296
300.249
300.203
300.157
300.112
300.067
300.022
285.967
286.083
286.301
286.608
286.992
287.442
287.946
288.496
289.082
289.696
290.331
290.981
291.639
292.299
292.958
293.61
294.252
294.88
295.492
296.086
296.658
297.208
297.734
298.235
298.711
299.16
299.583
299.979
300.348
300.691
301.009
301.3
301.567
301.809
302.029
302.225
302.4
302.554
302.688
302.804
302.901
302.982
303.047
303.097
303.133
303.156
303.167
303.168
303.158
303.138
303.11
303.075
303.033
302.984
302.93
302.871
302.807
302.74
302.67
302.597
302.522
302.446
302.368
302.289
302.209
302.129
302.049
301.969
301.89
301.811
301.733
301.656
301.58
301.505
301.432
301.36
301.289
301.22
301.153
301.087
301.022
300.959
300.898
300.838
300.779
300.722
300.666
300.611
300.558
300.505
300.454
300.404
300.354
300.305
300.257
300.21
300.163
300.116
300.069
300.023
285.528
285.648
285.872
286.189
286.585
287.048
287.568
288.135
288.74
289.373
290.029
290.699
291.377
292.058
292.737
293.41
294.072
294.72
295.351
295.963
296.553
297.121
297.663
298.18
298.67
299.134
299.57
299.978
300.359
300.713
301.04
301.341
301.616
301.866
302.092
302.295
302.475
302.634
302.772
302.891
302.992
303.075
303.142
303.194
303.231
303.255
303.267
303.267
303.256
303.237
303.208
303.171
303.128
303.077
303.021
302.961
302.895
302.826
302.754
302.679
302.601
302.522
302.442
302.36
302.278
302.196
302.113
302.031
301.949
301.868
301.787
301.708
301.63
301.553
301.477
301.403
301.33
301.259
301.189
301.121
301.054
300.989
300.926
300.864
300.804
300.745
300.687
300.63
300.575
300.521
300.468
300.416
300.365
300.315
300.265
300.216
300.168
300.12
300.072
300.024
285.092
285.215
285.447
285.773
286.181
286.658
287.194
287.778
288.401
289.053
289.728
290.419
291.117
291.819
292.519
293.211
293.893
294.561
295.211
295.841
296.45
297.034
297.593
298.125
298.63
299.108
299.557
299.978
300.37
300.735
301.071
301.381
301.665
301.922
302.155
302.364
302.55
302.713
302.856
302.978
303.082
303.168
303.237
303.29
303.328
303.353
303.365
303.365
303.354
303.334
303.304
303.267
303.222
303.17
303.112
303.05
302.982
302.911
302.837
302.759
302.68
302.598
302.515
302.431
302.347
302.262
302.177
302.092
302.007
301.924
301.841
301.759
301.679
301.599
301.521
301.445
301.37
301.297
301.225
301.155
301.086
301.019
300.954
300.89
300.828
300.767
300.708
300.649
300.593
300.537
300.482
300.429
300.376
300.324
300.273
300.223
300.173
300.123
300.074
300.025
284.66
284.787
285.025
285.361
285.78
286.272
286.823
287.424
288.064
288.736
289.431
290.141
290.86
291.582
292.302
293.015
293.716
294.403
295.072
295.721
296.347
296.948
297.523
298.071
298.591
299.082
299.544
299.977
300.381
300.756
301.103
301.421
301.713
301.978
302.218
302.432
302.623
302.792
302.939
303.065
303.171
303.26
303.331
303.385
303.425
303.45
303.462
303.463
303.452
303.431
303.4
303.361
303.315
303.262
303.203
303.138
303.069
302.996
302.919
302.839
302.757
302.674
302.588
302.502
302.415
302.327
302.24
302.152
302.066
301.98
301.894
301.81
301.727
301.646
301.565
301.487
301.41
301.334
301.26
301.188
301.118
301.049
300.981
300.916
300.852
300.789
300.728
300.668
300.61
300.553
300.496
300.441
300.387
300.334
300.281
300.229
300.178
300.127
300.076
300.025
284.232
284.362
284.607
284.952
285.383
285.888
286.455
287.073
287.731
288.422
289.136
289.866
290.605
291.347
292.087
292.82
293.541
294.247
294.935
295.601
296.245
296.863
297.454
298.017
298.551
299.056
299.531
299.976
300.391
300.777
301.133
301.461
301.761
302.033
302.279
302.5
302.697
302.87
303.021
303.15
303.26
303.351
303.424
303.48
303.52
303.546
303.559
303.559
303.548
303.526
303.495
303.455
303.408
303.353
303.292
303.226
303.155
303.079
303
302.919
302.834
302.748
302.66
302.572
302.482
302.392
302.302
302.213
302.123
302.035
301.947
301.861
301.775
301.692
301.609
301.528
301.449
301.371
301.295
301.221
301.149
301.078
301.009
300.941
300.876
300.811
300.748
300.687
300.627
300.568
300.51
300.454
300.398
300.343
300.289
300.236
300.183
300.13
300.078
300.026
283.807
283.941
284.193
284.547
284.99
285.508
286.09
286.725
287.401
288.11
288.843
289.593
290.352
291.114
291.874
292.626
293.367
294.092
294.798
295.483
296.144
296.778
297.385
297.964
298.512
299.031
299.519
299.976
300.402
300.798
301.164
301.5
301.808
302.088
302.341
302.568
302.769
302.947
303.102
303.235
303.348
303.441
303.516
303.573
303.615
303.642
303.655
303.655
303.644
303.621
303.589
303.548
303.499
303.443
303.381
303.313
303.24
303.162
303.081
302.997
302.911
302.822
302.732
302.641
302.549
302.457
302.364
302.272
302.18
302.09
302
301.911
301.823
301.737
301.652
301.569
301.488
301.408
301.33
301.254
301.18
301.107
301.036
300.967
300.899
300.833
300.769
300.705
300.644
300.583
300.524
300.466
300.409
300.352
300.297
300.242
300.188
300.134
300.08
300.027
283.387
283.524
283.782
284.146
284.6
285.132
285.729
286.38
287.074
287.801
288.553
289.323
290.101
290.883
291.663
292.435
293.195
293.939
294.663
295.366
296.043
296.695
297.317
297.911
298.474
299.006
299.506
299.975
300.412
300.819
301.194
301.539
301.855
302.142
302.402
302.634
302.841
303.024
303.183
303.319
303.435
303.53
303.607
303.666
303.709
303.737
303.75
303.75
303.738
303.715
303.682
303.64
303.59
303.533
303.469
303.399
303.324
303.244
303.161
303.075
302.986
302.895
302.803
302.709
302.615
302.52
302.426
302.331
302.237
302.144
302.052
301.96
301.871
301.782
301.695
301.61
301.527
301.445
301.365
301.287
301.21
301.136
301.063
300.992
300.922
300.855
300.788
300.724
300.66
300.598
300.538
300.478
300.419
300.362
300.305
300.248
300.193
300.137
300.082
300.027
282.97
283.111
283.376
283.748
284.214
284.759
285.372
286.039
286.75
287.495
288.267
289.055
289.853
290.655
291.454
292.245
293.024
293.787
294.53
295.25
295.944
296.612
297.25
297.858
298.436
298.981
299.494
299.974
300.423
300.839
301.224
301.578
301.902
302.196
302.462
302.7
302.912
303.099
303.262
303.402
303.521
303.619
303.697
303.758
303.802
303.83
303.844
303.844
303.832
303.808
303.775
303.732
303.68
303.621
303.555
303.484
303.407
303.326
303.24
303.152
303.061
302.968
302.873
302.777
302.681
302.584
302.486
302.39
302.293
302.198
302.103
302.01
301.917
301.827
301.738
301.65
301.565
301.481
301.399
301.319
301.241
301.164
301.09
301.017
300.946
300.876
300.808
300.742
300.677
300.613
300.551
300.49