/*--------------------------------*- C++ -*----------------------------------*\
| =========                 |                                                 |
| \\      /  F ield         | OpenFOAM: The Open Source CFD Toolbox           |
|  \\    /   O peration     | Version:  2406                                  |
|   \\  /    A nd           | Website:  www.openfoam.com                      |
|    \\/     M anipulation  |                                                 |
\*---------------------------------------------------------------------------*/
FoamFile
{
    version     2.0;
    format      ascii;
    arch        "LSB;label=32;scalar=64";
    class       volScalarField;
    location    "165";
    object      T;
}
// * * * * * * * * * * * * * * * * * * * * * * * * * * * * * * * * * * * * * //

dimensions      [0 0 0 1 0 0 0];

internalField   nonuniform List<scalar> 
20000
(
299.368
299.402
299.436
299.469
299.5
299.531
299.561
299.591
299.619
299.646
299.673
299.698
299.723
299.747
299.77
299.792
299.813
299.833
299.853
299.871
299.889
299.906
299.922
299.937
299.952
299.965
299.978
299.991
300.002
300.013
300.024
300.033
300.042
300.051
300.058
300.066
300.072
300.079
300.084
300.09
300.094
300.099
300.102
300.106
300.109
300.111
300.114
300.116
300.117
300.118
300.119
300.12
300.121
300.121
300.121
300.12
300.12
300.119
300.118
300.117
300.116
300.114
300.113
300.111
300.109
300.107
300.105
300.102
300.1
300.098
300.095
300.092
300.09
300.087
300.084
300.081
300.078
300.075
300.072
300.069
300.066
300.063
300.059
300.056
300.053
300.049
300.046
300.043
300.039
300.036
300.033
300.029
300.026
300.022
300.019
300.016
300.012
300.009
300.005
300.002
298.105
298.208
298.308
298.406
298.501
298.594
298.684
298.772
298.857
298.939
299.018
299.095
299.169
299.241
299.309
299.375
299.439
299.499
299.558
299.613
299.667
299.717
299.765
299.811
299.855
299.896
299.935
299.972
300.007
300.04
300.071
300.1
300.127
300.152
300.175
300.197
300.217
300.236
300.253
300.269
300.283
300.295
300.307
300.317
300.326
300.334
300.341
300.347
300.352
300.355
300.358
300.36
300.362
300.362
300.362
300.361
300.359
300.357
300.354
300.351
300.347
300.342
300.337
300.332
300.326
300.32
300.314
300.307
300.3
300.293
300.285
300.277
300.269
300.26
300.252
300.243
300.234
300.225
300.216
300.207
300.197
300.188
300.178
300.168
300.158
300.148
300.138
300.128
300.118
300.108
300.098
300.088
300.077
300.067
300.057
300.047
300.036
300.026
300.016
300.005
296.842
297.013
297.18
297.343
297.502
297.657
297.807
297.953
298.095
298.232
298.364
298.492
298.616
298.735
298.849
298.959
299.065
299.166
299.263
299.356
299.444
299.529
299.609
299.686
299.758
299.827
299.892
299.954
300.012
300.067
300.118
300.166
300.211
300.253
300.292
300.329
300.362
300.393
300.422
300.447
300.471
300.492
300.512
300.529
300.544
300.557
300.568
300.578
300.586
300.592
300.597
300.601
300.603
300.603
300.603
300.601
300.599
300.595
300.59
300.584
300.578
300.571
300.562
300.554
300.544
300.534
300.523
300.512
300.5
300.488
300.475
300.462
300.448
300.434
300.42
300.405
300.39
300.375
300.36
300.344
300.329
300.313
300.296
300.28
300.264
300.247
300.231
300.214
300.197
300.18
300.163
300.146
300.129
300.112
300.095
300.078
300.06
300.043
300.026
300.009
295.58
295.819
296.053
296.282
296.504
296.721
296.931
297.135
297.333
297.525
297.71
297.89
298.062
298.229
298.389
298.543
298.691
298.833
298.968
299.098
299.222
299.34
299.453
299.56
299.662
299.758
299.849
299.936
300.017
300.093
300.165
300.233
300.296
300.355
300.409
300.46
300.507
300.55
300.59
300.626
300.659
300.689
300.716
300.74
300.761
300.779
300.795
300.809
300.82
300.829
300.836
300.841
300.843
300.845
300.844
300.842
300.838
300.833
300.826
300.818
300.809
300.799
300.787
300.775
300.761
300.747
300.732
300.716
300.7
300.682
300.665
300.646
300.627
300.608
300.588
300.567
300.546
300.525
300.504
300.482
300.46
300.438
300.415
300.392
300.369
300.346
300.323
300.299
300.276
300.252
300.228
300.205
300.181
300.157
300.133
300.109
300.085
300.06
300.036
300.012
294.319
294.627
294.927
295.221
295.507
295.785
296.056
296.318
296.573
296.819
297.057
297.287
297.51
297.723
297.929
298.127
298.317
298.5
298.674
298.841
299
299.152
299.297
299.435
299.565
299.689
299.806
299.917
300.022
300.12
300.212
300.299
300.38
300.456
300.526
300.591
300.652
300.707
300.758
300.805
300.847
300.886
300.92
300.951
300.978
301.002
301.022
301.04
301.054
301.065
301.074
301.08
301.084
301.085
301.085
301.082
301.077
301.07
301.062
301.051
301.04
301.026
301.012
300.996
300.979
300.96
300.941
300.921
300.899
300.877
300.854
300.83
300.806
300.781
300.755
300.729
300.702
300.675
300.647
300.619
300.591
300.562
300.533
300.504
300.475
300.445
300.415
300.385
300.355
300.324
300.294
300.263
300.232
300.201
300.171
300.14
300.109
300.078
300.047
300.016
293.059
293.435
293.803
294.161
294.511
294.851
295.181
295.502
295.813
296.114
296.405
296.686
296.957
297.219
297.47
297.712
297.944
298.167
298.38
298.584
298.779
298.964
299.141
299.309
299.469
299.62
299.763
299.899
300.026
300.147
300.26
300.365
300.464
300.557
300.643
300.722
300.796
300.864
300.926
300.983
301.035
301.082
301.124
301.162
301.195
301.224
301.249
301.27
301.288
301.302
301.312
301.32
301.324
301.326
301.325
301.322
301.316
301.307
301.297
301.285
301.27
301.254
301.236
301.217
301.196
301.173
301.15
301.125
301.099
301.072
301.043
301.014
300.985
300.954
300.923
300.891
300.858
300.825
300.791
300.757
300.722
300.687
300.652
300.616
300.58
300.544
300.507
300.47
300.433
300.396
300.359
300.321
300.284
300.246
300.208
300.171
300.133
300.095
300.057
300.019
291.801
292.246
292.68
293.103
293.516
293.917
294.308
294.686
295.054
295.409
295.753
296.085
296.406
296.715
297.012
297.298
297.572
297.835
298.087
298.327
298.557
298.777
298.985
299.184
299.373
299.551
299.721
299.88
300.031
300.173
300.307
300.432
300.549
300.658
300.759
300.853
300.94
301.021
301.094
301.162
301.223
301.278
301.328
301.372
301.412
301.446
301.475
301.5
301.521
301.538
301.55
301.559
301.565
301.567
301.565
301.561
301.554
301.544
301.532
301.517
301.5
301.481
301.46
301.437
301.412
301.386
301.358
301.329
301.298
301.266
301.233
301.198
301.163
301.127
301.09
301.052
301.013
300.974
300.934
300.894
300.853
300.812
300.77
300.727
300.685
300.642
300.599
300.555
300.512
300.468
300.424
300.38
300.335
300.291
300.246
300.202
300.157
300.112
300.067
300.022
290.545
291.058
291.558
292.047
292.522
292.986
293.436
293.872
294.296
294.706
295.103
295.486
295.855
296.211
296.554
296.884
297.2
297.503
297.793
298.071
298.336
298.589
298.83
299.059
299.276
299.483
299.678
299.862
300.036
300.2
300.354
300.498
300.633
300.758
300.875
300.984
301.084
301.177
301.262
301.34
301.41
301.474
301.532
301.583
301.628
301.667
301.701
301.73
301.754
301.773
301.788
301.798
301.804
301.806
301.805
301.8
301.792
301.781
301.767
301.75
301.73
301.708
301.684
301.657
301.629
301.598
301.566
301.532
301.497
301.46
301.421
301.382
301.341
301.299
301.257
301.213
301.169
301.123
301.077
301.031
300.984
300.936
300.888
300.839
300.79
300.74
300.691
300.64
300.59
300.54
300.489
300.438
300.387
300.335
300.284
300.232
300.181
300.129
300.078
300.026
289.292
289.872
290.439
290.992
291.531
292.056
292.565
293.06
293.54
294.004
294.453
294.887
295.306
295.709
296.097
296.47
296.829
297.172
297.501
297.815
298.116
298.402
298.675
298.934
299.181
299.414
299.635
299.844
300.041
300.226
300.4
300.564
300.716
300.859
300.992
301.115
301.228
301.333
301.429
301.517
301.597
301.67
301.735
301.793
301.844
301.888
301.927
301.96
301.987
302.008
302.025
302.036
302.043
302.046
302.044
302.039
302.03
302.017
302.001
301.982
301.96
301.935
301.907
301.877
301.845
301.81
301.774
301.735
301.695
301.653
301.61
301.565
301.519
301.472
301.423
301.374
301.324
301.272
301.22
301.168
301.114
301.06
301.005
300.95
300.895
300.839
300.782
300.725
300.668
300.611
300.554
300.496
300.438
300.38
300.322
300.263
300.205
300.146
300.088
300.029
288.041
288.689
289.322
289.94
290.542
291.127
291.697
292.249
292.785
293.304
293.805
294.29
294.757
295.208
295.641
296.058
296.458
296.842
297.209
297.56
297.895
298.215
298.52
298.81
299.085
299.346
299.592
299.826
300.046
300.253
300.447
300.63
300.8
300.959
301.107
301.245
301.372
301.489
301.596
301.695
301.784
301.865
301.937
302.002
302.059
302.109
302.152
302.188
302.219
302.243
302.261
302.274
302.282
302.285
302.283
302.277
302.267
302.253
302.235
302.213
302.188
302.161
302.13
302.096
302.06
302.022
301.981
301.938
301.893
301.846
301.798
301.748
301.696
301.644
301.59
301.534
301.478
301.421
301.363
301.304
301.244
301.184
301.123
301.061
300.999
300.936
300.874
300.81
300.746
300.682
300.618
300.554
300.489
300.424
300.359
300.294
300.229
300.163
300.098
300.033
286.793
287.509
288.208
288.89
289.555
290.202
290.83
291.44
292.032
292.605
293.159
293.694
294.21
294.708
295.187
295.647
296.088
296.512
296.918
297.305
297.676
298.029
298.366
298.686
298.989
299.277
299.55
299.807
300.05
300.279
300.494
300.695
300.884
301.059
301.223
301.375
301.515
301.644
301.763
301.871
301.97
302.059
302.139
302.211
302.274
302.329
302.377
302.417
302.45
302.477
302.497
302.512
302.52
302.523
302.522
302.515
302.503
302.488
302.468
302.444
302.417
302.386
302.352
302.315
302.275
302.232
302.187
302.14
302.091
302.039
301.986
301.93
301.874
301.815
301.756
301.695
301.632
301.569
301.505
301.44
301.374
301.307
301.24
301.172
301.103
301.034
300.965
300.895
300.824
300.754
300.683
300.611
300.54
300.468
300.397
300.325
300.253
300.181
300.108
300.036
285.548
286.331
287.096
287.843
288.57
289.278
289.966
290.634
291.281
291.908
292.514
293.1
293.665
294.209
294.733
295.236
295.72
296.183
296.627
297.052
297.457
297.843
298.212
298.562
298.894
299.209
299.507
299.789
300.055
300.305
300.54
300.761
300.967
301.159
301.338
301.504
301.658
301.799
301.929
302.048
302.156
302.253
302.341
302.419
302.488
302.549
302.601
302.645
302.681
302.71
302.733
302.748
302.758
302.761
302.759
302.752
302.739
302.722
302.7
302.675
302.645
302.611
302.574
302.533
302.489
302.443
302.394
302.342
302.288
302.231
302.173
302.112
302.05
301.986
301.921
301.854
301.786
301.717
301.647
301.576
301.504
301.431
301.357
301.282
301.207
301.132
301.056
300.979
300.902
300.825
300.747
300.669
300.591
300.513
300.434
300.355
300.276
300.198
300.119
300.04
284.307
285.157
285.988
286.799
287.589
288.357
289.104
289.829
290.532
291.213
291.871
292.507
293.121
293.712
294.281
294.827
295.352
295.856
296.337
296.798
297.238
297.658
298.058
298.438
298.799
299.141
299.465
299.771
300.06
300.332
300.587
300.826
301.05
301.259
301.453
301.633
301.8
301.954
302.095
302.224
302.341
302.447
302.542
302.627
302.702
302.767
302.824
302.872
302.911
302.943
302.967
302.984
302.995
302.998
302.996
302.988
302.975
302.956
302.932
302.904
302.872
302.835
302.795
302.751
302.703
302.653
302.599
302.543
302.484
302.423
302.359
302.294
302.226
302.157
302.086
302.014
301.94
301.865
301.788
301.711
301.633
301.553
301.473
301.392
301.311
301.229
301.146
301.063
300.979
300.896
300.811
300.727
300.642
300.557
300.471
300.386
300.3
300.214
300.129
300.043
283.07
283.987
284.884
285.758
286.61
287.439
288.245
289.028
289.786
290.52
291.23
291.916
292.578
293.216
293.83
294.42
294.986
295.529
296.049
296.546
297.021
297.474
297.905
298.315
298.704
299.074
299.423
299.753
300.065
300.358
300.633
300.891
301.133
301.358
301.568
301.762
301.942
302.108
302.26
302.399
302.525
302.64
302.742
302.834
302.915
302.986
303.047
303.098
303.141
303.175
303.201
303.22
303.231
303.235
303.232
303.224
303.209
303.189
303.164
303.133
303.098
303.059
303.015
302.968
302.916
302.862
302.804
302.743
302.68
302.614
302.545
302.474
302.402
302.327
302.25
302.172
302.093
302.012
301.929
301.846
301.761
301.676
301.589
301.502
301.414
301.326
301.237
301.147
301.057
300.966
300.875
300.784
300.692
300.6
300.508
300.416
300.324
300.231
300.139
300.046
281.837
282.821
283.783
284.721
285.635
286.524
287.389
288.228
289.042
289.83
290.592
291.328
292.038
292.722
293.38
294.013
294.621
295.203
295.761
296.294
296.804
297.29
297.752
298.192
298.61
299.006
299.381
299.735
300.069
300.384
300.679
300.956
301.215
301.457
301.682
301.89
302.083
302.261
302.424
302.574
302.709
302.832
302.942
303.04
303.127
303.203
303.268
303.324
303.37
303.406
303.434
303.454
303.466
303.47
303.468
303.459
303.443
303.421
303.394
303.361
303.324
303.281
303.235
303.184
303.129
303.07
303.008
302.943
302.875
302.804
302.731
302.655
302.577
302.496
302.414
302.331
302.245
302.158
302.07
301.98
301.89
301.798
301.705
301.612
301.517
301.422
301.327
301.23
301.134
301.036
300.939
300.841
300.743
300.644
300.545
300.447
300.347
300.248
300.149
300.05
280.608
281.659
282.686
283.687
284.663
285.613
286.536
287.432
288.301
289.142
289.955
290.741
291.499
292.229
292.932
293.608
294.257
294.879
295.474
296.044
296.588
297.106
297.6
298.07
298.516
298.939
299.339
299.717
300.074
300.41
300.725
301.021
301.297
301.556
301.796
302.018
302.224
302.414
302.588
302.748
302.893
303.024
303.141
303.246
303.339
303.42
303.49
303.549
303.598
303.637
303.667
303.688
303.7
303.705
303.702
303.692
303.676
303.653
303.624
303.589
303.549
303.503
303.453
303.399
303.34
303.278
303.212
303.142
303.069
302.994
302.915
302.834
302.751
302.665
302.578
302.488
302.397
302.304
302.21
302.114
302.017
301.92
301.821
301.721
301.62
301.519
301.416
301.314
301.21
301.107
301.002
300.898
300.793
300.688
300.582
300.477
300.371
300.265
300.159
300.053
279.384
280.501
281.593
282.658
283.695
284.705
285.686
286.639
287.562
288.457
289.321
290.157
290.963
291.739
292.486
293.205
293.894
294.555
295.189
295.794
296.372
296.924
297.449
297.948
298.422
298.872
299.297
299.699
300.079
300.436
300.771
301.085
301.379
301.654
301.909
302.146
302.365
302.567
302.752
302.921
303.075
303.214
303.339
303.451
303.55
303.636
303.71
303.773
303.825
303.866
303.898
303.92
303.934
303.939
303.936
303.926
303.908
303.883
303.852
303.815
303.773
303.725
303.671
303.614
303.551
303.485
303.414
303.341
303.263
303.183
303.099
303.013
302.925
302.834
302.74
302.645
302.548
302.45
302.349
302.248
302.145
302.041
301.935
301.829
301.722
301.614
301.506
301.397
301.287
301.176
301.066
300.954
300.843
300.731
300.619
300.507
300.394
300.282
300.169
300.056
278.166
279.349
280.505
281.632
282.731
283.801
284.84
285.849
286.827
287.774
288.69
289.575
290.428
291.251
292.042
292.803
293.533
294.234
294.904
295.545
296.158
296.742
297.298
297.827
298.329
298.805
299.256
299.682
300.083
300.461
300.817
301.15
301.461
301.751
302.022
302.273
302.505
302.718
302.914
303.094
303.257
303.404
303.537
303.655
303.759
303.851
303.929
303.996
304.051
304.095
304.128
304.152
304.167
304.172
304.169
304.158
304.139
304.113
304.08
304.041
303.996
303.945
303.888
303.827
303.761
303.691
303.616
303.538
303.456
303.371
303.283
303.191
303.097
303.001
302.902
302.802
302.699
302.594
302.488
302.381
302.272
302.161
302.05
301.937
301.824
301.71
301.595
301.479
301.363
301.246
301.129
301.011
300.893
300.774
300.656
300.537
300.418
300.298
300.179
300.06
276.952
278.201
279.421
280.612
281.772
282.901
283.998
285.063
286.095
287.095
288.062
288.995
289.896
290.765
291.6
292.403
293.174
293.913
294.621
295.298
295.944
296.561
297.148
297.706
298.236
298.739
299.215
299.664
300.088
300.487
300.862
301.213
301.542
301.849
302.134
302.399
302.644
302.869
303.076
303.266
303.438
303.594
303.733
303.858
303.968
304.065
304.147
304.218
304.276
304.322
304.358
304.383
304.398
304.404
304.4
304.389
304.369
304.341
304.307
304.265
304.218
304.164
304.105
304.04
303.97
303.896
303.817
303.735
303.648
303.558
303.465
303.369
303.27
303.168
303.064
302.957
302.849
302.739
302.627
302.513
302.398
302.281
302.164
302.045
301.925
301.805
301.683
301.561
301.439
301.315
301.191
301.067
300.942
300.817
300.692
300.567
300.441
300.315
300.189
300.063
275.745
277.059
278.343
279.596
280.817
282.005
283.159
284.28
285.367
286.419
287.436
288.419
289.367
290.281
291.16
292.005
292.816
293.594
294.339
295.051
295.732
296.38
296.998
297.586
298.144
298.673
299.173
299.646
300.093
300.513
300.907
301.277
301.623
301.946
302.246
302.525
302.782
303.02
303.238
303.437
303.618
303.782
303.929
304.06
304.176
304.277
304.365
304.439
304.5
304.549
304.586
304.613
304.629
304.634
304.631
304.619
304.598
304.569
304.532
304.489
304.439
304.382
304.32
304.252
304.178
304.1
304.017
303.93
303.839
303.745
303.646
303.545
303.441
303.334
303.224
303.112
302.998
302.882
302.764
302.645
302.523
302.401
302.277
302.152
302.026
301.899
301.772
301.643
301.514
301.384
301.254
301.123
300.992
300.86
300.728
300.596
300.464
300.332
300.199
300.066
274.543
275.922
277.27
278.585
279.866
281.113
282.325
283.501
284.642
285.746
286.814
287.845
288.84
289.799
290.722
291.609
292.46
293.277
294.059
294.806
295.52
296.201
296.85
297.466
298.052
298.607
299.132
299.629
300.097
300.538
300.952
301.34
301.703
302.042
302.357
302.65
302.92
303.169
303.398
303.607
303.797
303.969
304.124
304.261
304.383
304.489
304.581
304.659
304.723
304.774
304.813
304.841
304.858
304.864
304.86
304.847
304.825
304.795
304.757
304.711
304.659
304.599
304.534
304.462
304.385
304.303
304.216
304.125
304.03
303.93
303.827
303.721
303.611
303.499
303.384
303.266
303.147
303.025
302.901
302.776
302.648
302.52
302.39
302.259
302.127
301.993
301.859
301.725
301.589
301.453
301.316
301.179
301.041
300.903
300.764
300.626
300.487
300.348
300.209
300.07
273.348
274.792
276.203
277.579
278.921
280.226
281.495
282.726
283.92
285.076
286.194
287.274
288.316
289.32
290.286
291.215
292.106
292.961
293.78
294.562
295.31
296.023
296.702
297.347
297.96
298.542
299.092
299.611
300.102
300.563
300.997
301.403
301.783
302.138
302.468
302.774
303.057
303.318
303.558
303.777
303.976
304.156
304.317
304.462
304.589
304.7
304.796
304.877
304.945
304.998
305.039
305.068
305.086
305.092
305.089
305.075
305.052
305.02
304.98
304.932
304.877
304.815
304.746
304.672
304.591
304.505
304.414
304.319
304.219
304.115
304.007
303.895
303.781
303.663
303.543
303.42
303.294
303.167
303.037
302.906
302.773
302.638
302.502
302.365
302.227
302.087
301.947
301.806
301.664
301.521
301.378
301.234
301.09
300.945
300.8
300.655
300.51
300.364
300.219
300.073
272.159
273.667
275.141
276.579
277.981
279.344
280.67
281.956
283.203
284.411
285.579
286.707
287.795
288.844
289.853
290.823
291.754
292.647
293.502
294.32
295.101
295.845
296.555
297.229
297.869
298.477
299.051
299.594
300.106
300.588
301.041
301.466
301.863
302.233
302.578
302.898
303.194
303.466
303.716
303.945
304.153
304.341
304.51
304.661
304.794
304.91
305.01
305.095
305.165
305.221
305.264
305.295
305.313
305.32
305.316
305.301
305.277
305.244
305.202
305.153
305.095
305.03
304.958
304.88
304.796
304.706
304.611
304.511
304.407
304.298
304.186
304.069
303.95
303.827
303.701
303.572
303.441
303.308
303.173
303.036
302.897
302.756
302.614
302.47
302.326
302.18
302.034
301.886
301.738
301.589
301.439
301.289
301.138
300.987
300.836
300.684
300.533
300.381
300.228
300.076
270.977
272.549
274.086
275.585
277.046
278.467
279.849
281.19
282.49
283.749
284.966
286.142
287.277
288.37
289.422
290.433
291.404
292.335
293.226
294.079
294.893
295.669
296.408
297.111
297.779
298.412
299.011
299.577
300.111
300.613
301.085
301.528
301.942
302.328
302.687
303.021
303.329
303.613
303.874
304.112
304.329
304.525
304.701
304.858
304.997
305.118
305.223
305.311
305.384
305.443
305.488
305.519
305.538
305.545
305.541
305.526
305.501
305.467
305.423
305.371
305.311
305.243
305.169
305.087
305
304.906
304.807
304.703
304.594
304.481
304.363
304.242
304.117
303.989
303.858
303.724
303.587
303.449
303.307
303.164
303.019
302.873
302.725
302.575
302.425
302.273
302.12
301.966
301.812
301.656
301.5
301.344
301.187
301.029
300.872
300.713
300.555
300.397
300.238
300.079
269.802
271.438
273.037
274.597
276.117
277.596
279.033
280.429
281.781
283.091
284.358
285.581
286.762
287.899
288.994
290.046
291.056
292.025
292.952
293.839
294.686
295.494
296.263
296.994
297.689
298.348
298.971
299.56
300.115
300.638
301.129
301.59
302.021
302.422
302.796
303.143
303.464
303.76
304.031
304.279
304.504
304.708
304.892
305.055
305.199
305.325
305.434
305.526
305.602
305.663
305.71
305.743
305.763
305.77
305.766
305.75
305.724
305.688
305.643
305.589
305.526
305.456
305.378
305.293
305.202
305.105
305.002
304.893
304.78
304.662
304.54
304.414
304.284
304.151
304.014
303.875
303.733
303.588
303.441
303.292
303.142
302.989
302.835
302.68
302.523
302.365
302.206
302.046
301.885
301.723
301.561
301.398
301.235
301.071
300.907
300.742
300.578
300.413
300.248
300.083
268.635
270.334
271.995
273.615
275.193
276.73
278.223
279.672
281.077
282.437
283.753
285.024
286.25
287.432
288.569
289.661
290.711
291.716
292.68
293.601
294.48
295.319
296.118
296.878
297.6
298.284
298.931
299.543
300.12
300.663
301.173
301.651
302.099
302.516
302.904
303.265
303.598
303.905
304.187
304.444
304.679
304.89
305.081
305.25
305.4
305.531
305.644
305.74
305.819
305.882
305.931
305.965
305.985
305.993
305.988
305.972
305.945
305.908
305.861
305.805
305.74
305.667
305.586
305.498
305.403
305.302
305.195
305.082
304.965
304.842
304.715
304.584
304.449
304.311
304.169
304.025
303.877
303.727
303.574
303.42
303.263
303.105
302.945
302.783
302.62
302.456
302.291
302.125
301.958
301.79
301.621
301.452
301.283
301.112
300.942
300.771
300.6
300.429
300.257
300.086
267.475
269.237
270.959
272.639
274.276
275.869
277.418
278.92
280.377
281.788
283.153
284.47
285.742
286.967
288.146
289.279
290.367
291.41
292.409
293.364
294.276
295.146
295.975
296.763
297.511
298.22
298.892
299.526
300.124
300.687
301.216
301.712
302.176
302.609
303.012
303.385
303.731
304.049
304.342
304.609
304.852
305.071
305.269
305.445
305.6
305.736
305.853
305.952
306.034
306.1
306.15
306.185
306.207
306.215
306.21
306.193
306.165
306.127
306.078
306.019
305.952
305.876
305.792
305.701
305.603
305.498
305.387
305.27
305.148
305.021
304.89
304.754
304.614
304.47
304.323
304.173
304.02
303.865
303.707
303.546
303.384
303.22
303.054
302.886
302.717
302.547
302.376
302.203
302.03
301.856
301.681
301.506
301.33
301.154
300.977
300.8
300.622
300.445
300.267
300.089
266.323
268.148
269.931
271.671
273.366
275.015
276.618
278.174
279.683
281.143
282.556
283.921
285.237
286.505
287.726
288.9
290.026
291.106
292.14
293.129
294.074
294.975
295.832
296.648
297.423
298.157
298.852
299.509
300.129
300.712
301.259
301.773
302.253
302.701
303.118
303.505
303.863
304.193
304.495
304.772
305.023
305.251
305.455
305.637
305.798
305.939
306.06
306.163
306.248
306.316
306.368
306.404
306.426
306.435
306.43
306.413
306.384
306.343
306.293
306.232
306.163
306.084
305.997
305.903
305.801
305.693
305.578
305.457
305.331
305.199
305.063
304.922
304.777
304.629
304.476
304.321
304.163
304.001
303.838
303.672
303.504
303.334
303.162
302.988
302.813
302.637
302.46
302.281
302.102
301.922
301.741
301.559
301.377
301.194
301.011
300.828
300.644
300.46
300.276
300.092
265.18
267.067
268.91
270.709
272.461
274.167
275.824
277.433
278.993
280.503
281.964
283.375
284.736
286.047
287.309
288.523
289.687
290.804
291.873
292.896
293.873
294.804
295.691
296.534
297.335
298.095
298.813
299.492
300.133
300.736
301.302
301.833
302.33
302.793
303.224
303.624
303.994
304.335
304.648
304.934
305.194
305.429
305.64
305.829
305.995
306.141
306.266
306.372
306.46
306.53
306.584
306.622
306.644
306.653
306.648
306.63
306.6
306.559
306.507
306.444
306.372
306.291
306.201
306.103
305.998
305.886
305.767
305.642
305.512
305.376
305.235
305.089
304.939
304.786
304.628
304.468
304.304
304.137
303.968
303.796
303.623
303.447
303.269
303.09
302.909
302.727
302.543
302.359
302.173
301.987
301.8
301.612
301.424
301.235
301.046
300.856
300.666
300.476
300.286
300.095
264.046
265.994
267.897
269.754
271.564
273.325
275.036
276.698
278.308
279.868
281.376
282.833
284.238
285.593
286.896
288.149
289.351
290.504
291.609
292.664
293.673
294.635
295.551
296.421
297.249
298.033
298.775
299.476
300.137
300.76
301.345
301.893
302.406
302.884
303.329
303.742
304.124
304.476
304.799
305.095
305.363
305.606
305.824
306.019
306.191
306.341
306.47
306.58
306.67
306.743
306.798
306.837
306.861
306.87
306.865
306.846
306.815
306.773
306.719
306.654
306.58
306.496
306.403
306.302
306.194
306.078
305.955
305.826
305.691
305.551
305.405
305.255
305.1
304.942
304.779
304.613
304.444
304.272
304.097
303.92
303.741
303.559
303.376
303.19
303.004
302.816
302.626
302.436
302.244
302.052
301.859
301.665
301.47
301.275
301.08
300.884
300.688
300.491
300.295
300.098
262.92
264.929
266.892
268.807
270.674
272.49
274.255
275.968
277.629
279.238
280.793
282.295
283.745
285.142
286.486
287.778
289.018
290.207
291.346
292.435
293.475
294.467
295.411
296.309
297.162
297.971
298.736
299.459
300.142
300.784
301.387
301.952
302.481
302.974
303.434
303.859
304.253
304.616
304.95
305.254
305.531
305.782
306.007
306.207
306.384
306.539
306.673
306.786
306.879
306.954
307.011
307.052
307.076
307.085
307.08
307.061
307.029
306.985
306.929
306.862
306.786
306.699
306.604
306.499
306.387
306.268
306.141
306.008
305.869
305.725
305.575
305.42
305.26
305.096
304.929
304.758
304.583
304.406
304.226
304.043
303.858
303.67
303.481
303.29
303.098
302.904
302.708
302.512
302.314
302.116
301.917
301.717
301.516
301.315
301.114
300.912
300.709
300.507
300.304
300.101
261.803
263.873
265.895
267.868
269.79
271.661
273.479
275.244
276.955
278.612
280.215
281.762
283.255
284.694
286.079
287.41
288.687
289.912
291.085
292.207
293.278
294.3
295.273
296.198
297.077
297.91
298.698
299.443
300.146
300.807
301.428
302.011
302.556
303.064
303.537
303.976
304.381
304.755
305.099
305.412
305.698
305.956
306.187
306.394
306.577
306.736
306.874
306.99
307.086
307.163
307.222
307.264
307.289
307.298
307.293
307.273
307.24
307.195
307.138
307.069
306.99
306.901
306.802
306.695
306.58
306.457
306.326
306.189
306.046
305.897
305.742
305.583
305.419
305.25
305.077
304.901
304.721
304.539
304.353
304.165
303.974
303.781
303.586
303.389
303.191
302.991
302.79
302.588
302.384
302.18
301.974
301.768
301.562
301.355
301.147
300.939
300.731
300.522
300.313
300.104
260.696
262.826
264.906
266.936
268.915
270.84
272.711
274.527
276.287
277.992
279.641
281.234
282.77
284.25
285.675
287.045
288.359
289.62
290.827
291.981
293.083
294.135
295.136
296.088
296.992
297.849
298.661
299.427
300.15
300.831
301.47
302.069
302.63
303.153
303.639
304.091
304.508
304.893
305.246
305.569
305.863
306.128
306.367
306.579
306.767
306.931
307.073
307.193
307.292
307.371
307.432
307.474
307.5
307.51
307.504
307.484
307.45
307.403
307.344
307.274
307.192
307.101
307
306.889
306.771
306.644
306.51
306.369
306.221
306.068
305.909
305.745
305.576
305.402
305.225
305.043
304.858
304.67
304.479
304.285
304.089
303.891
303.69
303.488
303.283
303.078
302.871
302.663
302.453
302.243
302.032
301.82
301.607
301.394
301.18
300.966
300.752
300.537
300.322
300.107
259.598
261.787
263.926
266.013
268.047
270.025
271.949
273.815
275.625
277.378
279.073
280.71
282.289
283.811
285.275
286.683
288.034
289.33
290.571
291.757
292.89
293.971
295
295.979
296.908
297.789
298.623
299.411
300.154
300.854
301.511
302.127
302.703
303.241
303.741
304.205
304.634
305.03
305.393
305.725
306.026
306.299
306.545
306.763
306.956
307.125
307.27
307.393
307.495
307.577
307.639
307.683
307.71
307.72
307.714
307.693
307.658
307.61
307.55
307.477
307.393
307.299
307.195
307.082
306.96
306.829
306.692
306.547
306.395
306.237
306.074
305.905
305.731
305.553
305.37
305.184
304.994
304.801
304.604
304.405
304.203
303.999
303.793
303.585
303.375
303.164
302.951
302.737
302.522
302.306
302.088
301.871
301.652
301.433
301.213
300.993
300.773
300.552
300.331
300.11
258.511
260.759
262.955
265.098
267.187
269.219
271.194
273.111
274.969
276.769
278.509
280.19
281.812
283.375
284.879
286.324
287.712
289.043
290.317
291.535
292.699
293.809
294.866
295.871
296.825
297.73
298.586
299.395
300.158
300.877
301.552
302.184
302.776
303.328
303.842
304.318
304.759
305.165
305.538
305.879
306.189
306.469
306.721
306.945
307.143
307.317
307.466
307.592
307.697
307.781
307.845
307.89
307.917
307.927
307.921
307.9
307.864
307.815
307.753
307.678
307.592
307.496
307.389
307.272
307.147
307.013
306.872
306.723
306.567
306.405
306.237
306.064
305.886
305.702
305.515
305.324
305.128
304.93
304.728
304.524
304.316
304.107
303.895
303.681
303.466
303.249
303.03
302.811
302.59
302.368
302.145
301.921
301.696
301.471
301.246
301.02
300.794
300.567
300.34
300.113
257.433
259.74
261.993
264.192
266.334
268.419
270.446
272.412
274.319
276.166
277.951
279.676
281.34
282.943
284.486
285.969
287.393
288.758
290.065
291.315
292.509
293.648
294.732
295.763
296.743
297.671
298.549
299.379
300.162
300.899
301.592
302.241
302.848
303.415
303.942
304.43
304.883
305.299
305.682
306.031
306.349
306.637
306.895
307.126
307.329
307.507
307.66
307.79
307.897
307.983
308.049
308.095
308.123
308.133
308.127
308.105
308.069
308.018
307.954
307.878
307.789
307.69
307.581
307.461
307.333
307.195
307.05
306.897
306.738
306.572
306.399
306.221
306.038
305.851
305.658
305.462
305.262
305.058
304.851
304.641
304.428
304.213
303.996
303.777
303.556
303.333
303.109
302.884
302.657
302.429
302.2
301.971
301.741
301.51
301.278
301.046
300.814
300.582
300.349
300.116
256.367
258.731
261.041
263.295
265.491
267.628
269.705
271.721
273.676
275.568
277.399
279.166
280.872
282.516
284.097
285.618
287.077
288.476
289.816
291.098
292.322
293.489
294.6
295.657
296.661
297.612
298.513
299.364
300.167
300.922
301.632
302.297
302.919
303.5
304.04
304.542
305.005
305.432
305.824
306.183
306.509
306.803
307.068
307.304
307.513
307.695
307.852
307.985
308.095
308.183
308.25
308.298
308.326
308.337
308.331
308.308
308.271
308.219
308.153
308.075
307.985
307.883
307.771
307.648
307.516
307.376
307.227
307.07
306.907
306.736
306.56
306.377
306.19
305.997
305.8
305.599
305.393
305.185
304.972
304.757
304.539
304.319
304.096
303.872
303.645
303.417
303.187
302.956
302.723
302.49
302.255
302.02
301.784