/*--------------------------------*- C++ -*----------------------------------*\
| =========                 |                                                 |
| \\      /  F ield         | OpenFOAM: The Open Source CFD Toolbox           |
|  \\    /   O peration     | Version:  2406                                  |
|   \\  /    A nd           | Website:  www.openfoam.com                      |
|    \\/     M anipulation  |                                                 |
\*---------------------------------------------------------------------------*/
FoamFile
{
    version     2.0;
    format      ascii;
    arch        "LSB;label=32;scalar=64";
    class       volVectorField;
    location    "140";
    object      flux;
}
// * * * * * * * * * * * * * * * * * * * * * * * * * * * * * * * * * * * * * //

dimensions      [0 1 -1 1 0 0 0];

internalField   nonuniform List<vector> 
20000
(
(0.00207368 -0.0257827 0)
(0.00196655 -0.021744 0)
(0.00186211 -0.017917 0)
(0.00176044 -0.014296 0)
(0.00166151 -0.0108757 0)
(0.00156537 -0.0076504 0)
(0.00147216 -0.00461447 0)
(0.00138198 -0.00176201 0)
(0.00129461 0.000912991 0)
(0.0012101 0.00341604 0)
(0.00112864 0.00575316 0)
(0.00105016 0.00793039 0)
(0.00097453 0.00995351 0)
(0.000901755 0.0118282 0)
(0.000831865 0.0135603 0)
(0.000764847 0.0151555 0)
(0.000700641 0.0166195 0)
(0.000639184 0.0179579 0)
(0.000580423 0.0191761 0)
(0.000524315 0.0202794 0)
(0.000470816 0.0212732 0)
(0.000419875 0.0221626 0)
(0.000371436 0.0229526 0)
(0.000325436 0.0236482 0)
(0.00028181 0.0242543 0)
(0.000240491 0.0247754 0)
(0.000201413 0.0252162 0)
(0.00016451 0.025581 0)
(0.000129715 0.0258742 0)
(9.69615e-05 0.0260998 0)
(6.61813e-05 0.026262 0)
(3.73072e-05 0.0263646 0)
(1.02715e-05 0.0264112 0)
(-1.49931e-05 0.0264056 0)
(-3.85539e-05 0.0263513 0)
(-6.04774e-05 0.0262514 0)
(-8.08297e-05 0.0261094 0)
(-9.9676e-05 0.0259281 0)
(-0.000117081 0.0257107 0)
(-0.000133107 0.0254598 0)
(-0.000147817 0.0251783 0)
(-0.000161272 0.0248686 0)
(-0.000173531 0.0245332 0)
(-0.000184654 0.0241745 0)
(-0.000194698 0.0237947 0)
(-0.000203718 0.0233958 0)
(-0.000211768 0.0229798 0)
(-0.000218903 0.0225488 0)
(-0.000225173 0.0221043 0)
(-0.000230628 0.0216481 0)
(-0.000235317 0.0211818 0)
(-0.000239287 0.0207069 0)
(-0.000242583 0.0202247 0)
(-0.00024525 0.0197366 0)
(-0.000247329 0.0192438 0)
(-0.000248862 0.0187474 0)
(-0.000249889 0.0182484 0)
(-0.000250447 0.0177479 0)
(-0.000250572 0.0172467 0)
(-0.000250301 0.0167457 0)
(-0.000249666 0.0162456 0)
(-0.000248701 0.0157471 0)
(-0.000247436 0.0152508 0)
(-0.0002459 0.0147574 0)
(-0.000244123 0.0142673 0)
(-0.000242131 0.0137809 0)
(-0.00023995 0.0132988 0)
(-0.000237604 0.0128212 0)
(-0.000235118 0.0123484 0)
(-0.000232514 0.0118808 0)
(-0.000229812 0.0114185 0)
(-0.000227033 0.0109616 0)
(-0.000224196 0.0105104 0)
(-0.00022132 0.0100649 0)
(-0.000218421 0.00962515 0)
(-0.000215515 0.00919124 0)
(-0.000212618 0.00876314 0)
(-0.000209744 0.00834082 0)
(-0.000206907 0.00792422 0)
(-0.000204119 0.00751325 0)
(-0.000201392 0.00710779 0)
(-0.000198738 0.00670773 0)
(-0.000196167 0.00631289 0)
(-0.000193689 0.00592311 0)
(-0.000191312 0.00553818 0)
(-0.000189046 0.00515791 0)
(-0.000186897 0.00478205 0)
(-0.000184873 0.00441036 0)
(-0.000182981 0.0040426 0)
(-0.000181226 0.00367849 0)
(-0.000179614 0.00331774 0)
(-0.00017815 0.00296007 0)
(-0.000176837 0.00260519 0)
(-0.000175681 0.00225277 0)
(-0.000174684 0.00190251 0)
(-0.000173848 0.00155408 0)
(-0.000173177 0.00120716 0)
(-0.000172672 0.000861411 0)
(-0.000172335 0.000516509 0)
(-0.000172166 0.000172113 0)
(0.00622055 -0.0257763 0)
(0.00589919 -0.0217385 0)
(0.00558588 -0.0179125 0)
(0.00528081 -0.0142924 0)
(0.00498407 -0.0108731 0)
(0.00469585 -0.00764858 0)
(0.00441623 -0.00461327 0)
(0.00414548 -0.00176152 0)
(0.00388343 0.000912686 0)
(0.00363007 0.00341515 0)
(0.00338571 0.00575179 0)
(0.00315019 0.00792848 0)
(0.0029233 0.00995105 0)
(0.00270503 0.0118253 0)
(0.00249541 0.0135569 0)
(0.00229437 0.0151518 0)
(0.00210176 0.0166154 0)
(0.00191739 0.0179535 0)
(0.00174112 0.0191714 0)
(0.00157281 0.0202744 0)
(0.00141233 0.021268 0)
(0.00125952 0.0221571 0)
(0.00111422 0.0229469 0)
(0.000976231 0.0236424 0)
(0.000845361 0.0242483 0)
(0.000721414 0.0247693 0)
(0.00060419 0.02521 0)
(0.00049349 0.0255747 0)
(0.000389114 0.0258678 0)
(0.00029086 0.0260934 0)
(0.000198527 0.0262555 0)
(0.000111912 0.026358 0)
(3.08119e-05 0.0264047 0)
(-4.49757e-05 0.0263991 0)
(-0.000115652 0.0263448 0)
(-0.000181417 0.026245 0)
(-0.000242469 0.0261029 0)
(-0.000299003 0.0259217 0)
(-0.000351213 0.0257043 0)
(-0.000399287 0.0254536 0)
(-0.000443414 0.0251721 0)
(-0.000483775 0.0248625 0)
(-0.000520551 0.0245272 0)
(-0.000553917 0.0241686 0)
(-0.000584045 0.0237888 0)
(-0.000611103 0.02339 0)
(-0.000635253 0.0229742 0)
(-0.000656655 0.0225432 0)
(-0.000675463 0.0220988 0)
(-0.000691827 0.0216428 0)
(-0.000705893 0.0211766 0)
(-0.000717802 0.0207018 0)
(-0.00072769 0.0202198 0)
(-0.000735689 0.0197318 0)
(-0.000741927 0.0192391 0)
(-0.000746526 0.0187428 0)
(-0.000749605 0.0182439 0)
(-0.000751278 0.0177435 0)
(-0.000751655 0.0172424 0)
(-0.000750841 0.0167415 0)
(-0.000748938 0.0162415 0)
(-0.000746042 0.0157432 0)
(-0.000742246 0.015247 0)
(-0.00073764 0.0147537 0)
(-0.000732308 0.0142637 0)
(-0.000726332 0.0137775 0)
(-0.00071979 0.0132955 0)
(-0.000712754 0.012818 0)
(-0.000705297 0.0123454 0)
(-0.000697484 0.0118779 0)
(-0.000689379 0.0114156 0)
(-0.000681044 0.0109589 0)
(-0.000672534 0.0105078 0)
(-0.000663905 0.0100624 0)
(-0.000655208 0.00962277 0)
(-0.000646491 0.00918897 0)
(-0.000637801 0.00876098 0)
(-0.00062918 0.00833876 0)
(-0.000620669 0.00792226 0)
(-0.000612306 0.00751139 0)
(-0.000604127 0.00710604 0)
(-0.000596166 0.00670607 0)
(-0.000588453 0.00631133 0)
(-0.000581019 0.00592165 0)
(-0.00057389 0.00553682 0)
(-0.00056709 0.00515663 0)
(-0.000560645 0.00478087 0)
(-0.000554574 0.00440928 0)
(-0.000548897 0.0040416 0)
(-0.000543633 0.00367758 0)
(-0.000538798 0.00331692 0)
(-0.000534405 0.00295934 0)
(-0.000530469 0.00260454 0)
(-0.000526999 0.00225221 0)
(-0.000524008 0.00190204 0)
(-0.000521502 0.00155369 0)
(-0.000519489 0.00120686 0)
(-0.000517974 0.000861198 0)
(-0.000516962 0.000516381 0)
(-0.000516456 0.000172071 0)
(0.0103659 -0.0257637 0)
(0.00983043 -0.0217278 0)
(0.00930821 -0.0179036 0)
(0.00879984 -0.0142854 0)
(0.00830537 -0.0108676 0)
(0.00782516 -0.00764479 0)
(0.00735922 -0.00461102 0)
(0.00690794 -0.00176066 0)
(0.00647129 0.000912219 0)
(0.0060492 0.00341348 0)
(0.00564197 0.00574898 0)
(0.00524942 0.00792458 0)
(0.00487132 0.00994612 0)
(0.00450763 0.0118194 0)
(0.00415836 0.0135502 0)
(0.00382335 0.0151443 0)
(0.00350236 0.0166072 0)
(0.00319512 0.0179446 0)
(0.00290137 0.0191619 0)
(0.00262091 0.0202644 0)
(0.00235349 0.0212574 0)
(0.00209886 0.0221462 0)
(0.00185673 0.0229356 0)
(0.00162679 0.0236307 0)
(0.00140871 0.0242363 0)
(0.00120216 0.0247571 0)
(0.00100682 0.0251975 0)
(0.000822347 0.0255621 0)
(0.000648415 0.025855 0)
(0.000484687 0.0260805 0)
(0.000330824 0.0262426 0)
(0.000186489 0.026345 0)
(5.13445e-05 0.0263917 0)
(-7.49473e-05 0.0263861 0)
(-0.000192722 0.0263318 0)
(-0.000302313 0.026232 0)
(-0.000404049 0.02609 0)
(-0.000498257 0.0259089 0)
(-0.000585258 0.0256917 0)
(-0.000665369 0.025441 0)
(-0.000738901 0.0251597 0)
(-0.000806159 0.0248502 0)
(-0.000867442 0.0245151 0)
(-0.000923043 0.0241566 0)
(-0.000973249 0.0237771 0)
(-0.00101834 0.0233785 0)
(-0.00105858 0.0229628 0)
(-0.00109424 0.0225321 0)
(-0.00112559 0.0220879 0)
(-0.00115286 0.0216321 0)
(-0.0011763 0.0211662 0)
(-0.00119614 0.0206916 0)
(-0.00121262 0.0202098 0)
(-0.00122595 0.019722 0)
(-0.00123634 0.0192296 0)
(-0.001244 0.0187335 0)
(-0.00124914 0.0182349 0)
(-0.00125192 0.0177348 0)
(-0.00125255 0.0172339 0)
(-0.0012512 0.0167333 0)
(-0.00124802 0.0162335 0)
(-0.0012432 0.0157354 0)
(-0.00123687 0.0152395 0)
(-0.0012292 0.0147465 0)
(-0.00122031 0.0142567 0)
(-0.00121035 0.0137707 0)
(-0.00119945 0.013289 0)
(-0.00118773 0.0128117 0)
(-0.0011753 0.0123393 0)
(-0.00116228 0.011872 0)
(-0.00114878 0.01141 0)
(-0.00113489 0.0109535 0)
(-0.00112071 0.0105026 0)
(-0.00110633 0.0100574 0)
(-0.00109183 0.00961803 0)
(-0.00107731 0.00918444 0)
(-0.00106283 0.00875666 0)
(-0.00104846 0.00833465 0)
(-0.00103428 0.00791835 0)
(-0.00102034 0.00750769 0)
(-0.00100671 0.00710253 0)
(-0.000993447 0.00670276 0)
(-0.000980594 0.00630822 0)
(-0.000968206 0.00591872 0)
(-0.000956325 0.00553408 0)
(-0.000944995 0.00515409 0)
(-0.000934254 0.00477851 0)
(-0.000924138 0.0044071 0)
(-0.000914678 0.00403961 0)
(-0.000905906 0.00367576 0)
(-0.000897848 0.00331529 0)
(-0.000890529 0.00295788 0)
(-0.000883969 0.00260326 0)
(-0.000878188 0.0022511 0)
(-0.000873203 0.0019011 0)
(-0.000869027 0.00155293 0)
(-0.000865673 0.00120626 0)
(-0.000863149 0.000860773 0)
(-0.000861462 0.000516126 0)
(-0.000860618 0.000171986 0)
(0.0145087 -0.0257446 0)
(0.0137593 -0.0217119 0)
(0.0130284 -0.0178904 0)
(0.0123168 -0.0142748 0)
(0.0116246 -0.0108596 0)
(0.0109525 -0.00763912 0)
(0.0103004 -0.00460764 0)
(0.00966873 -0.00175936 0)
(0.00905757 0.000911561 0)
(0.00846683 0.00341097 0)
(0.00789682 0.00574472 0)
(0.00734734 0.0079187 0)
(0.00681813 0.00993874 0)
(0.00630913 0.0118106 0)
(0.00582029 0.0135402 0)
(0.00535139 0.0151331 0)
(0.0049021 0.016595 0)
(0.00447205 0.0179313 0)
(0.0040609 0.0191477 0)
(0.00366836 0.0202494 0)
(0.00329407 0.0212417 0)
(0.00293769 0.0221298 0)
(0.00259879 0.0229186 0)
(0.00227695 0.0236132 0)
(0.00197171 0.0242184 0)
(0.00168261 0.0247387 0)
(0.0014092 0.0251789 0)
(0.001151 0.0255432 0)
(0.000907557 0.0258359 0)
(0.000678393 0.0260612 0)
(0.000463038 0.0262231 0)
(0.00026102 0.0263255 0)
(7.18642e-05 0.0263721 0)
(-0.000104901 0.0263666 0)
(-0.000269744 0.0263123 0)
(-0.000423133 0.0262126 0)
(-0.000565529 0.0260707 0)
(-0.000697388 0.0258898 0)
(-0.000819159 0.0256726 0)
(-0.000931287 0.0254222 0)
(-0.00103421 0.025141 0)
(-0.00112834 0.0248318 0)
(-0.00121412 0.0244969 0)
(-0.00129194 0.0241387 0)
(-0.00136221 0.0237595 0)
(-0.00142532 0.0233612 0)
(-0.00148165 0.0229458 0)
(-0.00153156 0.0225154 0)
(-0.00157543 0.0220716 0)
(-0.0016136 0.0216161 0)
(-0.00164641 0.0211505 0)
(-0.00167418 0.0206763 0)
(-0.00169724 0.0201948 0)
(-0.0017159 0.0197074 0)
(-0.00173045 0.0192153 0)
(-0.00174118 0.0187196 0)
(-0.00174836 0.0182214 0)
(-0.00175226 0.0177216 0)
(-0.00175314 0.0172212 0)
(-0.00175124 0.0167209 0)
(-0.0017468 0.0162215 0)
(-0.00174005 0.0157238 0)
(-0.0017312 0.0152282 0)
(-0.00172045 0.0147355 0)
(-0.00170802 0.0142462 0)
(-0.00169408 0.0137605 0)
(-0.00167882 0.0132791 0)
(-0.00166241 0.0128022 0)
(-0.00164502 0.0123302 0)
(-0.00162679 0.0118632 0)
(-0.00160789 0.0114016 0)
(-0.00158845 0.0109454 0)
(-0.0015686 0.0104948 0)
(-0.00154847 0.01005 0)
(-0.00152819 0.0096109 0)
(-0.00150786 0.00917764 0)
(-0.00148759 0.00875017 0)
(-0.00146748 0.00832848 0)
(-0.00144763 0.00791249 0)
(-0.00142813 0.00750213 0)
(-0.00140905 0.00709727 0)
(-0.00139048 0.0066978 0)
(-0.00137249 0.00630355 0)
(-0.00135515 0.00591434 0)
(-0.00133852 0.00552999 0)
(-0.00132267 0.00515027 0)
(-0.00130763 0.00477497 0)
(-0.00129347 0.00440384 0)
(-0.00128023 0.00403662 0)
(-0.00126796 0.00367304 0)
(-0.00125668 0.00331283 0)
(-0.00124643 0.00295569 0)
(-0.00123725 0.00260133 0)
(-0.00122916 0.00224943 0)
(-0.00122218 0.00189969 0)
(-0.00121634 0.00155178 0)
(-0.00121164 0.00120537 0)
(-0.00120811 0.000860135 0)
(-0.00120575 0.000515744 0)
(-0.00120457 0.000171858 0)
(0.0186479 -0.025719 0)
(0.0176847 -0.0216904 0)
(0.0167453 -0.0178727 0)
(0.0158306 -0.0142607 0)
(0.0149411 -0.0108489 0)
(0.0140771 -0.00763158 0)
(0.013239 -0.00460308 0)
(0.0124271 -0.00175762 0)
(0.0116416 0.000910672 0)
(0.0108824 0.0034076 0)
(0.0101497 0.00573904 0)
(0.00944344 0.00791087 0)
(0.00876326 0.00992892 0)
(0.00810908 0.011799 0)
(0.0074808 0.0135268 0)
(0.00687812 0.0151181 0)
(0.00630062 0.0165786 0)
(0.00574787 0.0179136 0)
(0.00521943 0.0191288 0)
(0.0047149 0.0202294 0)
(0.00423384 0.0212207 0)
(0.00377579 0.0221079 0)
(0.00334021 0.022896 0)
(0.00292655 0.0235899 0)
(0.00253422 0.0241945 0)
(0.00216265 0.0247143 0)
(0.00181123 0.025154 0)
(0.00147937 0.0255179 0)
(0.00116647 0.0258104 0)
(0.000871931 0.0260355 0)
(0.000595138 0.0261972 0)
(0.000335486 0.0262995 0)
(9.2366e-05 0.0263461 0)
(-0.000134828 0.0263405 0)
(-0.0003467 0.0262863 0)
(-0.000543849 0.0261867 0)
(-0.000726869 0.026045 0)
(-0.000896346 0.0258642 0)
(-0.00105286 0.0256473 0)
(-0.00119698 0.025397 0)
(-0.00132926 0.0251162 0)
(-0.00145025 0.0248073 0)
(-0.0015605 0.0244727 0)
(-0.00166052 0.0241149 0)
(-0.00175084 0.023736 0)
(-0.00183195 0.0233381 0)
(-0.00190435 0.0229232 0)
(-0.00196851 0.0224931 0)
(-0.00202489 0.0220498 0)
(-0.00207395 0.0215947 0)
(-0.00211611 0.0211296 0)
(-0.00215181 0.0206558 0)
(-0.00218145 0.0201749 0)
(-0.00220543 0.019688 0)
(-0.00222413 0.0191963 0)
(-0.00223792 0.0187011 0)
(-0.00224715 0.0182034 0)
(-0.00225217 0.0177041 0)
(-0.0022533 0.0172042 0)
(-0.00225086 0.0167044 0)
(-0.00224515 0.0162055 0)
(-0.00223647 0.0157082 0)
(-0.00222509 0.0152132 0)
(-0.00221128 0.014721 0)
(-0.0021953 0.0142321 0)
(-0.00217738 0.013747 0)
(-0.00215777 0.013266 0)
(-0.00213668 0.0127896 0)
(-0.00211432 0.012318 0)
(-0.0020909 0.0118515 0)
(-0.00206661 0.0113903 0)
(-0.00204162 0.0109346 0)
(-0.00201611 0.0104845 0)
(-0.00199024 0.01004 0)
(-0.00196417 0.00960141 0)
(-0.00193804 0.00916857 0)
(-0.00191199 0.00874153 0)
(-0.00188614 0.00832025 0)
(-0.00186063 0.00790467 0)
(-0.00183556 0.00749472 0)
(-0.00181104 0.00709026 0)
(-0.00178717 0.00669118 0)
(-0.00176405 0.00629732 0)
(-0.00174177 0.0059085 0)
(-0.00172039 0.00552452 0)
(-0.00170001 0.00514518 0)
(-0.00168069 0.00477025 0)
(-0.00166249 0.00439949 0)
(-0.00164547 0.00403263 0)
(-0.00162969 0.00366941 0)
(-0.0016152 0.00330956 0)
(-0.00160203 0.00295277 0)
(-0.00159023 0.00259876 0)
(-0.00157983 0.00224721 0)
(-0.00157086 0.00189781 0)
(-0.00156335 0.00155024 0)
(-0.00155731 0.00120418 0)
(-0.00155277 0.000859286 0)
(-0.00154974 0.000515235 0)
(-0.00154822 0.000171689 0)
(0.0227824 -0.0256872 0)
(0.0216056 -0.0216636 0)
(0.0204581 -0.0178506 0)
(0.0193406 -0.0142431 0)
(0.0182538 -0.0108355 0)
(0.0171983 -0.00762215 0)
(0.0161743 -0.00459739 0)
(0.0151825 -0.00175543 0)
(0.0142228 0.00090955 0)
(0.0132952 0.00340339 0)
(0.0124001 0.00573194 0)
(0.0115372 0.00790109 0)
(0.0107062 0.00991665 0)
(0.00990704 0.0117844 0)
(0.00913946 0.0135101 0)
(0.00840314 0.0150995 0)
(0.00769759 0.0165581 0)
(0.00702227 0.0178915 0)
(0.00637666 0.0191052 0)
(0.00576028 0.0202044 0)
(0.00517257 0.0211945 0)
(0.00461296 0.0220806 0)
(0.00408081 0.0228677 0)
(0.00357542 0.0235608 0)
(0.00309611 0.0241646 0)
(0.00264215 0.0246838 0)
(0.00221281 0.0251229 0)
(0.00180738 0.0254864 0)
(0.0014251 0.0257785 0)
(0.00106525 0.0260033 0)
(0.000727091 0.0261649 0)
(0.000409869 0.026267 0)
(0.000112845 0.0263135 0)
(-0.000164722 0.026308 0)
(-0.000423571 0.0262538 0)
(-0.000664432 0.0261543 0)
(-0.000888031 0.0260128 0)
(-0.00109508 0.0258322 0)
(-0.0012863 0.0256156 0)
(-0.00146237 0.0253657 0)
(-0.00162398 0.0250852 0)
(-0.0017718 0.0247766 0)
(-0.00190649 0.0244425 0)
(-0.00202869 0.0240851 0)
(-0.00213903 0.0237067 0)
(-0.00223813 0.0233092 0)
(-0.00232658 0.0228948 0)
(-0.00240496 0.0224654 0)
(-0.00247385 0.0220225 0)
(-0.00253378 0.021568 0)
(-0.0025853 0.0211035 0)
(-0.00262891 0.0206303 0)
(-0.00266512 0.0201499 0)
(-0.00269442 0.0196636 0)
(-0.00271727 0.0191726 0)
(-0.00273411 0.018678 0)
(-0.00274539 0.0181809 0)
(-0.00275152 0.0176822 0)
(-0.0027529 0.0171829 0)
(-0.00274992 0.0166837 0)
(-0.00274294 0.0161855 0)
(-0.00273234 0.0156888 0)
(-0.00271844 0.0151944 0)
(-0.00270157 0.0147028 0)
(-0.00268204 0.0142145 0)
(-0.00266015 0.01373 0)
(-0.00263619 0.0132496 0)
(-0.00261042 0.0127738 0)
(-0.00258311 0.0123028 0)
(-0.0025545 0.0118368 0)
(-0.00252481 0.0113762 0)
(-0.00249429 0.0109211 0)
(-0.00246312 0.0104715 0)
(-0.00243152 0.0100276 0)
(-0.00239966 0.00958955 0)
(-0.00236774 0.00915724 0)
(-0.00233591 0.00873073 0)
(-0.00230434 0.00830997 0)
(-0.00227317 0.00789491 0)
(-0.00224254 0.00748546 0)
(-0.00221258 0.0070815 0)
(-0.00218343 0.00668292 0)
(-0.00215518 0.00628954 0)
(-0.00212795 0.0059012 0)
(-0.00210184 0.0055177 0)
(-0.00207694 0.00513883 0)
(-0.00205333 0.00476436 0)
(-0.0020311 0.00439405 0)
(-0.00201031 0.00402765 0)
(-0.00199103 0.00366488 0)
(-0.00197332 0.00330547 0)
(-0.00195723 0.00294912 0)
(-0.00194281 0.00259555 0)
(-0.00193011 0.00224444 0)
(-0.00191915 0.00189547 0)
(-0.00190997 0.00154833 0)
(-0.0019026 0.00120269 0)
(-0.00189705 0.000858224 0)
(-0.00189335 0.000514598 0)
(-0.00189149 0.000171477 0)
(0.0269113 -0.0256491 0)
(0.0255213 -0.0216314 0)
(0.0241658 -0.0178241 0)
(0.0228458 -0.014222 0)
(0.021562 -0.0108194 0)
(0.0203152 -0.00761083 0)
(0.0191057 -0.00459056 0)
(0.0179341 -0.00175283 0)
(0.0168004 0.000908197 0)
(0.0157048 0.00339833 0)
(0.0146474 0.00572343 0)
(0.0136281 0.00788937 0)
(0.0126466 0.00990194 0)
(0.0117026 0.0117669 0)
(0.0107959 0.0134901 0)
(0.00992609 0.0150771 0)
(0.00909265 0.0165335 0)
(0.00829493 0.017865 0)
(0.00753232 0.0190768 0)
(0.00680423 0.0201744 0)
(0.00611002 0.021163 0)
(0.005449 0.0220478 0)
(0.0048204 0.0228338 0)
(0.00422342 0.0235258 0)
(0.00365724 0.0241287 0)
(0.003121 0.0246472 0)
(0.00261385 0.0250856 0)
(0.00213493 0.0254486 0)
(0.00168338 0.0257402 0)
(0.00125831 0.0259647 0)
(0.000858864 0.026126 0)
(0.00048415 0.0262281 0)
(0.000133296 0.0262745 0)
(-0.000194576 0.0262689 0)
(-0.000500337 0.0262148 0)
(-0.00078485 0.0261155 0)
(-0.00104897 0.0259742 0)
(-0.00129355 0.0257939 0)
(-0.00151942 0.0255776 0)
(-0.0017274 0.025328 0)
(-0.0019183 0.0250479 0)
(-0.00209291 0.0247399 0)
(-0.00225201 0.0244062 0)
(-0.00239636 0.0240494 0)
(-0.0025267 0.0236715 0)
(-0.00264376 0.0232747 0)
(-0.00274824 0.0228609 0)
(-0.00284083 0.022432 0)
(-0.00292219 0.0219899 0)
(-0.00299299 0.021536 0)
(-0.00305384 0.0210722 0)
(-0.00310536 0.0205997 0)
(-0.00314814 0.02012 0)
(-0.00318274 0.0196345 0)
(-0.00320973 0.0191442 0)
(-0.00322963 0.0186503 0)
(-0.00324295 0.0181539 0)
(-0.00325019 0.017656 0)
(-0.00325182 0.0171574 0)
(-0.0032483 0.016659 0)
(-0.00324006 0.0161614 0)
(-0.00322753 0.0156655 0)
(-0.00321111 0.0151719 0)
(-0.00319118 0.014681 0)
(-0.00316812 0.0141934 0)
(-0.00314226 0.0137096 0)
(-0.00311396 0.01323 0)
(-0.00308352 0.0127548 0)
(-0.00305126 0.0122845 0)
(-0.00301746 0.0118193 0)
(-0.0029824 0.0113593 0)
(-0.00294634 0.0109048 0)
(-0.00290952 0.010456 0)
(-0.00287219 0.0100128 0)
(-0.00283457 0.00957532 0)
(-0.00279686 0.00914366 0)
(-0.00275926 0.00871777 0)
(-0.00272196 0.00829764 0)
(-0.00268514 0.00788319 0)
(-0.00264896 0.00747435 0)
(-0.00261358 0.007071 0)
(-0.00257914 0.006673 0)
(-0.00254577 0.00628021 0)
(-0.00251361 0.00589244 0)
(-0.00248277 0.00550951 0)
(-0.00245335 0.0051312 0)
(-0.00242547 0.00475729 0)
(-0.0023992 0.00438753 0)
(-0.00237464 0.00402167 0)
(-0.00235187 0.00365944 0)
(-0.00233095 0.00330056 0)
(-0.00231195 0.00294475 0)
(-0.00229492 0.0025917 0)
(-0.00227991 0.00224111 0)
(-0.00226697 0.00189266 0)
(-0.00225613 0.00154603 0)
(-0.00224742 0.00120091 0)
(-0.00224087 0.000856951 0)
(-0.00223649 0.000513834 0)
(-0.00223429 0.000171222 0)
(0.0310336 -0.0256047 0)
(0.0294307 -0.0215939 0)
(0.0278675 -0.0177932 0)
(0.0263453 -0.0141973 0)
(0.0248649 -0.0108006 0)
(0.0234271 -0.00759764 0)
(0.0220323 -0.00458261 0)
(0.0206812 -0.00174979 0)
(0.0193739 0.000906618 0)
(0.0181104 0.00339244 0)
(0.0168911 0.00571352 0)
(0.0157157 0.0078757 0)
(0.0145838 0.00988478 0)
(0.0134952 0.0117465 0)
(0.0124496 0.0134667 0)
(0.0114466 0.0150509 0)
(0.0104855 0.0165049 0)
(0.00956554 0.017834 0)
(0.00868612 0.0190437 0)
(0.00784651 0.0201395 0)
(0.00704597 0.0211264 0)
(0.00628369 0.0220096 0)
(0.0055588 0.0227942 0)
(0.00487038 0.023485 0)
(0.00421746 0.0240869 0)
(0.00359908 0.0246045 0)
(0.00301424 0.0250422 0)
(0.00246196 0.0254045 0)
(0.00194124 0.0256956 0)
(0.00145106 0.0259197 0)
(0.000990425 0.0260808 0)
(0.000558312 0.0261826 0)
(0.000153713 0.026229 0)
(-0.000224382 0.0262234 0)
(-0.000576979 0.0261694 0)
(-0.000905075 0.0260703 0)
(-0.00120966 0.0259292 0)
(-0.0014917 0.0257492 0)
(-0.00175217 0.0255333 0)
(-0.00199201 0.0252841 0)
(-0.00221215 0.0250045 0)
(-0.00241351 0.024697 0)
(-0.00259698 0.0243639 0)
(-0.00276344 0.0240077 0)
(-0.00291375 0.0236305 0)
(-0.00304873 0.0232343 0)
(-0.00316922 0.0228213 0)
(-0.00327599 0.0223932 0)
(-0.00336982 0.0219518 0)
(-0.00345146 0.0214987 0)
(-0.00352163 0.0210357 0)
(-0.00358104 0.020564 0)
(-0.00363037 0.0200852 0)
(-0.00367028 0.0196004 0)
(-0.0037014 0.019111 0)
(-0.00372435 0.018618 0)
(-0.00373971 0.0181225 0)
(-0.00374805 0.0176254 0)
(-0.00374993 0.0171277 0)
(-0.00374587 0.0166301 0)
(-0.00373638 0.0161334 0)
(-0.00372193 0.0156384 0)
(-0.00370299 0.0151456 0)
(-0.00368001 0.0146555 0)
(-0.00365341 0.0141688 0)
(-0.0036236 0.0136858 0)
(-0.00359096 0.013207 0)
(-0.00355586 0.0127327 0)
(-0.00351866 0.0122632 0)
(-0.00347968 0.0117988 0)
(-0.00343925 0.0113397 0)
(-0.00339766 0.010886 0)
(-0.00335521 0.0104378 0)
(-0.00331216 0.00999541 0)
(-0.00326877 0.00955873 0)
(-0.00322528 0.00912781 0)
(-0.00318193 0.00870267 0)
(-0.00313892 0.00828326 0)
(-0.00309646 0.00786953 0)
(-0.00305474 0.0074614 0)
(-0.00301393 0.00705874 0)
(-0.00297421 0.00666144 0)
(-0.00293574 0.00626933 0)
(-0.00289865 0.00588223 0)
(-0.00286308 0.00549996 0)
(-0.00282916 0.00512231 0)
(-0.002797 0.00474905 0)
(-0.00276671 0.00437993 0)
(-0.0027384 0.0040147 0)
(-0.00271213 0.0036531 0)
(-0.00268801 0.00329484 0)
(-0.0026661 0.00293965 0)
(-0.00264646 0.00258721 0)
(-0.00262915 0.00223722 0)
(-0.00261422 0.00188938 0)
(-0.00260172 0.00154335 0)
(-0.00259168 0.00119882 0)
(-0.00258412 0.000855466 0)
(-0.00257908 0.000512944 0)
(-0.00257655 0.000170925 0)
(0.0351482 -0.025554 0)
(0.0333328 -0.0215511 0)
(0.0315624 -0.017758 0)
(0.0298384 -0.0141692 0)
(0.0281617 -0.0107792 0)
(0.0265332 -0.00758258 0)
(0.0249535 -0.00457352 0)
(0.0234233 -0.00174633 0)
(0.0219427 0.000904818 0)
(0.0205117 0.00338571 0)
(0.0191307 0.00570219 0)
(0.0177994 0.00786009 0)
(0.0165174 0.00986519 0)
(0.0152845 0.0117233 0)
(0.0141003 0.01344 0)
(0.0129642 0.0150211 0)
(0.0118757 0.0164721 0)
(0.0108338 0.0177986 0)
(0.00983778 0.019006 0)
(0.00888685 0.0200995 0)
(0.00798018 0.0210845 0)
(0.00711683 0.021966 0)
(0.00629583 0.022749 0)
(0.00551613 0.0234385 0)
(0.00477665 0.0240392 0)
(0.00407627 0.0245557 0)
(0.00341389 0.0249925 0)
(0.00278839 0.0253541 0)
(0.00219862 0.0256447 0)
(0.00164345 0.0258684 0)
(0.00112174 0.0260291 0)
(0.000632336 0.0261307 0)
(0.000174093 0.026177 0)
(-0.000254133 0.0261714 0)
(-0.00065348 0.0261175 0)
(-0.00102508 0.0260186 0)
(-0.00137004 0.0258778 0)
(-0.00168948 0.0256982 0)
(-0.00198448 0.0254826 0)
(-0.00225612 0.025234 0)
(-0.00250545 0.024955 0)
(-0.00273351 0.024648 0)
(-0.0029413 0.0243156 0)
(-0.00312984 0.0239601 0)
(-0.00330007 0.0235836 0)
(-0.00345296 0.0231883 0)
(-0.00358941 0.022776 0)
(-0.00371034 0.0223488 0)
(-0.00381661 0.0219082 0)
(-0.00390908 0.0214561 0)
(-0.00398856 0.020994 0)
(-0.00405585 0.0205232 0)
(-0.00411172 0.0200454 0)
(-0.00415691 0.0195616 0)
(-0.00419216 0.0190731 0)
(-0.00421815 0.0185811 0)
(-0.00423554 0.0180866 0)
(-0.004245 0.0175905 0)
(-0.00424713 0.0170937 0)
(-0.00424253 0.0165971 0)
(-0.00423177 0.0161015 0)
(-0.00421541 0.0156074 0)
(-0.00419396 0.0151155 0)
(-0.00416794 0.0146265 0)
(-0.00413781 0.0141407 0)
(-0.00410404 0.0136587 0)
(-0.00406708 0.0131808 0)
(-0.00402732 0.0127075 0)
(-0.00398519 0.0122389 0)
(-0.00394104 0.0117754 0)
(-0.00389525 0.0113172 0)
(-0.00384815 0.0108644 0)
(-0.00380006 0.0104171 0)
(-0.00375131 0.0099756 0)
(-0.00370217 0.00953978 0)
(-0.00365291 0.00910972 0)
(-0.00360381 0.00868542 0)
(-0.0035551 0.00826684 0)
(-0.00350701 0.00785393 0)
(-0.00345975 0.00744661 0)
(-0.00341354 0.00704475 0)
(-0.00336856 0.00664823 0)
(-0.00332498 0.0062569 0)
(-0.00328297 0.00587057 0)
(-0.00324269 0.00548906 0)
(-0.00320427 0.00511216 0)
(-0.00316785 0.00473963 0)
(-0.00313355 0.00437124 0)
(-0.00310147 0.00400674 0)
(-0.00307173 0.00364586 0)
(-0.0030444 0.00328831 0)
(-0.00301958 0.00293382 0)
(-0.00299734 0.00258208 0)
(-0.00297774 0.00223279 0)
(-0.00296084 0.00188563 0)
(-0.00294668 0.00154029 0)
(-0.0029353 0.00119645 0)
(-0.00292675 0.00085377 0)
(-0.00292103 0.000511927 0)
(-0.00291816 0.000170587 0)
(0.0392542 -0.0254969 0)
(0.0372267 -0.021503 0)
(0.0352495 -0.0177183 0)
(0.0333241 -0.0141375 0)
(0.0314515 -0.0107552 0)
(0.0296328 -0.00756565 0)
(0.0278686 -0.00456331 0)
(0.0261596 -0.00174243 0)
(0.024506 0.000902796 0)
(0.0229078 0.00337815 0)
(0.0213655 0.00568946 0)
(0.0198787 0.00784254 0)
(0.018447 0.00984317 0)
(0.01707 0.0116971 0)
(0.0157474 0.01341 0)
(0.0144787 0.0149876 0)
(0.013263 0.0164354 0)
(0.0120994 0.0177589 0)
(0.010987 0.0189635 0)
(0.00992501 0.0200546 0)
(0.00891242 0.0210374 0)
(0.00794822 0.0219169 0)
(0.00703131 0.0226982 0)
(0.00616053 0.0233861 0)
(0.00533465 0.0239855 0)
(0.00455246 0.0245008 0)
(0.0038127 0.0249367 0)
(0.00311412 0.0252975 0)
(0.00245546 0.0255874 0)
(0.00183544 0.0258106 0)
(0.00125278 0.025971 0)
(0.000706204 0.0260724 0)
(0.000194429 0.0261185 0)
(-0.000283821 0.026113 0)
(-0.000729819 0.0260592 0)
(-0.00114483 0.0259605 0)
(-0.00153009 0.02582 0)
(-0.00188684 0.0256408 0)
(-0.00221631 0.0254257 0)
(-0.00251968 0.0251777 0)
(-0.00279813 0.0248992 0)
(-0.00305283 0.024593 0)
(-0.0032849 0.0242613 0)
(-0.00349546 0.0239066 0)
(-0.00368558 0.023531 0)
(-0.00385633 0.0231365 0)
(-0.00400873 0.0227252 0)
(-0.00414378 0.0222988 0)
(-0.00426247 0.0218593 0)
(-0.00436573 0.0214082 0)
(-0.0044545 0.0209471 0)
(-0.00452964 0.0204774 0)
(-0.00459204 0.0200006 0)
(-0.00464252 0.0195179 0)
(-0.00468188 0.0190305 0)
(-0.0047109 0.0185396 0)
(-0.00473034 0.0180462 0)
(-0.00474089 0.0175512 0)
(-0.00474327 0.0170555 0)
(-0.00473814 0.0165601 0)
(-0.00472613 0.0160655 0)
(-0.00470785 0.0155725 0)
(-0.0046839 0.0150818 0)
(-0.00465483 0.0145938 0)
(-0.00462118 0.0141091 0)
(-0.00458347 0.0136282 0)
(-0.00454219 0.0131514 0)
(-0.00449779 0.0126791 0)
(-0.00445073 0.0122116 0)
(-0.00440143 0.0117491 0)
(-0.00435028 0.0112919 0)
(-0.00429768 0.0108401 0)
(-0.00424398 0.0103939 0)
(-0.00418953 0.00995332 0)
(-0.00413465 0.00951847 0)
(-0.00407964 0.00908937 0)
(-0.0040248 0.00866602 0)
(-0.0039704 0.00824838 0)
(-0.00391669 0.00783639 0)
(-0.00386392 0.00742998 0)
(-0.00381231 0.00702902 0)
(-0.00376207 0.00663338 0)
(-0.0037134 0.00624292 0)
(-0.00366648 0.00585746 0)
(-0.00362149 0.0054768 0)
(-0.00357859 0.00510074 0)
(-0.00353791 0.00472905 0)
(-0.0034996 0.00436148 0)
(-0.00346378 0.0039978 0)
(-0.00343056 0.00363772 0)
(-0.00340005 0.00328097 0)
(-0.00337233 0.00292727 0)
(-0.00334749 0.00257631 0)
(-0.0033256 0.0022278 0)
(-0.00330672 0.00188142 0)
(-0.00329091 0.00153685 0)
(-0.0032782 0.00119378 0)
(-0.00326865 0.000851863 0)
(-0.00326226 0.000510784 0)
(-0.00325906 0.000170206 0)
(0.0433505 -0.0254336 0)
(0.0411114 -0.0214496 0)
(0.0389279 -0.0176743 0)
(0.0368015 -0.0141024 0)
(0.0347335 -0.0107284 0)
(0.0327251 -0.00754685 0)
(0.0307767 -0.00455198 0)
(0.0288894 -0.0017381 0)
(0.0270633 0.000900553 0)
(0.0252983 0.00336976 0)
(0.0235951 0.00567532 0)
(0.0219531 0.00782305 0)
(0.020372 0.00981871 0)
(0.0188513 0.011668 0)
(0.0173907 0.0133767 0)
(0.0159896 0.0149503 0)
(0.014647 0.0163945 0)
(0.013362 0.0177148 0)
(0.0121335 0.0189164 0)
(0.0109607 0.0200048 0)
(0.00984246 0.0209851 0)
(0.00877765 0.0218625 0)
(0.00776506 0.0226418 0)
(0.0068034 0.023328 0)
(0.00589134 0.0239259 0)
(0.00502752 0.02444 0)
(0.00421057 0.0248748 0)
(0.00343909 0.0252347 0)
(0.00271169 0.0255239 0)
(0.00202697 0.0257465 0)
(0.00138351 0.0259064 0)
(0.000779897 0.0260076 0)
(0.000214718 0.0260536 0)
(-0.00031344 0.0260481 0)
(-0.000805978 0.0259945 0)
(-0.00126429 0.025896 0)
(-0.00168976 0.0257558 0)
(-0.00208374 0.0255771 0)
(-0.00244759 0.0253626 0)
(-0.00278261 0.0251151 0)
(-0.00309013 0.0248374 0)
(-0.0033714 0.0245319 0)
(-0.00362769 0.0242011 0)
(-0.00386022 0.0238472 0)
(-0.00407018 0.0234725 0)
(-0.00425875 0.023079 0)
(-0.00442705 0.0226687 0)
(-0.0045762 0.0222434 0)
(-0.00470727 0.021805 0)
(-0.00482131 0.021355 0)
(-0.00491934 0.020895 0)
(-0.00500233 0.0204265 0)
(-0.00507124 0.0199509 0)
(-0.00512698 0.0194694 0)
(-0.00517045 0.0189832 0)
(-0.0052025 0.0184935 0)
(-0.00522396 0.0180013 0)
(-0.00523562 0.0175076 0)
(-0.00523825 0.0170132 0)
(-0.00523258 0.0165189 0)
(-0.00521931 0.0160256 0)
(-0.00519913 0.0155338 0)
(-0.00517268 0.0150443 0)
(-0.00514058 0.0145576 0)
(-0.00510342 0.0140741 0)
(-0.00506177 0.0135943 0)
(-0.00501618 0.0131187 0)
(-0.00496715 0.0126476 0)
(-0.00491518 0.0121812 0)
(-0.00486073 0.0117199 0)
(-0.00480425 0.0112638 0)
(-0.00474616 0.0108132 0)
(-0.00468686 0.0103681 0)
(-0.00462672 0.00992859 0)
(-0.00456611 0.00949482 0)
(-0.00450537 0.00906679 0)
(-0.0044448 0.00864449 0)
(-0.00438472 0.00822788 0)
(-0.00432541 0.00781692 0)
(-0.00426713 0.00741151 0)
(-0.00421013 0.00701155 0)
(-0.00415465 0.0066169 0)
(-0.0041009 0.00622741 0)
(-0.00404909 0.00584291 0)
(-0.00399941 0.00546319 0)
(-0.00395202 0.00508806 0)
(-0.0039071 0.0047173 0)
(-0.0038648 0.00435065 0)
(-0.00382524 0.00398786 0)
(-0.00378855 0.00362868 0)
(-0.00375485 0.00327282 0)
(-0.00372424 0.00291999 0)
(-0.00369681 0.00256991 0)
(-0.00367263 0.00222226 0)
(-0.00365178 0.00187674 0)
(-0.00363432 0.00153303 0)
(-0.00362029 0.00119081 0)
(-0.00360974 0.000849747 0)
(-0.00360269 0.000509515 0)
(-0.00359915 0.000169783 0)
(0.0474361 -0.0253639 0)
(0.044986 -0.0213908 0)
(0.0425967 -0.0176259 0)
(0.0402699 -0.0140638 0)
(0.038007 -0.0106991 0)
(0.0358093 -0.00752619 0)
(0.0336773 -0.00453951 0)
(0.0316121 -0.00173334 0)
(0.0296138 0.00089809 0)
(0.0276826 0.00336054 0)
(0.0258188 0.00565979 0)
(0.0240221 0.00780164 0)
(0.0222919 0.00979183 0)
(0.020628 0.0116361 0)
(0.0190298 0.0133401 0)
(0.0174966 0.0149094 0)
(0.0160274 0.0163496 0)
(0.0146213 0.0176663 0)
(0.0132771 0.0188646 0)