/*--------------------------------*- C++ -*----------------------------------*\
| =========                 |                                                 |
| \\      /  F ield         | OpenFOAM: The Open Source CFD Toolbox           |
|  \\    /   O peration     | Version:  2406                                  |
|   \\  /    A nd           | Website:  www.openfoam.com                      |
|    \\/     M anipulation  |                                                 |
\*---------------------------------------------------------------------------*/
FoamFile
{
    version     2.0;
    format      ascii;
    arch        "LSB;label=32;scalar=64";
    class       volVectorField;
    location    "150";
    object      flux;
}
// * * * * * * * * * * * * * * * * * * * * * * * * * * * * * * * * * * * * * //

dimensions      [0 1 -1 1 0 0 0];

internalField   nonuniform List<vector> 
20000
(
(0.00243339 -0.0562852 0)
(0.00233962 -0.0515129 0)
(0.00224685 -0.0469273 0)
(0.00215522 -0.042526 0)
(0.00206478 -0.038307 0)
(0.00197567 -0.0342675 0)
(0.0018881 -0.0304047 0)
(0.00180222 -0.0267154 0)
(0.00171789 -0.0231964 0)
(0.00163525 -0.0198443 0)
(0.00155456 -0.0166557 0)
(0.00147578 -0.0136265 0)
(0.00139887 -0.0107529 0)
(0.00132391 -0.00803135 0)
(0.00125097 -0.00545766 0)
(0.00118011 -0.00302775 0)
(0.00111133 -0.000737473 0)
(0.00104461 0.0014173 0)
(0.000979964 0.00344071 0)
(0.000917397 0.00533691 0)
(0.000856917 0.00711007 0)
(0.00079852 0.00876436 0)
(0.000742198 0.010304 0)
(0.000687932 0.011733 0)
(0.0006357 0.0130555 0)
(0.000585476 0.0142756 0)
(0.000537234 0.0153973 0)
(0.000490945 0.0164244 0)
(0.000446577 0.0173609 0)
(0.000404096 0.0182106 0)
(0.000363466 0.0189772 0)
(0.00032465 0.0196644 0)
(0.000287608 0.0202757 0)
(0.0002523 0.0208148 0)
(0.000218683 0.0212849 0)
(0.000186713 0.0216894 0)
(0.000156347 0.0220317 0)
(0.000127539 0.0223148 0)
(0.000100244 0.0225418 0)
(7.44159e-05 0.0227157 0)
(5.00085e-05 0.0228394 0)
(2.69755e-05 0.0229157 0)
(5.27029e-06 0.0229473 0)
(-1.51534e-05 0.0229368 0)
(-3.43417e-05 0.0228867 0)
(-5.23405e-05 0.0227995 0)
(-6.91955e-05 0.0226774 0)
(-8.49517e-05 0.0225227 0)
(-9.96538e-05 0.0223376 0)
(-0.000113346 0.0221241 0)
(-0.000126071 0.0218842 0)
(-0.000137872 0.0216199 0)
(-0.000148792 0.0213328 0)
(-0.00015887 0.0210247 0)
(-0.000168148 0.0206973 0)
(-0.000176666 0.0203522 0)
(-0.000184461 0.0199907 0)
(-0.000191572 0.0196144 0)
(-0.000198035 0.0192245 0)
(-0.000203887 0.0188223 0)
(-0.000209162 0.018409 0)
(-0.000213894 0.0179857 0)
(-0.000218116 0.0175535 0)
(-0.000221861 0.0171133 0)
(-0.000225159 0.0166661 0)
(-0.00022804 0.0162127 0)
(-0.000230533 0.015754 0)
(-0.000232666 0.0152906 0)
(-0.000234466 0.0148234 0)
(-0.00023596 0.0143528 0)
(-0.000237171 0.0138796 0)
(-0.000238126 0.0134042 0)
(-0.000238845 0.0129271 0)
(-0.000239352 0.0124489 0)
(-0.000239668 0.0119698 0)
(-0.000239813 0.0114903 0)
(-0.000239807 0.0110106 0)
(-0.000239668 0.0105311 0)
(-0.000239413 0.010052 0)
(-0.000239059 0.0095735 0)
(-0.000238623 0.00909581 0)
(-0.000238119 0.00861906 0)
(-0.000237561 0.00814339 0)
(-0.000236962 0.00766888 0)
(-0.000236336 0.0071956 0)
(-0.000235693 0.0067236 0)
(-0.000235045 0.00625289 0)
(-0.000234401 0.00578347 0)
(-0.000233772 0.00531534 0)
(-0.000233166 0.00484844 0)
(-0.000232589 0.00438273 0)
(-0.000232051 0.00391814 0)
(-0.000231556 0.00345459 0)
(-0.000231111 0.00299197 0)
(-0.000230721 0.0025302 0)
(-0.000230389 0.00206915 0)
(-0.000230119 0.0016087 0)
(-0.000229915 0.00114873 0)
(-0.000229777 0.000689099 0)
(-0.000229708 0.000229676 0)
(0.00729959 -0.0562713 0)
(0.00701832 -0.0515001 0)
(0.00674 -0.0469156 0)
(0.00646506 -0.0425155 0)
(0.0061938 -0.0382976 0)
(0.00592666 -0.0342591 0)
(0.00566393 -0.0303971 0)
(0.00540609 -0.0267088 0)
(0.00515318 -0.0231907 0)
(0.00490543 -0.0198395 0)
(0.00466334 -0.0166515 0)
(0.00442694 -0.013623 0)
(0.00419623 -0.0107503 0)
(0.00397138 -0.0080294 0)
(0.00375263 -0.00545633 0)
(0.00354007 -0.003027 0)
(0.00333372 -0.000737274 0)
(0.00313357 0.00141697 0)
(0.00293964 0.00343987 0)
(0.00275196 0.00533559 0)
(0.00257054 0.0071083 0)
(0.00239537 0.00876219 0)
(0.00222641 0.0103014 0)
(0.00206363 0.0117301 0)
(0.00190694 0.0130523 0)
(0.00175628 0.0142721 0)
(0.00161157 0.0153935 0)
(0.00147271 0.0164204 0)
(0.00133962 0.0173567 0)
(0.00121219 0.0182061 0)
(0.00109031 0.0189725 0)
(0.000973869 0.0196595 0)
(0.000862754 0.0202707 0)
(0.000756837 0.0208096 0)
(0.000655994 0.0212796 0)
(0.000560093 0.0216841 0)
(0.000469001 0.0220262 0)
(0.000382585 0.0223093 0)
(0.000300707 0.0225362 0)
(0.000223229 0.0227101 0)
(0.000150013 0.0228338 0)
(8.09198e-05 0.0229101 0)
(1.58096e-05 0.0229417 0)
(-4.54564e-05 0.0229312 0)
(-0.000103017 0.0228811 0)
(-0.000157009 0.0227938 0)
(-0.00020757 0.0226718 0)
(-0.000254834 0.0225171 0)
(-0.000298937 0.0223321 0)
(-0.000340009 0.0221187 0)
(-0.000378182 0.0218788 0)
(-0.000413583 0.0216145 0)
(-0.000446338 0.0213275 0)
(-0.000476571 0.0210195 0)
(-0.000504404 0.0206922 0)
(-0.000529954 0.0203472 0)
(-0.000553337 0.0199858 0)
(-0.000574668 0.0196095 0)
(-0.000594057 0.0192197 0)
(-0.00061161 0.0188176 0)
(-0.000627434 0.0184044 0)
(-0.000641629 0.0179813 0)
(-0.000654295 0.0175491 0)
(-0.000665528 0.0171091 0)
(-0.00067542 0.016662 0)
(-0.000684062 0.0162087 0)
(-0.000691541 0.0157501 0)
(-0.00069794 0.0152869 0)
(-0.000703341 0.0148197 0)
(-0.000707821 0.0143493 0)
(-0.000711456 0.0138762 0)
(-0.000714318 0.0134009 0)
(-0.000716476 0.012924 0)
(-0.000717998 0.0124458 0)
(-0.000718946 0.0119668 0)
(-0.000719381 0.0114874 0)
(-0.000719362 0.0110079 0)
(-0.000718944 0.0105285 0)
(-0.00071818 0.0100495 0)
(-0.000717119 0.00957114 0)
(-0.00071581 0.00909356 0)
(-0.000714298 0.00861694 0)
(-0.000712624 0.00814138 0)
(-0.000710828 0.00766699 0)
(-0.000708949 0.00719383 0)
(-0.000707021 0.00672194 0)
(-0.000705077 0.00625134 0)
(-0.000703147 0.00578205 0)
(-0.000701259 0.00531403 0)
(-0.000699439 0.00484725 0)
(-0.000697711 0.00438165 0)
(-0.000696095 0.00391718 0)
(-0.000694612 0.00345374 0)
(-0.000693277 0.00299124 0)
(-0.000692105 0.00252958 0)
(-0.00069111 0.00206864 0)
(-0.000690301 0.0016083 0)
(-0.000689687 0.00114844 0)
(-0.000689275 0.000688929 0)
(-0.000689067 0.00022962 0)
(0.0121641 -0.0562436 0)
(0.0116953 -0.0514747 0)
(0.0112314 -0.0468924 0)
(0.0107733 -0.0424945 0)
(0.0103213 -0.0382786 0)
(0.00987617 -0.0342421 0)
(0.00943837 -0.0303821 0)
(0.0090086 -0.0266956 0)
(0.00858719 -0.0231793 0)
(0.00817446 -0.0198297 0)
(0.007771 -0.0166433 0)
(0.00737699 -0.0136163 0)
(0.00699251 -0.010745 0)
(0.00661788 -0.00802546 0)
(0.00625338 -0.00545365 0)
(0.00589917 -0.00302549 0)
(0.00555529 -0.000736893 0)
(0.00522175 0.00141628 0)
(0.00489859 0.00343817 0)
(0.00458584 0.00533295 0)
(0.00428352 0.00710479 0)
(0.00399162 0.00875786 0)
(0.00371008 0.0102963 0)
(0.00343882 0.0117243 0)
(0.00317772 0.0130459 0)
(0.00292666 0.0142651 0)
(0.00268551 0.0153859 0)
(0.00245412 0.0164123 0)
(0.00223233 0.0173481 0)
(0.00201998 0.0181971 0)
(0.00181688 0.0189632 0)
(0.00162285 0.0196498 0)
(0.00143769 0.0202607 0)
(0.00126119 0.0207993 0)
(0.00109314 0.0212691 0)
(0.000933334 0.0216734 0)
(0.000781541 0.0220154 0)
(0.000637537 0.0222983 0)
(0.000501096 0.0225251 0)
(0.000371988 0.0226989 0)
(0.000249981 0.0228225 0)
(0.000134844 0.0228988 0)
(2.63449e-05 0.0229304 0)
(-7.57482e-05 0.0229199 0)
(-0.000171666 0.0228698 0)
(-0.000261638 0.0227826 0)
(-0.000345892 0.0226606 0)
(-0.000424654 0.022506 0)
(-0.000498146 0.0223211 0)
(-0.000566589 0.0221077 0)
(-0.0006302 0.021868 0)
(-0.000689191 0.0216039 0)
(-0.000743775 0.021317 0)
(-0.000794155 0.0210092 0)
(-0.000840534 0.020682 0)
(-0.000883111 0.0203371 0)
(-0.000922077 0.0199759 0)
(-0.000957623 0.0195999 0)
(-0.000989932 0.0192103 0)
(-0.00101918 0.0188084 0)
(-0.00104555 0.0183954 0)
(-0.00106921 0.0179724 0)
(-0.00109031 0.0175405 0)
(-0.00110903 0.0171006 0)
(-0.00112552 0.0166537 0)
(-0.00113992 0.0162007 0)
(-0.00115238 0.0157423 0)
(-0.00116304 0.0152793 0)
(-0.00117204 0.0148124 0)
(-0.00117951 0.0143422 0)
(-0.00118556 0.0138693 0)
(-0.00119033 0.0133943 0)
(-0.00119393 0.0129176 0)
(-0.00119647 0.0124397 0)
(-0.00119805 0.0119609 0)
(-0.00119877 0.0114818 0)
(-0.00119874 0.0110024 0)
(-0.00119804 0.0105233 0)
(-0.00119677 0.0100445 0)
(-0.001195 0.00956641 0)
(-0.00119282 0.00908908 0)
(-0.0011903 0.00861269 0)
(-0.00118751 0.00813736 0)
(-0.00118452 0.0076632 0)
(-0.00118139 0.00719028 0)
(-0.00117817 0.00671862 0)
(-0.00117493 0.00624826 0)
(-0.00117172 0.00577919 0)
(-0.00116857 0.0053114 0)
(-0.00116554 0.00484485 0)
(-0.00116266 0.00437949 0)
(-0.00115997 0.00391524 0)
(-0.0011575 0.00345203 0)
(-0.00115527 0.00298976 0)
(-0.00115332 0.00252833 0)
(-0.00115166 0.00206762 0)
(-0.00115031 0.00160751 0)
(-0.00114929 0.00114788 0)
(-0.0011486 0.000688589 0)
(-0.00114826 0.000229506 0)
(0.0170255 -0.056202 0)
(0.0163695 -0.0514368 0)
(0.0157202 -0.0468577 0)
(0.0150789 -0.0424631 0)
(0.0144462 -0.0382503 0)
(0.0138232 -0.0342168 0)
(0.0132105 -0.0303597 0)
(0.0126089 -0.0266759 0)
(0.0120191 -0.0231621 0)
(0.0114415 -0.019815 0)
(0.0108767 -0.0166309 0)
(0.0103252 -0.0136062 0)
(0.00978707 -0.0107371 0)
(0.00926275 -0.00801953 0)
(0.0087526 -0.00544961 0)
(0.00825683 -0.00302324 0)
(0.00777549 -0.000736337 0)
(0.00730864 0.00141523 0)
(0.00685631 0.00343562 0)
(0.00641858 0.00532899 0)
(0.00599545 0.00709952 0)
(0.0055869 0.00875137 0)
(0.00519284 0.0102887 0)
(0.00481316 0.0117156 0)
(0.00444771 0.0130362 0)
(0.00409631 0.0142545 0)
(0.00375879 0.0153745 0)
(0.00343492 0.0164001 0)
(0.00312449 0.0173352 0)
(0.00282727 0.0181837 0)
(0.002543 0.0189491 0)
(0.00227143 0.0196353 0)
(0.00201226 0.0202457 0)
(0.00176523 0.0207839 0)
(0.00153002 0.0212534 0)
(0.00130635 0.0216573 0)
(0.00109389 0.0219991 0)
(0.000892331 0.0222817 0)
(0.000701361 0.0225084 0)
(0.000520654 0.0226821 0)
(0.000349887 0.0228056 0)
(0.000188735 0.0228818 0)
(3.68738e-05 0.0229134 0)
(-0.000106021 0.0229029 0)
(-0.000240273 0.0228529 0)
(-0.000366203 0.0227657 0)
(-0.00048413 0.0226438 0)
(-0.000594369 0.0224894 0)
(-0.000697232 0.0223045 0)
(-0.000793029 0.0220914 0)
(-0.000882062 0.0218518 0)
(-0.00096463 0.0215879 0)
(-0.00104103 0.0213012 0)
(-0.00111154 0.0209936 0)
(-0.00117646 0.0206667 0)
(-0.00123605 0.0203221 0)
(-0.00129059 0.0199611 0)
(-0.00134034 0.0195854 0)
(-0.00138556 0.019196 0)
(-0.0014265 0.0187944 0)
(-0.00146341 0.0183817 0)
(-0.00149652 0.0179591 0)
(-0.00152606 0.0175275 0)
(-0.00155226 0.017088 0)
(-0.00157533 0.0166414 0)
(-0.00159549 0.0161887 0)
(-0.00161293 0.0157307 0)
(-0.00162786 0.015268 0)
(-0.00164045 0.0148014 0)
(-0.0016509 0.0143316 0)
(-0.00165938 0.013859 0)
(-0.00166606 0.0133844 0)
(-0.00167109 0.012908 0)
(-0.00167464 0.0124304 0)
(-0.00167685 0.0119521 0)
(-0.00167787 0.0114733 0)
(-0.00167782 0.0109943 0)
(-0.00167685 0.0105155 0)
(-0.00167506 0.0100371 0)
(-0.00167259 0.00955933 0)
(-0.00166954 0.00908234 0)
(-0.00166601 0.00860631 0)
(-0.0016621 0.00813134 0)
(-0.00165792 0.00765753 0)
(-0.00165353 0.00718495 0)
(-0.00164904 0.00671364 0)
(-0.0016445 0.00624363 0)
(-0.00164 0.00577491 0)
(-0.0016356 0.00530747 0)
(-0.00163135 0.00484127 0)
(-0.00162732 0.00437625 0)
(-0.00162355 0.00391234 0)
(-0.00162009 0.00344947 0)
(-0.00161698 0.00298755 0)
(-0.00161425 0.00252645 0)
(-0.00161193 0.00206609 0)
(-0.00161004 0.00160632 0)
(-0.00160861 0.00114703 0)
(-0.00160765 0.000688079 0)
(-0.00160716 0.000229336 0)
(0.0218826 -0.0561463 0)
(0.0210396 -0.0513859 0)
(0.0202051 -0.0468115 0)
(0.0193807 -0.0424211 0)
(0.0185676 -0.0382125 0)
(0.0177668 -0.034183 0)
(0.0169793 -0.0303297 0)
(0.0162061 -0.0266495 0)
(0.0154481 -0.0231392 0)
(0.0147056 -0.0197954 0)
(0.0139798 -0.0166145 0)
(0.0132709 -0.0135928 0)
(0.0125792 -0.0107265 0)
(0.0119053 -0.00801161 0)
(0.0112497 -0.00544422 0)
(0.0106124 -0.00302025 0)
(0.00999377 -0.000735605 0)
(0.00939371 0.00141384 0)
(0.00881234 0.00343222 0)
(0.00824973 0.00532372 0)
(0.00770589 0.0070925 0)
(0.00718079 0.00874272 0)
(0.00667432 0.0102785 0)
(0.00618632 0.011704 0)
(0.00571661 0.0130233 0)
(0.00526496 0.0142404 0)
(0.00483113 0.0153593 0)
(0.00441487 0.0163839 0)
(0.00401588 0.0173181 0)
(0.00363387 0.0181657 0)
(0.0032685 0.0189304 0)
(0.00291944 0.0196159 0)
(0.00258634 0.0202257 0)
(0.00226883 0.0207634 0)
(0.00196652 0.0212324 0)
(0.00167903 0.0216359 0)
(0.00140596 0.0219773 0)
(0.00114691 0.0222597 0)
(0.000901453 0.0224862 0)
(0.000669192 0.0226597 0)
(0.000449707 0.0227831 0)
(0.00024258 0.0228592 0)
(4.73935e-05 0.0228907 0)
(-0.000136268 0.0228803 0)
(-0.000308821 0.0228303 0)
(-0.000470678 0.0227432 0)
(-0.000622248 0.0226214 0)
(-0.000763937 0.0224672 0)
(-0.000896147 0.0222825 0)
(-0.00101927 0.0220695 0)
(-0.00113371 0.0218303 0)
(-0.00123983 0.0215665 0)
(-0.00133802 0.0212802 0)
(-0.00142866 0.0209729 0)
(-0.00151209 0.0206463 0)
(-0.00158868 0.020302 0)
(-0.00165878 0.0199414 0)
(-0.00172273 0.019566 0)
(-0.00178085 0.0191771 0)
(-0.00183347 0.0187759 0)
(-0.00188091 0.0183636 0)
(-0.00192346 0.0179413 0)
(-0.00196143 0.0175102 0)
(-0.00199511 0.0170711 0)
(-0.00202476 0.016625 0)
(-0.00205067 0.0161727 0)
(-0.00207309 0.0157151 0)
(-0.00209227 0.0152529 0)
(-0.00210846 0.0147868 0)
(-0.00212189 0.0143174 0)
(-0.00213279 0.0138454 0)
(-0.00214137 0.0133711 0)
(-0.00214784 0.0128953 0)
(-0.0021524 0.0124182 0)
(-0.00215524 0.0119403 0)
(-0.00215655 0.0114619 0)
(-0.00215649 0.0109834 0)
(-0.00215524 0.0105051 0)
(-0.00215294 0.0100272 0)
(-0.00214977 0.00954989 0)
(-0.00214584 0.00907337 0)
(-0.00214131 0.00859781 0)
(-0.00213629 0.00812331 0)
(-0.00213091 0.00764997 0)
(-0.00212527 0.00717785 0)
(-0.00211949 0.00670701 0)
(-0.00211366 0.00623746 0)
(-0.00210788 0.00576921 0)
(-0.00210222 0.00530223 0)
(-0.00209676 0.00483648 0)
(-0.00209158 0.00437192 0)
(-0.00208674 0.00390848 0)
(-0.00208229 0.00344607 0)
(-0.00207829 0.0029846 0)
(-0.00207478 0.00252396 0)
(-0.0020718 0.00206405 0)
(-0.00206937 0.00160473 0)
(-0.00206753 0.00114589 0)
(-0.00206629 0.000687399 0)
(-0.00206567 0.00022911 0)
(0.0267343 -0.0560769 0)
(0.0257044 -0.0513224 0)
(0.024685 -0.0467536 0)
(0.0236778 -0.0423687 0)
(0.0226844 -0.0381653 0)
(0.021706 -0.0341407 0)
(0.0207439 -0.0302922 0)
(0.0197994 -0.0266166 0)
(0.0188732 -0.0231106 0)
(0.0179662 -0.019771 0)
(0.0170793 -0.016594 0)
(0.0162132 -0.013576 0)
(0.0153683 -0.0107132 0)
(0.014545 -0.0080017 0)
(0.013744 -0.00543748 0)
(0.0129654 -0.00301651 0)
(0.0122096 -0.000734693 0)
(0.0114765 0.00141209 0)
(0.0107662 0.00342798 0)
(0.0100789 0.00531714 0)
(0.00941444 0.00708373 0)
(0.00877292 0.00873191 0)
(0.00815415 0.0102658 0)
(0.00755795 0.0116896 0)
(0.00698409 0.0130072 0)
(0.00643231 0.0142228 0)
(0.00590229 0.0153403 0)
(0.00539373 0.0163637 0)
(0.00490628 0.0172967 0)
(0.00443956 0.0181433 0)
(0.00399319 0.018907 0)
(0.00356674 0.0195917 0)
(0.00315979 0.0202007 0)
(0.00277187 0.0207378 0)
(0.00240254 0.0212061 0)
(0.00205131 0.0216092 0)
(0.00171769 0.0219502 0)
(0.0014012 0.0222322 0)
(0.00110132 0.0224584 0)
(0.000817565 0.0226317 0)
(0.000549415 0.022755 0)
(0.000296364 0.022831 0)
(5.79016e-05 0.0228625 0)
(-0.000166482 0.022852 0)
(-0.000377293 0.0228021 0)
(-0.000575036 0.0227151 0)
(-0.000760212 0.0225935 0)
(-0.000933317 0.0224394 0)
(-0.00109484 0.022255 0)
(-0.00124527 0.0220423 0)
(-0.00138507 0.0218033 0)
(-0.00151473 0.0215399 0)
(-0.00163469 0.0212539 0)
(-0.00174542 0.020947 0)
(-0.00184735 0.0206208 0)
(-0.00194093 0.0202769 0)
(-0.00202657 0.0199168 0)
(-0.00210469 0.0195418 0)
(-0.0021757 0.0191534 0)
(-0.00223999 0.0187527 0)
(-0.00229794 0.0183409 0)
(-0.00234993 0.0179192 0)
(-0.00239632 0.0174885 0)
(-0.00243746 0.01705 0)
(-0.00247369 0.0166044 0)
(-0.00250534 0.0161527 0)
(-0.00253273 0.0156957 0)
(-0.00255617 0.0152341 0)
(-0.00257595 0.0147685 0)
(-0.00259236 0.0142997 0)
(-0.00260567 0.0138282 0)
(-0.00261615 0.0133546 0)
(-0.00262406 0.0128793 0)
(-0.00262963 0.0124028 0)
(-0.0026331 0.0119255 0)
(-0.00263469 0.0114478 0)
(-0.00263462 0.0109699 0)
(-0.00263309 0.0104921 0)
(-0.00263029 0.0100148 0)
(-0.00262641 0.00953809 0)
(-0.00262162 0.00906216 0)
(-0.00261608 0.00858718 0)
(-0.00260995 0.00811327 0)
(-0.00260337 0.00764051 0)
(-0.00259649 0.00716898 0)
(-0.00258943 0.00669873 0)
(-0.00258231 0.00622976 0)
(-0.00257524 0.00576208 0)
(-0.00256832 0.00529568 0)
(-0.00256166 0.00483051 0)
(-0.00255533 0.00436652 0)
(-0.00254941 0.00390365 0)
(-0.00254398 0.00344181 0)
(-0.00253909 0.00298091 0)
(-0.0025348 0.00252084 0)
(-0.00253115 0.00206149 0)
(-0.00252819 0.00160275 0)
(-0.00252594 0.00114448 0)
(-0.00252443 0.00068655 0)
(-0.00252367 0.000228827 0)
(0.0315794 -0.0559938 0)
(0.0303629 -0.0512462 0)
(0.0291588 -0.0466843 0)
(0.0279691 -0.0423059 0)
(0.0267956 -0.0381087 0)
(0.0256399 -0.0340901 0)
(0.0245035 -0.0302472 0)
(0.0233877 -0.0265771 0)
(0.0222937 -0.0230763 0)
(0.0212222 -0.0197416 0)
(0.0201747 -0.0165694 0)
(0.0191516 -0.0135559 0)
(0.0181535 -0.0106973 0)
(0.0171811 -0.00798982 0)
(0.0162349 -0.00542941 0)
(0.0153152 -0.00301203 0)
(0.0144224 -0.000733602 0)
(0.0135564 0.00140999 0)
(0.0127174 0.00342289 0)
(0.0119055 0.00530925 0)
(0.0111207 0.00707322 0)
(0.0103629 0.00871895 0)
(0.00963197 0.0102506 0)
(0.00892772 0.0116722 0)
(0.00824986 0.0129879 0)
(0.00759806 0.0142017 0)
(0.00697199 0.0153176 0)
(0.00637126 0.0163394 0)
(0.00579547 0.0172711 0)
(0.00524417 0.0181163 0)
(0.00471689 0.018879 0)
(0.00421316 0.0195626 0)
(0.00373245 0.0201708 0)
(0.00327423 0.020707 0)
(0.00283796 0.0211747 0)
(0.00242308 0.0215771 0)
(0.002029 0.0219176 0)
(0.00165514 0.0221993 0)
(0.00130092 0.0224251 0)
(0.000965736 0.0225981 0)
(0.000648988 0.0227212 0)
(0.000350075 0.0227971 0)
(6.83952e-05 0.0228285 0)
(-0.000196654 0.0228181 0)
(-0.000445671 0.0227682 0)
(-0.000679253 0.0226814 0)
(-0.000897989 0.02256 0)
(-0.00110247 0.0224061 0)
(-0.00129326 0.022222 0)
(-0.00147095 0.0220096 0)
(-0.00163609 0.0217709 0)
(-0.00178925 0.0215079 0)
(-0.00193095 0.0212223 0)
(-0.00206175 0.0209159 0)
(-0.00218216 0.0205902 0)
(-0.00229269 0.0202468 0)
(-0.00239385 0.0198872 0)
(-0.00248614 0.0195128 0)
(-0.00257001 0.019125 0)
(-0.00264595 0.0187248 0)
(-0.00271441 0.0183137 0)
(-0.00277582 0.0178926 0)
(-0.00283062 0.0174626 0)
(-0.00287921 0.0170247 0)
(-0.00292201 0.0165798 0)
(-0.0029594 0.0161288 0)
(-0.00299175 0.0156724 0)
(-0.00301943 0.0152115 0)
(-0.0030428 0.0147466 0)
(-0.00306218 0.0142785 0)
(-0.00307791 0.0138077 0)
(-0.00309029 0.0133348 0)
(-0.00309963 0.0128602 0)
(-0.00310621 0.0123844 0)
(-0.00311031 0.0119078 0)
(-0.00311219 0.0114308 0)
(-0.00311211 0.0109536 0)
(-0.0031103 0.0104766 0)
(-0.003107 0.00999995 0)
(-0.00310241 0.00952393 0)
(-0.00309674 0.00904872 0)
(-0.0030902 0.00857444 0)
(-0.00308296 0.00810123 0)
(-0.00307519 0.00762918 0)
(-0.00306706 0.00715835 0)
(-0.00305872 0.00668879 0)
(-0.00305031 0.00622051 0)
(-0.00304196 0.00575353 0)
(-0.00303379 0.00528782 0)
(-0.00302592 0.00482334 0)
(-0.00301844 0.00436004 0)
(-0.00301145 0.00389786 0)
(-0.00300504 0.0034367 0)
(-0.00299926 0.00297648 0)
(-0.00299419 0.0025171 0)
(-0.00298989 0.00205844 0)
(-0.00298639 0.00160037 0)
(-0.00298373 0.00114278 0)
(-0.00298195 0.000685531 0)
(-0.00298105 0.000228487 0)
(0.0364168 -0.0558968 0)
(0.0350139 -0.0511574 0)
(0.0336253 -0.0466034 0)
(0.0322534 -0.0422326 0)
(0.0309002 -0.0380426 0)
(0.0295675 -0.034031 0)
(0.028257 -0.0301948 0)
(0.0269703 -0.026531 0)
(0.0257086 -0.0230364 0)
(0.0244731 -0.0197074 0)
(0.0232651 -0.0165407 0)
(0.0220853 -0.0135324 0)
(0.0209343 -0.0106788 0)
(0.0198129 -0.00797598 0)
(0.0187218 -0.00542 0)
(0.0176612 -0.00300681 0)
(0.0166316 -0.000732334 0)
(0.015633 0.00140754 0)
(0.0146655 0.00341695 0)
(0.0137292 0.00530004 0)
(0.0128242 0.00706096 0)
(0.0119503 0.00870384 0)
(0.0111074 0.0102328 0)
(0.0102953 0.011652 0)
(0.00951359 0.0129654 0)
(0.00876195 0.0141771 0)
(0.00803997 0.015291 0)
(0.00734722 0.0163111 0)
(0.00668322 0.0172411 0)
(0.00604747 0.018085 0)
(0.00543943 0.0188463 0)
(0.00485854 0.0195287 0)
(0.00430419 0.0201358 0)
(0.00377579 0.0206711 0)
(0.00327269 0.021138 0)
(0.00279425 0.0215398 0)
(0.0023398 0.0218796 0)
(0.00190868 0.0221608 0)
(0.0015002 0.0223862 0)
(0.00111367 0.022559 0)
(0.000748401 0.0226818 0)
(0.0004037 0.0227576 0)
(7.8872e-05 0.022789 0)
(-0.000226778 0.0227785 0)
(-0.00051394 0.0227288 0)
(-0.000783302 0.0226421 0)
(-0.00103554 0.0225209 0)
(-0.00127134 0.0223673 0)
(-0.00149137 0.0221834 0)
(-0.00169627 0.0219714 0)
(-0.00188671 0.0217332 0)
(-0.00206333 0.0214707 0)
(-0.00222674 0.0211856 0)
(-0.00237757 0.0208796 0)
(-0.00251642 0.0205545 0)
(-0.00264389 0.0202117 0)
(-0.00276055 0.0198528 0)
(-0.00286697 0.019479 0)
(-0.00296369 0.0190918 0)
(-0.00305127 0.0186924 0)
(-0.00313021 0.0182819 0)
(-0.00320103 0.0178616 0)
(-0.00326422 0.0174323 0)
(-0.00332026 0.0169952 0)
(-0.00336961 0.0165511 0)
(-0.00341272 0.0161008 0)
(-0.00345003 0.0156453 0)
(-0.00348196 0.0151851 0)
(-0.0035089 0.0147211 0)
(-0.00353125 0.0142538 0)
(-0.00354938 0.0137838 0)
(-0.00356366 0.0133117 0)
(-0.00357443 0.0128379 0)
(-0.00358202 0.012363 0)
(-0.00358675 0.0118872 0)
(-0.00358892 0.011411 0)
(-0.00358883 0.0109346 0)
(-0.00358674 0.0104584 0)
(-0.00358293 0.00998262 0)
(-0.00357764 0.00950743 0)
(-0.00357111 0.00903304 0)
(-0.00356356 0.00855958 0)
(-0.00355521 0.00808719 0)
(-0.00354625 0.00761596 0)
(-0.00353688 0.00714594 0)
(-0.00352726 0.0066772 0)
(-0.00351756 0.00620974 0)
(-0.00350793 0.00574356 0)
(-0.00349851 0.00527866 0)
(-0.00348943 0.00481498 0)
(-0.00348081 0.00435249 0)
(-0.00347275 0.0038911 0)
(-0.00346535 0.00343075 0)
(-0.00345869 0.00297133 0)
(-0.00345285 0.00251274 0)
(-0.00344788 0.00205487 0)
(-0.00344385 0.0015976 0)
(-0.00344078 0.0011408 0)
(-0.00343872 0.000684343 0)
(-0.00343769 0.000228091 0)
(0.0412452 -0.055786 0)
(0.0396563 -0.051056 0)
(0.0380836 -0.046511 0)
(0.0365298 -0.0421488 0)
(0.0349971 -0.0379672 0)
(0.0334877 -0.0339635 0)
(0.0320035 -0.030135 0)
(0.0305462 -0.0264784 0)
(0.0291173 -0.0229907 0)
(0.0277179 -0.0196684 0)
(0.0263497 -0.0165079 0)
(0.0250135 -0.0135056 0)
(0.0237099 -0.0106576 0)
(0.0224399 -0.00796016 0)
(0.021204 -0.00540925 0)
(0.0200029 -0.00300085 0)
(0.0188367 -0.000730884 0)
(0.0177057 0.00140475 0)
(0.0166099 0.00341018 0)
(0.0155495 0.00528953 0)
(0.0145245 0.00704696 0)
(0.0135348 0.00868659 0)
(0.0125801 0.0102125 0)
(0.0116603 0.0116289 0)
(0.010775 0.0129397 0)
(0.00992367 0.014149 0)
(0.00910597 0.0152607 0)
(0.00832137 0.0162788 0)
(0.00756933 0.017207 0)
(0.00684929 0.0180491 0)
(0.00616063 0.0188089 0)
(0.00550271 0.01949 0)
(0.00487487 0.0200959 0)
(0.00427641 0.0206301 0)
(0.0037066 0.0210961 0)
(0.00316473 0.0214971 0)
(0.00265003 0.0218363 0)
(0.00216175 0.0221169 0)
(0.0016991 0.0223419 0)
(0.00126133 0.0225142 0)
(0.000847629 0.0226369 0)
(0.000457226 0.0227125 0)
(8.93293e-05 0.0227438 0)
(-0.000256846 0.0227334 0)
(-0.000582082 0.0226837 0)
(-0.000887158 0.0225972 0)
(-0.00117284 0.0224762 0)
(-0.00143991 0.0223229 0)
(-0.0016891 0.0221395 0)
(-0.00192118 0.0219279 0)
(-0.00213687 0.0216901 0)
(-0.0023369 0.0214281 0)
(-0.00252197 0.0211436 0)
(-0.0026928 0.0208382 0)
(-0.00285007 0.0205138 0)
(-0.00299443 0.0201717 0)
(-0.00312656 0.0198134 0)
(-0.00324709 0.0194404 0)
(-0.00335664 0.019054 0)
(-0.00345582 0.0186553 0)
(-0.00354523 0.0182457 0)
(-0.00362544 0.0178262 0)
(-0.00369701 0.0173978 0)
(-0.00376048 0.0169615 0)
(-0.00381637 0.0165183 0)
(-0.0038652 0.0160689 0)
(-0.00390746 0.0156142 0)
(-0.00394362 0.015155 0)
(-0.00397413 0.0146919 0)
(-0.00399945 0.0142255 0)
(-0.00401999 0.0137565 0)
(-0.00403616 0.0132853 0)
(-0.00404836 0.0128125 0)
(-0.00405695 0.0123385 0)
(-0.00406231 0.0118636 0)
(-0.00406477 0.0113883 0)
(-0.00406466 0.0109129 0)
(-0.0040623 0.0104377 0)
(-0.00405798 0.00996283 0)
(-0.00405199 0.00948858 0)
(-0.00404459 0.00901513 0)
(-0.00403604 0.00854262 0)
(-0.00402659 0.00807116 0)
(-0.00401644 0.00760086 0)
(-0.00400582 0.00713178 0)
(-0.00399493 0.00666396 0)
(-0.00398394 0.00619743 0)
(-0.00397304 0.00573218 0)
(-0.00396237 0.00526819 0)
(-0.00395209 0.00480544 0)
(-0.00394232 0.00434386 0)
(-0.0039332 0.00388339 0)
(-0.00392481 0.00342395 0)
(-0.00391727 0.00296544 0)
(-0.00391065 0.00250776 0)
(-0.00390503 0.0020508 0)
(-0.00390046 0.00159443 0)
(-0.00389699 0.00113854 0)
(-0.00389465 0.000682986 0)
(-0.00389348 0.000227639 0)
(0.0460634 -0.0556614 0)
(0.0442889 -0.050942 0)
(0.0425325 -0.0464071 0)
(0.0407972 -0.0420547 0)
(0.0390854 -0.0378824 0)
(0.0373997 -0.0338877 0)
(0.0357421 -0.0300677 0)
(0.0341145 -0.0264193 0)
(0.0325187 -0.0229393 0)
(0.0309559 -0.0196244 0)
(0.0294279 -0.016471 0)
(0.0279356 -0.0134754 0)
(0.0264797 -0.0106338 0)
(0.0250613 -0.00794238 0)
(0.0236811 -0.00539717 0)
(0.0223396 -0.00299415 0)
(0.0210372 -0.000729254 0)
(0.019774 0.00140161 0)
(0.0185502 0.00340256 0)
(0.017366 0.00527772 0)
(0.0162212 0.00703122 0)
(0.0151159 0.00866719 0)
(0.0140497 0.0101897 0)
(0.0130225 0.0116029 0)
(0.0120337 0.0129108 0)
(0.0110829 0.0141174 0)
(0.0101697 0.0152266 0)
(0.00929346 0.0162424 0)
(0.00845357 0.0171685 0)
(0.00764941 0.0180088 0)
(0.00688031 0.0187669 0)
(0.00614553 0.0194465 0)
(0.00544435 0.020051 0)
(0.00477597 0.0205841 0)
(0.0041396 0.021049 0)
(0.00353443 0.021449 0)
(0.0029596 0.0217875 0)
(0.00241428 0.0220675 0)
(0.00189759 0.022292 0)
(0.00140867 0.022464 0)
(0.000946648 0.0225863 0)
(0.000510638 0.0226618 0)
(9.97644e-05 0.022693 0)
(-0.00028685 0.0226826 0)
(-0.00065008 0.0226331 0)
(-0.000990795 0.0225468 0)
(-0.00130986 0.022426 0)
(-0.00160812 0.0222731 0)
(-0.00188642 0.02209 0)
(-0.00214561 0.0218789 0)
(-0.00238649 0.0216417 0)
(-0.00260989 0.0213802 0)
(-0.00281659 0.0210964 0)
(-0.00300737 0.0207917 0)
(-0.00318301 0.020468 0)
(-0.00334424 0.0201266 0)
(-0.0034918 0.0197692 0)
(-0.00362641 0.019397 0)
(-0.00374876 0.0190114 0)
(-0.00385953 0.0186137 0)
(-0.00395938 0.018205 0)
(-0.00404896 0.0177864 0)
(-0.00412889 0.0173589 0)
(-0.00419977 0.0169236 0)
(-0.0042622 0.0164814 0)
(-0.00431673 0.016033 0)
(-0.00436393 0.0155794 0)
(-0.00440431 0.0151212 0)
(-0.00443839 0.0146591 0)
(-0.00446666 0.0141937 0)
(-0.0044896 0.0137258 0)
(-0.00450766 0.0132556 0)
(-0.00452128 0.0127839 0)
(-0.00453088 0.0123109 0)
(-0.00453686 0.0118371 0)
(-0.00453961 0.0113629 0)
(-0.00453949 0.0108886 0)
(-0.00453685 0.0104144 0)
(-0.00453203 0.00994058 0)
(-0.00452534 0.00946739 0)
(-0.00451708 0.008995 0)
(-0.00450753 0.00852354 0)
(-0.00449697 0.00805314 0)
(-0.00448564 0.00758389 0)
(-0.00447378 0.00711585 0)
(-0.00446161 0.00664908 0)
(-0.00444934 0.00618359 0)
(-0.00443716 0.00571938 0)
(-0.00442525 0.00525643 0)
(-0.00441377 0.00479471 0)
(-0.00440286 0.00433416 0)
(-0.00439267 0.00387472 0)
(-0.0043833 0.0034163 0)
(-0.00437488 0.00295881 0)
(-0.00436749 0.00250216 0)
(-0.00436121 0.00204622 0)
(-0.0043561 0.00159087 0)
(-0.00435223 0.001136 0)
(-0.00434962 0.000681461 0)
(-0.00434832 0.000227131 0)
(0.0508703 -0.0555231 0)
(0.0489106 -0.0508154 0)
(0.0469709 -0.0462918 0)
(0.0450545 -0.0419502 0)
(0.0431641 -0.0377883 0)
(0.0413025 -0.0338035 0)
(0.0394719 -0.029993 0)
(0.0376745 -0.0263537 0)
(0.0359121 -0.0228823 0)
(0.0341863 -0.0195757 0)
(0.0324988 -0.0164301 0)
(0.0308507 -0.0134419 0)
(0.029243 -0.0106074 0)
(0.0276765 -0.00792265 0)
(0.0261523 -0.00538376 0)
(0.0246708 -0.00298671 0)
(0.0232325 -0.000727446 0)
(0.0218375 0.00139812 0)
(0.020486 0.0033941 0)
(0.0191781 0.0052646 0)
(0.0179139 0.00701375 0)
(0.0166933 0.00864565 0)
(0.0155159 0.0101644 0)
(0.0143814 0.0115741 0)
(0.0132895 0.0128787 0)
(0.0122395 0.0140823 0)
(0.011231 0.0151888 0)
(0.0102633 0.016202 0)
(0.00933573 0.0171259 0)
(0.00844765 0.0179641 0)
(0.00759829 0.0187203 0)
(0.00678684 0.0193981 0)
(0.00601248 0.0200012 0)
(0.00527436 0.0205329 0)
(0.00457158 0.0209967 0)
(0.00390326 0.0213958 0)
(0.00326845 0.0217334 0)
(0.00266622 0.0220126 0)
(0.00209561 0.0222366 0)
(0.00155567 0.0224082 0)
(0.00104543 0.0225302 0)
(0.000563925 0.0226055 0)
(0.000110175 0.0226366 0)
(-0.000316784 0.0226263 0)
(-0.000717918 0.0225768 0)
(-0.00109419 0.0224908 0)
(-0.00144654 0.0223703 0)
(-0.00177593 0.0222177 0)
(-0.00208328 0.0220351 0)
(-0.00236951 0.0218245 0)
(-0.00263553 0.0215879 0)
(-0.00288224 0.0213271 0)
(-0.00311051 0.0210439 0)
(-0.0033212 0.02074 0)
(-0.00351516 0.0204171 0)
(-0.00369322 0.0200766 0)
(-0.00385618 0.01972 0)
(-0.00400484 0.0193488 0)
(-0.00413995 0.0189642 0)
(-0.00426228 0.0185674 0)
(-0.00437256 0.0181597 0)
(-0.00447148 0.0177422 0)
(-0.00455975 0.0173158 0)
(-0.00463803 0.0168816 0)
(-0.00470697 0.0164404 0)
(-0.0047672 0.0159932 0)
(-0.00481931 0.0155407 0)
(-0.00486391 0.0150836 0)
(-0.00490155 0.0146227 0)
(-0.00493277 0.0141585 0)
(-0.0049581 0.0136917 0)
(-0.00497805 0.0132227 0)
(-0.00499309 0.0127521 0)
(-0.00500369 0.0122803 0)
(-0.0050103 0.0118077 0)
(-0.00501333 0.0113347 0)
(-0.0050132 0.0108615 0)
(-0.00501029 0.0103885 0)
(-0.00500496 0.00991588 0)
(-0.00499757 0.00944387 0)
(-0.00498845 0.00897265 0)
(-0.00497791 0.00850236 0)
(-0.00496624 0.00803313 0)
(-0.00495373 0.00756504 0)
(-0.00494063 0.00709817 0)
(-0.00492719 0.00663255 0)
(-0.00491364 0.00616822 0)
(-0.00490019 0.00570516 0)
(-0.00488704 0.00524337 0)
(-0.00487436 0.00478279 0)
(-0.00486231 0.00432339 0)
(-0.00485105 0.00386509 0)
(-0.00484072 0.00340781 0)
(-0.00483141 0.00295146 0)
(-0.00482325 0.00249594 0)
(-0.00481631 0.00204113 0)
(-0.00481068 0.00158692 0)
(-0.0048064 0.00113317 0)
(-0.00480352 0.000679768 0)
(-0.00480207 0.000226566 0)
(0.0556646 -0.0553711 0)
(0.0535202 -0.0506763 0)
(0.0513977 -0.0461651 0)
(0.0493007 -0.0418354 0)
(0.0472322 -0.0376849 0)
(0.0451951 -0.033711 0)
(0.0431919 -0.0299108 0)
(0.0412251 -0.0262815 0)
(0.0392967 -0.0228197 0)
(0.0374082 -0.0195221 0)
(0.0355617 -0.0163851 0)
(0.0337583 -0.0134051 0)
(0.031999 -0.0105783 0)
(0.0302849 -0.00790096 0)
(0.028617 -0.00536902 0)
(0.0269959 -0.00297854 0)
(0.025422 -0.000725457 0)
(0.0238956 0.00139429 0)
(0.0224167 0.0033848 0)
(0.0209856 0.00525018 0)
(0.0196023 0.00699454 0)
(0.0182665 0.00862198 0)
(0.0169782 0.0101366 0)