/*--------------------------------*- C++ -*----------------------------------*\
| =========                 |                                                 |
| \\      /  F ield         | OpenFOAM: The Open Source CFD Toolbox           |
|  \\    /   O peration     | Version:  2406                                  |
|   \\  /    A nd           | Website:  www.openfoam.com                      |
|    \\/     M anipulation  |                                                 |
\*---------------------------------------------------------------------------*/
FoamFile
{
    version     2.0;
    format      ascii;
    arch        "LSB;label=32;scalar=64";
    class       volScalarField;
    location    "150";
    object      gradTy;
}
// * * * * * * * * * * * * * * * * * * * * * * * * * * * * * * * * * * * * * //

dimensions      [0 -1 0 1 0 0 0];

internalField   nonuniform List<scalar> 
20000
(
-178.215
-163.104
-148.585
-134.649
-121.291
-108.5
-96.2698
-84.5886
-73.4462
-62.8328
-52.7366
-43.1452
-34.0469
-25.4295
-17.2805
-9.5867
-2.33505
4.48757
10.8943
16.8982
22.5125
27.7504
32.6252
37.1499
41.3374
45.2006
48.7521
52.0044
54.9696
57.66
60.0872
62.263
64.1987
65.9054
67.3939
68.6749
69.7585
70.6549
71.3737
71.9244
72.3161
72.5577
72.6578
72.6245
72.4659
72.1896
71.803
71.3132
70.7271
70.0512
69.2917
68.4546
67.5456
66.5702
65.5336
64.4408
63.2963
62.1047
60.8701
59.5967
58.2881
56.9478
55.5792
54.1855
52.7695
51.334
49.8815
48.4145
46.935
45.4451
43.9467
42.4415
40.931
39.4167
37.8997
36.3814
34.8627
33.3444
31.8274
30.3124
28.7999
27.2904
25.7843
24.2818
22.7833
21.2888
19.7984
18.3121
16.8299
15.3515
13.877
12.4059
10.9382
9.47344
8.01133
6.55151
5.0936
3.6372
2.18188
0.727221
-178.171
-163.064
-148.548
-134.616
-121.261
-108.474
-96.2458
-84.5676
-73.4284
-62.8174
-52.7234
-43.1344
-34.0385
-25.4234
-17.2763
-9.58433
-2.33442
4.48651
10.8916
16.894
22.5069
27.7436
32.6172
37.1407
41.3272
45.1895
48.7401
51.9915
54.9561
57.6457
60.0724
62.2477
64.1829
65.8891
67.3773
68.6579
69.7413
70.6375
71.3561
71.9067
72.2983
72.5398
72.6398
72.6066
72.448
72.1718
71.7853
71.2957
70.7097
70.0339
69.2746
68.4377
67.529
66.5538
65.5175
64.4249
63.2807
62.0893
60.8551
59.582
58.2737
56.9337
55.5655
54.1721
52.7565
51.3213
49.8692
48.4025
46.9234
45.4339
43.9358
42.431
40.9209
39.4069
37.8904
36.3724
34.8541
33.3362
31.8196
30.3049
28.7928
27.2837
25.7779
24.2759
22.7777
21.2836
19.7935
18.3076
16.8257
15.3478
13.8736
12.4029
10.9355
9.4711
8.00935
6.54989
5.09234
3.6363
2.18134
0.727041
-178.083
-162.984
-148.475
-134.55
-121.201
-108.42
-96.1984
-84.5259
-73.3922
-62.7864
-52.6973
-43.1131
-34.0217
-25.4109
-17.2678
-9.57957
-2.33321
4.48434
10.8862
16.8856
22.4958
27.7299
32.601
37.1224
41.3068
45.1672
48.716
51.9659
54.9289
57.6173
60.0428
62.2169
64.1512
65.8566
67.344
68.624
69.7069
70.6026
71.3209
71.8712
72.2626
72.504
72.604
72.5707
72.4122
72.1361
71.7499
71.2605
70.6748
69.9993
69.2404
68.4039
67.4956
66.521
65.4851
64.3931
63.2494
62.0587
60.8251
59.5526
58.2449
56.9056
55.5381
54.1454
52.7304
51.296
49.8446
48.3786
46.9002
45.4115
43.9142
42.4101
40.9007
39.3875
37.8717
36.3545
34.8369
33.3197
31.8039
30.29
28.7786
27.2702
25.7652
24.2639
22.7664
21.273
19.7838
18.2986
16.8174
15.3402
13.8667
12.3968
10.9301
9.46643
8.0054
6.54666
5.08983
3.63451
2.18027
0.726682
-177.951
-162.863
-148.365
-134.45
-121.111
-108.34
-96.1272
-84.4633
-73.3378
-62.7398
-52.6582
-43.0812
-33.9966
-25.3921
-17.255
-9.57244
-2.33145
4.48103
10.8782
16.8731
22.4791
27.7093
32.5769
37.0949
41.2763
45.1337
48.68
51.9274
54.8883
57.5746
59.9983
62.1709
64.1037
65.8078
67.2942
68.5732
69.6553
70.5503
71.2681
71.818
72.2091
72.4503
72.5502
72.517
72.3586
72.0827
71.6967
71.2077
70.6225
69.9475
69.1891
68.3533
67.4456
66.4717
65.4366
64.3454
63.2026
62.0128
60.7801
59.5085
58.2018
56.8635
55.497
54.1053
52.6914
51.258
49.8077
48.3428
46.8655
45.3778
43.8816
42.3787
40.8704
39.3583
37.8436
36.3276
34.8111
33.2951
31.7803
30.2675
28.7573
27.25
25.7461
24.2459
22.7496
21.2573
19.7691
18.285
16.805
15.3288
13.8564
12.3876
10.922
9.45942
7.99947
6.54181
5.08606
3.63181
2.17865
0.726144
-177.775
-162.702
-148.218
-134.317
-120.992
-108.233
-96.0323
-84.3798
-73.2653
-62.6779
-52.6062
-43.0387
-33.963
-25.367
-17.2379
-9.56296
-2.32913
4.47661
10.8674
16.8564
22.4569
27.6819
32.5447
37.0583
41.2355
45.0892
48.6319
51.8761
54.8341
57.5178
59.939
62.1095
64.0404
65.7428
67.2277
68.5055
69.5865
70.4806
71.1977
71.747
72.1378
72.3788
72.4786
72.4454
72.2871
72.0115
71.6259
71.1374
70.5527
69.8784
69.1208
68.2857
67.379
66.406
65.372
64.2818
63.1402
61.9515
60.72
59.4497
58.1443
56.8073
55.4421
54.0518
52.6393
51.2074
49.7585
48.295
46.8192
45.333
43.8383
42.3368
40.83
39.3194
37.8063
36.2917
34.7767
33.2622
31.7489
30.2376
28.7289
27.2231
25.7207
24.222
22.7271
21.2363
19.7496
18.2669
16.7884
15.3137
13.8427
12.3753
10.9112
9.45007
7.99157
6.53535
5.08104
3.62823
2.1765
0.725427
-177.555
-162.501
-148.035
-134.151
-120.842
-108.099
-95.9136
-84.2755
-73.1747
-62.6004
-52.5413
-42.9855
-33.9211
-25.3357
-17.2166
-9.55112
-2.32624
4.47107
10.854
16.8356
22.4291
27.6477
32.5045
37.0125
41.1846
45.0335
48.5718
51.812
54.7663
57.4467
59.865
62.0327
63.9612
65.6616
67.1446
68.4208
69.5005
70.3935
71.1097
71.6584
72.0486
72.2894
72.389
72.3558
72.1978
71.9225
71.5374
71.0495
70.4655
69.7921
69.0354
68.2014
67.2958
66.324
65.2912
64.2024
63.0622
61.875
60.645
59.3762
58.0724
56.7371
55.3736
53.9851
52.5743
51.1441
49.697
48.2354
46.7614
45.277
43.7841
42.2845
40.7796
39.2709
37.7596
36.2468
34.7337
33.2211
31.7097
30.2003
28.6934
27.1894
25.6889
24.192
22.699
21.2101
19.7252
18.2444
16.7676
15.2948
13.8256
12.3601
10.8977
9.4384
7.98169
6.52728
5.07476
3.62374
2.17381
0.724531
-177.292
-162.26
-147.816
-133.952
-120.663
-107.939
-95.7713
-84.1505
-73.0662
-62.5076
-52.4633
-42.9217
-33.8707
-25.298
-17.191
-9.53694
-2.32279
4.46443
10.8378
16.8106
22.3958
27.6067
32.4563
36.9576
41.1234
44.9667
48.4998
51.7352
54.6851
57.3615
59.7762
61.9407
63.8663
65.5642
67.045
68.3193
69.3974
70.2891
71.0042
71.552
71.9417
72.1821
72.2816
72.2485
72.0907
71.8158
71.4313
70.944
70.361
69.6885
68.933
68.1002
67.1959
66.2256
65.1944
64.1071
62.9686
61.7831
60.555
59.2881
57.9863
56.653
55.2915
53.905
52.4963
51.0682
49.6233
48.1638
46.692
45.2098
43.7192
42.2217
40.7191
39.2126
37.7035
36.1931
34.6822
33.1718
31.6626
30.1555
28.6508
27.1491
25.6508
24.1561
22.6653
21.1786
19.6959
18.2173
16.7427
15.2721
13.8051
12.3417
10.8816
9.42439
7.96985
6.51759
5.06723
3.61837
2.17058
0.723455
-176.985
-161.979
-147.559
-133.72
-120.454
-107.752
-95.6053
-84.0047
-72.9396
-62.3993
-52.3724
-42.8474
-33.812
-25.2542
-17.1612
-9.52041
-2.31877
4.45668
10.819
16.7814
22.357
27.5588
32.4
36.8935
41.0522
44.8887
48.4157
51.6455
54.5903
57.2621
59.6726
61.8334
63.7557
65.4506
66.9288
68.2009
69.2771
70.1673
70.8812
71.4281
71.8171
72.057
72.1564
72.1233
71.9658
71.6914
71.3075
70.8211
70.2391
69.5678
68.8135
67.9822
67.0795
66.1108
65.0814
63.996
62.8595
61.6761
60.4501
59.1854
57.8858
56.5548
55.1957
53.8116
52.4053
50.9797
49.5373
48.0803
46.6111
45.1315
43.6434
42.1486
40.6485
39.1446
37.6382
36.1303
34.6221
33.1143
31.6078
30.1032
28.6011
27.1021
25.6063
24.1143
22.6261
21.1419
19.6618
18.1857
16.7137
15.2456
13.7812
12.3203
10.8627
9.40806
7.95604
6.5063
5.05845
3.6121
2.16682
0.722202
-176.634
-161.658
-147.267
-133.455
-120.215
-107.538
-95.4158
-83.8382
-72.795
-62.2756
-52.2686
-42.7624
-33.745
-25.2041
-17.1272
-9.50154
-2.31418
4.44784
10.7976
16.7482
22.3127
27.5042
32.3358
36.8204
40.9708
44.7998
48.3197
51.5431
54.4821
57.1486
59.5543
61.7108
63.6293
65.3208
66.7962
68.0657
69.1398
70.0282
70.7406
71.2865
71.6747
71.9142
72.0133
71.9803
71.8231
71.5493
71.1661
70.6807
70.0998
69.4299
68.6771
67.8474
66.9465
65.9798
64.9524
63.8692
62.7349
61.5538
60.3302
59.0681
57.7711
56.4427
55.0862
53.7049
52.3014
50.8787
49.4391
47.985
46.5187
45.042
43.5569
42.065
40.5679
39.067
37.5636
36.0587
34.5534
33.0487
31.5451
30.0435
28.5444
27.0483
25.5556
24.0665
22.5812
21.1
19.6228
18.1497
16.6806
15.2154
13.7539
12.2959
10.8412
9.38941
7.94027
6.4934
5.04842
3.60494
2.16253
0.72077
-176.24
-161.297
-146.938
-133.157
-119.946
-107.298
-95.2027
-83.651
-72.6325
-62.1365
-52.1519
-42.6669
-33.6696
-25.1478
-17.089
-9.48032
-2.30903
4.43789
10.7735
16.7107
22.2628
27.4428
32.2636
36.7382
40.8793
44.6997
48.2119
51.428
54.3604
57.0209
59.4213
61.573
63.4872
65.175
66.647
67.9137
68.9854
69.8718
70.5827
71.1273
71.5147
71.7536
71.8525
71.8196
71.6627
71.3895
71.0072
70.5229
69.9433
69.2748
68.5237
67.6959
66.797
65.8324
64.8073
63.7266
62.5948
61.4164
60.1955
58.9362
57.642
56.3166
54.9632
53.5849
52.1846
50.7651
49.3287
47.8779
46.4148
44.9414
43.4596
41.9711
40.4773
38.9798
37.4797
35.9782
34.4763
32.9748
31.4747
29.9764
28.4807
26.9879
25.4985
24.0127
22.5308
21.0529
19.579
18.1092
16.6433
15.1814
13.7232
12.2684
10.817
9.36844
7.92254
6.4789
5.03715
3.59689
2.1577
0.719161
-175.802
-160.896
-146.573
-132.826
-119.648
-107.031
-94.9662
-83.4431
-72.452
-61.9821
-52.0223
-42.5609
-33.586
-25.0853
-17.0465
-9.45677
-2.3033
4.42685
10.7467
16.6692
22.2075
27.3746
32.1834
36.6469
40.7778
44.5887
48.0921
51.3003
54.2254
56.8793
59.2737
61.42
63.3295
65.013
66.4814
67.745
68.814
69.6982
70.4073
70.9505
71.337
71.5753
71.674
71.6411
71.4846
71.2121
70.8308
70.3476
69.7695
69.1027
68.3535
67.5277
66.631
65.6689
64.6463
63.5682
62.4392
61.2638
60.0459
58.7897
57.4988
56.1767
54.8267
53.4518
52.055
50.6389
49.2061
47.7589
46.2994
44.8297
43.3516
41.8668
40.3768
38.8829
37.3866
35.8888
34.3906
32.8929
31.3965
29.902
28.4099
26.9209
25.4351
23.9531
22.4748
21.0005
19.5303
18.0642
16.602
15.1437
13.6891
12.238
10.7901
9.34516
7.90285
6.4628
5.02463
3.58795
2.15234
0.717374
-175.32
-160.455
-146.172
-132.463
-119.321
-106.738
-94.7062
-83.2147
-72.2536
-61.8124
-51.8798
-42.4443
-33.494
-25.0167
-16.9998
-9.43089
-2.297
4.41472
10.7172
16.6236
22.1467
27.2996
32.0953
36.5466
40.6661
44.4666
47.9604
51.1598
54.0769
56.7235
59.1114
61.2518
63.1561
64.835
66.2994
67.5595
68.6256
69.5074
70.2145
70.7563
71.1417
71.3793
71.4777
71.445
71.2889
71.0171
70.6368
70.155
69.5785
68.9135
68.1663
67.3428
66.4486
65.4891
64.4693
63.3942
62.2683
61.096
59.8815
58.6288
57.3414
56.0229
54.6766
53.3055
51.9125
50.5003
49.0714
47.6281
46.1727
44.707
43.2329
41.7522
40.2662
38.7765
37.2842
35.7905
34.2965
32.8029
31.3105
29.8201
28.3321
26.8472
25.3655
23.8875
22.4133
20.943
19.4769
18.0147
16.5565
15.1022
13.6516
12.2045
10.7606
9.31958
7.88121
6.4451
5.01087
3.57812
2.14644
0.715409
-174.796
-159.975
-145.734
-132.066
-118.964
-106.419
-94.4228
-82.9657
-72.0374
-61.6274
-51.7246
-42.3173
-33.3938
-24.9418
-16.949
-9.40268
-2.29014
4.40151
10.6852
16.5738
22.0804
27.218
31.9993
36.4372
40.5444
44.3335
47.8169
51.0067
53.9151
56.5538
58.9345
61.0686
62.9671
64.641
66.101
67.3574
68.4202
69.2994
70.0045
70.5446
70.9288
71.1658
71.2639
71.2312
71.0756
70.8046
70.4255
69.9451
69.3703
68.7073
67.9624
67.1413
66.2498
65.2931
64.2764
63.2045
62.082
60.9132
59.7024
58.4533
57.1698
55.8553
54.513
53.146
51.7571
50.3492
48.9246
47.4856
46.0345
44.5732
43.1036
41.6272
40.1457
38.6605
37.1727
35.6834
34.1938
32.7047
31.2168
29.7309
28.2474
26.7668
25.2896
23.816
22.3462
20.8804
19.4186
17.9608
16.507
15.057
13.6107
12.1679
10.7284
9.29169
7.85763
6.42582
4.99588
3.56742
2.14002
0.713269
-174.228
-159.456
-145.261
-131.637
-118.578
-106.073
-94.1161
-82.6962
-71.8034
-61.4273
-51.5566
-42.1799
-33.2853
-24.8608
-16.8939
-9.37216
-2.28271
4.3872
10.6505
16.52
22.0087
27.1296
31.8954
36.3189
40.4128
44.1896
47.6616
50.8411
53.74
56.3702
58.7431
60.8702
62.7626
64.4311
65.8863
67.1386
68.198
69.0744
69.7771
70.3155
70.6984
70.9346
71.0324
70.9999
70.8448
70.5747
70.1968
69.718
69.145
68.4842
67.7416
66.9233
66.0346
65.0811
64.0676
62.9992
61.8803
60.7154
59.5085
58.2635
56.9841
55.6739
54.3359
52.9734
51.589
50.1857
48.7657
47.3314
45.885
44.4285
42.9636
41.492
40.0154
38.5349
37.0519
35.5676
34.0828
32.5985
31.1154
29.6343
28.1556
26.6799
25.2075
23.7387
22.2736
20.8126
19.3555
17.9025
16.4534
15.0081
13.5665
12.1284
10.6935
9.26151
7.83211
6.40495
4.97966
3.55583
2.13307
0.710952
-173.618
-158.897
-144.752
-131.176
-118.162
-105.702
-93.7862
-82.4063
-71.5518
-61.212
-51.3759
-42.0321
-33.1687
-24.7737
-16.8347
-9.33932
-2.27472
4.37182
10.6131
16.4621
21.9316
27.0345
31.7836
36.1916
40.2711
44.0347
47.4946
50.6629
53.5517
56.1726
58.5372
60.6569
62.5426
64.2053
65.6554
66.9033
67.959
68.8322
69.5325
70.069
70.4506
70.686
70.7834
70.751
70.5965
70.3273
69.9507
69.4736
68.9026
68.2441
67.5042
66.6887
65.8032
64.8529
63.8431
62.7784
61.6634
60.5026
59.2999
58.0593
56.7844
55.4787
54.1455
52.7877
51.4082
50.0097
48.5947
47.1655
45.7242
44.2728
42.813
41.3466
39.8751
38.3998
36.9221
35.4429
33.9633
32.4842
31.0064
29.5304
28.0569
26.5864
25.1191
23.6554
22.1956
20.7396
19.2877
17.8397
16.3957
14.9555
13.519
12.0859
10.656
9.22905
7.80466
6.3825
4.9622
3.54337
2.12559
0.70846
-172.964
-158.299
-144.207
-130.682
-117.717
-105.304
-93.4332
-82.0961
-71.2824
-60.9816
-51.1825
-41.8739
-33.0438
-24.6804
-16.7714
-9.30417
-2.26616
4.35536
10.5732
16.4001
21.849
26.9327
31.6639
36.0554
40.1195
43.8689
47.3158
50.4722
53.3501
55.9611
58.3169
60.4286
62.3072
63.9636
65.4083
66.6515
67.7032
68.5732
69.2708
69.8053
70.1855
70.4199
70.517
70.4847
70.3308
70.0626
69.6874
69.2121
68.6433
67.9872
67.2501
66.4377
65.5555
64.6088
63.6028
62.5421
61.4313
60.2748
59.0767
57.8407
56.5707
55.2699
53.9416
52.589
51.2147
49.8215
48.4118
46.988
45.5521
44.1061
42.6519
41.191
39.725
38.2553
36.7831
35.3095
33.8355
32.362
30.8897
29.4193
27.9513
26.4863
25.0246
23.5664
22.112
20.6616
19.2151
17.7726
16.334
14.8992
13.4681
12.0404
10.6159
9.19431
7.77528
6.35848
4.94352
3.53003
2.11759
0.705794
-172.268
-157.662
-143.627
-130.156
-117.243
-104.88
-93.0571
-81.7657
-70.9955
-60.7361
-50.9765
-41.7053
-32.9108
-24.5811
-16.7039
-9.26673
-2.25705
4.33783
10.5306
16.3341
21.7611
26.8243
31.5365
35.9102
39.9581
43.6924
47.1253
50.2691
53.1354
55.7359
58.0822
60.1853
62.0564
63.7062
65.145
66.3832
67.4307
68.2971
68.992
69.5243
69.9029
70.1365
70.2332
70.201
70.0477
69.7806
69.4069
68.9335
68.367
67.7136
66.9794
66.1702
65.2916
64.3488
63.3468
62.2903
61.1841
60.0322
58.8389
57.6079
56.343
55.0474
53.7245
52.3773
51.0086
49.621
48.217
46.7988
45.3687
43.9286
42.4802
41.0252
39.5651
38.1013
36.635
35.1673
33.6993
32.2317
30.7653
29.3009
27.8388
26.3797
24.9238
23.4715
22.023
20.5784
19.1377
17.701
16.2682
14.8393
13.4139
11.992
10.5732
9.1573
7.74398
6.33288
4.92362
3.51582
2.10907
0.702953
-171.529
-156.986
-143.011
-129.598
-116.741
-104.43
-92.6581
-81.4151
-70.6911
-60.4757
-50.7579
-41.5265
-32.7697
-24.4757
-16.6323
-9.22699
-2.24737
4.31923
10.4855
16.2641
21.6678
26.7093
31.4013
35.7563
39.7867
43.505
46.9233
50.0535
52.9075
55.4969
57.8331
59.9273
61.7903
63.433
64.8657
66.0985
67.1415
68.0043
68.6961
69.2262
69.6032
69.8357
69.932
69.9
69.7473
69.4814
69.1093
68.6379
68.0738
67.4232
66.6922
65.8865
65.0116
64.0728
63.0751
62.0232
60.9217
59.7748
58.5866
57.3609
56.1014
54.8114
53.4941
52.1527
50.7898
49.4082
48.0102
46.5982
45.1742
43.7402
42.298
40.8493
39.3954
37.9379
36.4779
35.0165
33.5548
32.0935
30.6334
29.1752
27.7195
26.2666
24.817
23.3709
21.9286
20.4901
19.0557
17.6251
16.1985
14.7756
13.3564
11.9405
10.5278
9.11804
7.71078
6.30573
4.90251
3.50075
2.10003
0.699938
-170.748
-156.271
-142.359
-129.008
-116.209
-103.955
-92.2362
-81.0444
-70.3692
-60.2003
-50.5268
-41.3374
-32.6205
-24.3643
-16.5565
-9.18498
-2.23713
4.29956
10.4377
16.19
21.5691
26.5877
31.2583
35.5935
39.6056
43.3069
46.7096
49.8256
52.6666
55.2442
57.5698
59.6544
61.509
63.1442
64.5703
65.7976
66.8358
67.6946
68.3833
68.911
69.2863
69.5178
69.6136
69.5817
69.4297
69.165
68.7946
68.3254
67.7638
67.1162
66.3885
65.5865
64.7156
63.7811
62.7879
61.7408
60.6443
59.5026
58.3198
57.0997
55.8459
54.5618
53.2506
51.9152
50.5586
49.1832
47.7916
46.386
44.9685
43.541
42.1054
40.6633
39.2161
37.7652
36.3118
34.8571
33.402
31.9473
30.4939
29.0424
27.5932
26.147
24.704
23.2645
21.8287
20.3968
18.9689
17.5449
16.1247
14.7083
13.2956
11.8862
10.4799
9.07652
7.67567
6.27701
4.88019
3.48481
2.09046
0.696751
-169.925
-155.517
-141.673
-128.386
-115.649
-103.453
-91.7915
-80.6537
-70.03
-59.9101
-50.2833
-41.1381
-32.4633
-24.2468
-16.4767
-9.1407
-2.22635
4.27884
10.3874
16.112
21.4651
26.4595
31.1076
35.4219
39.4147
43.0982
46.4845
49.5854
52.4127
54.9779
57.2922
59.3668
61.2125
62.8397
64.259
65.4804
66.5136
67.3683
68.0537
68.5788
68.9523
69.1826
69.278
69.2463
69.095
68.8316
68.463
67.996
67.4372
66.7927
66.0685
65.2703
64.4036
63.4736
62.4852
61.4432
60.3519
59.2158
58.0387
56.8244
55.5767
54.2988
52.9939
51.665
50.3148
48.9461
47.5612
46.1624
44.7517
43.3311
41.9024
40.4672
39.027
37.5831
36.1368
34.6891
33.241
31.7933
30.3469
28.9024
27.4602
26.0209
24.5849
23.1523
21.7235
20.2985
18.8774
17.4603
16.047
14.6374
13.2315
11.8289
10.4294
9.03276
7.63866
6.24675
4.85666
3.46801
2.08039
0.693392
-169.06
-154.726
-140.952
-127.732
-115.06
-102.927
-91.3242
-80.2431
-69.6735
-59.6051
-50.0273
-40.9287
-32.298
-24.1234
-16.3928
-9.09417
-2.21501
4.25706
10.3345
16.03
21.3559
26.3248
30.9492
35.2415
39.214
42.8788
46.2478
49.333
52.1459
54.698
57.0006
59.0646
60.9008
62.5198
63.9319
65.147
66.175
67.0253
67.7072
68.2296
68.6012
68.8304
68.9253
68.8937
68.7432
68.4811
68.1144
67.6498
67.0938
66.4526
65.7321
64.938
64.0758
63.1505
62.1671
61.1304
60.0447
58.9143
57.7432
56.5352
55.2937
54.0223
52.7241
51.4019
50.0587
48.6969
47.3191
45.9274
44.5239
43.1105
41.6891
40.2612
38.8283
37.3918
35.9528
34.5125
33.0717
31.6315
30.1924
28.7552
27.3204
25.8885
24.4597
23.0345
21.6129
20.1952
18.7813
17.3714
15.9653
14.5629
13.1641
11.7686
10.3763
8.98678
7.59978
6.21495
4.83194
3.45035
2.0698
0.689862
-168.153
-153.896
-140.196
-127.047
-114.443
-102.375
-90.8344
-79.8127
-69.2998
-59.2854
-49.7589
-40.7092
-32.1248
-23.994
-16.3049
-9.04539
-2.20313
4.23423
10.2791
15.944
21.2413
26.1836
30.7832
35.0525
39.0037
42.6488
45.9997
49.0684
51.8662
54.4046
56.6948
58.7478
60.5742
62.1845
63.589
64.7976
65.8201
66.6658
67.3441
67.8637
68.2333
68.4612
68.5556
68.5242
68.3745
68.1138
67.7491
67.287
66.734
66.0962
65.3796
64.5897
63.7321
62.8118
61.8337
60.8025
59.7226
58.5983
57.4335
56.2319
54.9972
53.7326
52.4413
51.1262
49.7902
48.4357
47.0653
45.681
44.2851
42.8793
41.4655
40.0453
38.6201
37.1912
35.76
34.3273
32.8943
31.4618
30.0305
28.601
27.1739
25.7496
24.3285
22.9109
21.497
20.0869
18.6806
17.2782
15.8797
14.4848
13.0935
11.7055
10.3206
8.93857
7.55901
6.18161
4.80602
3.43184
2.05869
0.686162
-167.205
-153.028
-139.405
-126.331
-113.797
-101.797
-90.3222
-79.3626
-68.909
-58.9511
-49.4783
-40.4796
-31.9436
-23.8587
-16.213
-8.99438
-2.1907
4.21035
10.2211
15.8541
21.1216
26.036
30.6096
34.8549
38.7837
42.4083
45.7403
48.7917
51.5737
54.0978
56.3751
58.4165
60.2326
61.8338
63.2304
64.4322
65.4489
66.2899
66.9643
67.481
67.8485
68.0752
68.169
68.1378
67.9889
67.7297
67.367
66.9075
66.3576
65.7234
65.0109
64.2255
63.3727
62.4575
61.485
60.4596
59.3858
58.2678
57.1096
55.9148
54.687
53.4295
52.1455
50.8379
49.5094
48.1626
46.7998
45.4234
44.0353
42.6375
41.2317
39.8194
38.4023
36.9815
35.5583
34.1338
32.7088
31.2844
29.8611
28.4397
27.0206
25.6044
24.1913
22.7817
21.3757
19.9736
18.5753
17.1808
15.7901
14.4031
13.0196
11.6395
10.2624
8.88816
7.51638
6.14675
4.77892
3.41249
2.04708
0.682292
-166.215
-152.122
-138.58
-125.583
-113.124
-101.195
-89.7877
-78.893
-68.5012
-58.6022
-49.1855
-40.2401
-31.7546
-23.7175
-16.117
-8.94114
-2.17773
4.18544
10.1607
15.7603
20.9966
25.8819
30.4285
34.6486
38.5542
42.1573
45.4697
48.5029
51.2685
53.7777
56.0415
58.0708
59.8761
61.4679
62.8562
64.0509
65.0616
65.8976
66.568
67.0816
67.4469
67.6723
67.7656
67.7345
67.5866
67.3289
66.9683
66.5116
65.9649
65.3345
64.6261
63.8454
62.9976
62.0879
61.1211
60.1018
59.0344
57.923
56.7716
55.5839
54.3634
53.1133
51.8369
50.537
49.2164
47.8775
46.5229
45.1546
43.7747
42.3851
40.9876
39.5838
38.175
36.7626
35.3478
33.9317
32.5153
31.0992
29.6844
28.2714
26.8607
25.4529
24.0481
22.6469
21.2492
19.8554
18.4653
17.0791
15.6967
14.3179
12.9426
11.5706
10.2017
8.83556
7.4719
6.11038
4.75063
3.39229
2.03497
0.678255
-165.185
-151.179
-137.721
-124.805
-112.423
-100.568
-89.231
-78.4038
-68.0765
-58.2389
-48.8806
-39.9906
-31.5577
-23.5704
-16.0171
-8.8857
-2.16423
4.15949
10.0977
15.6625
20.8664
25.7214
30.2398
34.4338
38.3152
41.8959
45.1877
48.2022
50.9506
53.4443
55.694
57.7107
59.5049
61.0868
62.4665
63.6537
64.6582
65.489
66.1553
66.6657
67.0288
67.2527
67.3454
67.3146
67.1675
66.9114
66.5531
66.0992
65.5559
64.9294
64.2254
63.4495
62.607
61.703
60.7421
59.7292
58.6684
57.5639
56.4196
55.2393
54.0263
52.784
51.5155
50.2237
48.9112
47.5807
46.2344
44.8746
43.5033
42.1224
40.7335
39.3383
37.9383
36.5347
35.1287
33.7214
32.3137
30.9064
29.5004
28.0961
26.6942
25.295
23.899
22.5065
21.1175
19.7323
18.3508
16.9732
15.5993
14.2291
12.8624
11.4989
10.1384
8.78078
7.42557
6.07249
4.72118
3.37126
2.02235
0.674049
-164.113
-150.199
-136.828
-123.995
-111.694
-99.9154
-88.6523
-77.8953
-67.6349
-57.8612
-48.5636
-39.7312
-31.353
-23.4176
-15.9132
-8.82807
-2.15019
4.13252
10.0322
15.561
20.7311
25.5546
30.0437
34.2104
38.0667
41.6242
44.8947
47.8896
50.6202
53.0976
55.3328
57.3365
59.119
60.6906
62.0613
63.2409
64.2388
65.0643
65.7262
66.2333
66.5941
66.8165
66.9086
66.878
66.7319
66.4775
66.1215
65.6705
65.1308
64.5083
63.8089
63.038
62.201
61.3028
60.3482
59.3418
58.2879
57.1905
56.0537
54.881
53.6759
52.4417
51.1814
49.898
48.594
47.2721
45.9346
44.5836
43.2212
41.8492
40.4693
39.0832
37.6922
36.2977
34.9009
33.5027
32.1041
30.706
29.309
27.9139
26.5211
25.131
23.744
22.3605
20.9805
19.6043
18.2318
16.8631
15.4982
14.1368
12.7789
11.4243
10.0727
8.72383
7.37741
6.03311
4.69056
3.3494
2.00924
0.669678
-163.002
-149.181
-135.901
-123.155
-110.937
-99.2385
-88.0517
-77.3676
-67.1768
-57.4692
-48.2346
-39.462
-31.1406
-23.2589
-15.8054
-8.76826
-2.13562
4.10453
9.96422
15.4556
20.5906
25.3815
29.8402
33.9787
37.8088
41.3422
44.5905
47.5651
50.2773
52.7379
54.958
56.948
58.7185
60.2795
61.6409
62.8125
63.8036
64.6235
65.2809
65.7846
66.1429
66.3639
66.4554
66.4249
66.2798
66.0271
65.6736
65.2256
64.6895
64.0713
63.3766
62.611
61.7796
60.8875
59.9394
58.9398
57.893
56.8031
55.674
54.5092
53.3123
52.0864
50.8347
49.5599
48.2648
46.9519
45.6234
44.2815
42.9284
41.5657
40.1952
38.8184
37.4369
36.0518
34.6644
33.2757
31.8866
30.498
29.1105
27.7248
26.3414
24.9607
23.5832
22.209
20.8384
19.4715
18.1083
16.7489
15.3932
14.041
12.6924
11.3469
10.0045
8.66473
7.32744
5.99224
4.65878
3.32671
1.99562
0.665141
-161.85
-148.127
-134.94
-122.285
-110.153
-98.5371
-87.4294
-76.8208
-66.702
-57.063
-47.8937
-39.1831
-30.9205
-23.0945
-15.6937
-8.70629
-2.12052
4.07552
9.8938
15.3463
20.4451
25.2021
29.6293
33.7385
37.5416
41.05
44.2754
47.229
49.9219
52.3652
54.5696
56.5455
58.3035
59.8534
61.2053
62.3686
63.3527
64.1668
64.8196
65.3197
65.6754
65.8949
65.9857
65.9555
65.8114
65.5605
65.2094
64.7646
64.2323
63.6185
62.9287
62.1685
61.343
60.4572
59.5157
58.5232
57.4838
56.4016
55.2805
54.124
52.9355
51.7183
50.4754
49.2097
47.9237
46.62
45.3009
43.9686
42.625
41.2719
39.9111
38.5441
37.1723
35.797
34.4194
33.0405
31.6612
30.2824
28.9047
27.5288
26.1552
24.7843
23.4165
22.052
20.6911
19.3339
17.9803
16.6305
15.2844
13.9418
12.6027
11.2667
9.93375
8.60349
7.27565
5.94989
4.62586
3.30319
1.98152
0.66044
-160.658
-147.036
-133.947
-121.384
-109.342
-97.8114
-86.7855
-76.2551
-66.2107
-56.6428
-47.5409
-38.8946
-30.6928
-22.9244
-15.5781
-8.64217
-2.1049
4.04551
9.82094
15.2333
20.2945
25.0165
29.4111
33.4901
37.2651
40.7477
43.9493
46.8812
49.5543
51.9796
54.1677
56.1291
57.8741
59.4126
60.7545
61.9092
62.8861
63.6942
64.3422
64.8386
65.1918
65.4096
65.4997
65.4697
65.3267
65.0777
64.7292
64.2877
63.7593
63.1499
62.4653
61.7106
60.8912
60.0119
59.0774
58.0922
57.0605
55.9863
54.8734
53.7254
52.5457
51.3374
50.1037
48.8473
47.5708
46.2767
44.9673
43.6448
42.311
40.9679
39.6172
38.2602
36.8986
35.5334
34.1659
32.7972
31.4281
30.0594
28.6919
27.3261
25.9626
24.6018
23.2441
21.8896
20.5387
19.1915
17.8479
16.508
15.1718
13.8391
12.5098
11.1837
9.86059
8.54013
7.22207
5.90607
4.59179
3.27887
1.96693
0.655576
-159.426
-145.909
-132.92
-120.454
-108.503
-97.0616
-86.1202
-75.6705
-65.7032
-56.2086
-47.1765
-38.5964
-30.4575
-22.7487
-15.4587
-8.57591
-2.08876
4.0145
9.74566
15.1165
20.139
24.8247
29.1856
33.2333
36.9794
40.4354
43.6124
46.5218
49.1744
51.5811
53.7524
55.6988
57.4304
58.9572
60.2888
61.4347
62.4041
63.2059
63.849
64.3416
64.692
64.9081
64.9976
64.9678
64.8259
64.5788
64.233
63.7948
63.2705
62.6658
61.9864
61.2375
60.4244
59.5519
58.6245
57.6469
56.6231
55.5571
54.4527
53.3135
52.1428
50.9439
49.7196
48.4728
47.2061
45.9219
44.6226
43.3102
41.9867
40.6539
39.3135
37.9669
36.6157
35.261
33.904
32.5458
31.1871
29.829
28.4719
27.1166
25.7636
24.4132
23.0659
21.7218
20.3813
19.0444
17.7111
16.3815
15.0555
13.733
12.4139
11.098
9.785
8.47466
7.1667
5.86079
4.55659
3.25373
1.95185
0.65055
-158.155
-144.746
-131.86
-119.493
-107.638
-96.2878
-85.4337
-75.0673
-65.1794
-55.7605
-46.8004
-38.2887
-30.2147
-22.5674
-15.3354
-8.50755
-2.07211
3.9825
9.66797
14.996
19.9784
24.6268
28.953
32.9684
36.6846
40.113
43.2647
46.1509
48.7824
51.1699
53.3239
55.2548
56.9726
58.4872
59.8081
60.9449
61.9066
62.7021
63.34
63.8287
64.1763
64.3907
64.4795
64.4499
64.3091
64.064
63.7209
63.2863
62.7661
62.1663
61.4922
60.7494
59.9427
59.0771
58.1572
57.1873
56.1717
55.1142
54.0186
52.8885
51.7272
50.5378
49.3232
48.0864
46.8298
45.5558
44.2669
42.9649
41.652
40.3298
39.0001
37.6643
36.3238
34.9799
33.6337
32.2863
30.9385
29.5912
28.2449
26.9004
25.5582
24.2186
22.882
21.5487
20.2188
18.8925
17.5699
16.2509
14.9355
13.6236
12.315
11.0095
9.70699
8.4071
7.10957
5.81407
4.52026
3.22779
1.93629
0.645364
-156.845
-143.547
-130.768
-118.504
-106.747
-95.4903
-84.726
-74.4455
-64.6395
-55.2986
-46.4128
-37.9716
-29.9644
-22.3804
-15.2084
-8.43708
-2.05495
3.94951
9.58789
14.8718
19.8129
24.4229
28.7132
32.6953
36.3808
39.7808
42.9064
45.7687
48.3783
50.7461
52.8823
54.7971
56.5007
58.0027
59.3128
60.4401
61.3938
62.1827
62.8153
63.3
63.6447
63.8574
63.9454
63.9161
63.7765
63.5333
63.1931
62.7621
62.2463
61.6514
60.9829
60.2462
59.4462
58.5878
57.6755
56.7137
55.7064
54.6577
53.5712
52.4504
51.2987
50.1192
48.9147
47.6881
46.4419
45.1785
43.9002
42.6091
41.307
39.9958
38.677
37.3523
36.0229
34.6902
33.3552
32.0189
30.6823
29.3461
28.011
26.6776
25.3465
24.018
22.6925
21.3702
20.0513
18.736
17.4244
16.1163
14.8118
13.5107
12.213
10.9183
9.62659
8.33747
7.05068
5.76591
4.48282
3.20106
1.92025
0.640019
-155.497
-142.312
-129.644
-117.485
-105.829
-94.6692
-83.9975
-73.8054
-64.0837
-54.8231
-46.0137
-37.6451
-29.7068
-22.188
-15.0777
-8.36454
-2.03728
3.91555
9.50545
14.7439
19.6426
24.2129
28.4663
32.4142
36.068
39.4387
42.5375
45.3751
47.9624
50.3097
52.4276
54.326
56.0149
57.504
58.8028
59.9204
60.8659
61.648
62.2752
62.7557
63.0975
63.3083
63.3956
63.3665
63.2281
62.987
62.6497
62.2224
61.711
61.1212
60.4586
59.7282
58.9351
58.084
57.1796
56.226
55.2274
54.1877
53.1106
51.9994
50.8576
49.6882
48.4941
47.278
46.0426
44.79
43.5227
42.2427
40.9518
39.6518
38.3445
37.0311
35.7132
34.3919
33.0684
31.7436
30.4184
29.0937
27.7701
26.4482
25.1285
23.8115
22.4973
21.1864
19.8789
18.5749
17.2745
15.9777
14.6844
13.3946
12.108
10.8245
9.54382
8.26578
6.99006
5.71633
4.44428
3.17353
1.90374
0.634516
-154.11
-141.043
-128.487
-116.437
-104.885
-93.8248
-83.2483
-73.147
-63.5121
-54.3341
-45.6033
-37.3093
-29.4418
-21.9901
-14.9432
-8.28993
-2.01911
3.88062
9.42066
14.6124
19.4674
23.9969
28.2124
32.1251
35.7462
39.0869
42.158
44.9704
47.5345
49.861
51.9599
53.8414
55.5152
56.9911
58.2783
59.3859
60.323
61.0981
61.7197
62.1959
62.5347
62.7436
62.8301
62.8013
62.6641
62.4252
62.0909
61.6674
61.1606
60.576
59.9193
59.1954
58.4094
57.5659
56.6695
55.7245
54.7348
53.7044
52.6368
51.5356
50.404
49.245
48.0615
46.8563
45.6319
44.3905
43.1345
41.8659
40.5865
39.2982
38.0024
36.7008
35.3946
34.0851
32.7734
31.4604
30.1471
28.8342
27.5224
26.2123
24.9044
23.5991
22.2967
20.9975
19.7016
18.4093
17.1205
15.8352
14.5534
13.2751
12
10.7279
9.45869
8.19205
6.92771
5.66534
4.40463
3.14523
1.88676
0.628856
-152.685
-139.739
-127.299
-115.36
-103.915
-92.9572
-82.4785
-72.4707
-62.9248
-53.8317
-45.1816
-36.9643
-29.1696
-21.7867
-14.805
-8.21327
-2.00044
3.84474
9.33354
14.4773
19.2873
23.775
27.9515
31.828
35.4157
38.7255
41.7682
44.5545
47.095
49.3999
51.4794
53.3435
55.0019
56.4641
57.7394
58.8368
59.7652
60.5332
61.149
61.6208
61.9564
62.1634
62.2491
62.2206
62.0847
61.8479
61.5168
61.0972
60.595
60.0159
59.3652
58.648
57.8693
57.0336
56.1455
55.2092
54.2287
53.2078
52.1501
51.0591
49.9379
48.7896
47.6171
46.423
45.2099
43.98
42.7356
41.4787
40.2112
38.9348
37.651
36.3614
35.0673
33.7699
32.4703
31.1695
29.8683
28.5676
27.2679
25.9699
24.6741
23.3808
22.0905
20.8033
19.5194
18.239
16.9621
15.6888
14.4189
13.1523
11.889
10.6287
9.37122
8.1163
6.86365
5.61296
4.3639
3.11614
1.86931
0.623041
-151.222
-138.4
-126.08
-114.255
-102.92
-92.0667
-81.6883
-71.7764
-62.322
-53.316
-44.7487
-36.6102
-28.8901
-21.578
-14.6632
-8.13459
-1.98128
3.8079
9.24413
14.3386
19.1026
23.5472
27.6837
31.5231
35.0764
38.3545
41.3681
44.1277
46.6438
48.9267
50.9863
52.8325
54.475
55.9231
57.1862
58.2731
59.1926
59.9532
60.5632
61.0305
61.3629
61.5679
61.6527
61.6245
61.4899
61.2554
60.9274
60.5118
60.0145
59.4409
58.7965
58.0862
57.3149
56.4872
55.6076
54.6803
53.7091
52.698
51.6505
50.5699
49.4595
48.3222
47.1609
45.9783
44.7768
43.5587
42.3262
41.0814
39.826
38.5618
37.2903
36.0131
34.7314
33.4464
32.1593
30.8709
29.5822
28.2939
27.0067
25.7211
24.4377
23.1569
21.8789
20.604
19.3324
18.0643
16.7996
15.5385
14.2807
13.0263
11.7751
10.5269
9.28145
8.03854
6.79789
5.55919
4.3221
3.08629
1.8514
0.617072
-149.722
-137.027
-124.829
-113.122
-101.899
-91.1534
-80.8781