/*--------------------------------*- C++ -*----------------------------------*\
| =========                 |                                                 |
| \\      /  F ield         | OpenFOAM: The Open Source CFD Toolbox           |
|  \\    /   O peration     | Version:  2406                                  |
|   \\  /    A nd           | Website:  www.openfoam.com                      |
|    \\/     M anipulation  |                                                 |
\*---------------------------------------------------------------------------*/
FoamFile
{
    version     2.0;
    format      ascii;
    arch        "LSB;label=32;scalar=64";
    class       volScalarField;
    location    "165";
    object      gradTy;
}
// * * * * * * * * * * * * * * * * * * * * * * * * * * * * * * * * * * * * * //

dimensions      [0 -1 0 1 0 0 0];

internalField   nonuniform List<scalar> 
20000
(
-236.926
-223.246
-209.896
-196.887
-184.228
-171.929
-159.995
-148.433
-137.245
-126.435
-116.005
-105.954
-96.2815
-86.9865
-78.0665
-69.5181
-61.3374
-53.5198
-46.0598
-38.9518
-32.1895
-25.7662
-19.675
-13.9083
-8.45861
-3.31783
1.52215
6.06967
10.3332
14.3212
18.0425
21.5055
24.7192
27.692
30.4327
32.9499
35.2521
37.3477
39.2452
40.9526
42.4781
43.8297
45.0152
46.0421
46.9179
47.65
48.2454
48.7109
49.0534
49.2794
49.395
49.4065
49.3198
49.1404
48.874
48.5257
48.1008
47.6039
47.0398
46.413
45.7278
44.9881
44.1979
43.3609
42.4806
41.5603
40.6031
39.6121
38.5901
37.5396
36.4632
35.3633
34.2419
33.1012
31.9431
30.7692
29.5813
28.3809
27.1693
25.9479
24.7178
23.4801
22.2357
20.9856
19.7305
18.4712
17.2083
15.9422
14.6737
13.4029
12.1305
10.8566
9.58148
8.30548
7.02876
5.75147
4.47376
3.19575
1.91753
0.639189
-236.867
-223.191
-209.844
-196.838
-184.183
-171.886
-159.955
-148.396
-137.211
-126.404
-115.976
-105.927
-96.2576
-86.965
-78.0472
-69.501
-61.3223
-53.5066
-46.0484
-38.9421
-32.1815
-25.7598
-19.6701
-13.9049
-8.45653
-3.31702
1.52177
6.06817
10.3306
14.3177
18.038
21.5002
24.7131
27.6852
30.4252
32.9418
35.2434
37.3385
39.2355
40.9425
42.4677
43.8189
45.0041
46.0307
46.9064
47.6382
48.2335
48.6989
49.0413
49.2672
49.3828
49.3943
49.3076
49.1283
48.8619
48.5138
48.0889
47.5922
47.0282
46.4016
45.7165
44.977
44.187
43.3502
42.4701
41.55
40.5931
39.6023
38.5805
37.5303
36.4542
35.3546
34.2335
33.0931
31.9352
30.7616
29.574
28.3739
27.1626
25.9415
24.7117
23.4743
22.2303
20.9805
19.7257
18.4667
17.204
15.9383
14.67
13.3996
12.1275
10.8539
9.57912
8.30343
7.02702
5.75005
4.47266
3.19496
1.91706
0.639032
-236.751
-223.081
-209.741
-196.741
-184.092
-171.801
-159.876
-148.323
-137.143
-126.342
-115.919
-105.875
-96.2101
-86.9221
-78.0087
-69.4667
-61.2921
-53.4801
-46.0257
-38.9229
-32.1656
-25.7471
-19.6604
-13.8981
-8.45236
-3.31539
1.52102
6.06517
10.3255
14.3106
18.0291
21.4896
24.7009
27.6715
30.4102
32.9255
35.226
37.3201
39.2161
40.9223
42.4467
43.7973
44.9819
46.008
46.8832
47.6147
48.2097
48.6749
49.0171
49.2429
49.3585
49.37
49.2833
49.104
48.8378
48.4898
48.0652
47.5687
47.005
46.3787
45.6939
44.9548
44.1652
43.3288
42.4491
41.5295
40.5731
39.5828
38.5615
37.5118
36.4362
35.3371
34.2166
33.0767
31.9194
30.7465
29.5594
28.3599
27.1492
25.9287
24.6995
23.4627
22.2193
20.9701
19.7159
18.4575
17.1955
15.9304
14.6628
13.393
12.1215
10.8485
9.57439
8.29934
7.02356
5.74722
4.47045
3.19338
1.91611
0.638716
-236.575
-222.916
-209.586
-196.595
-183.955
-171.674
-159.758
-148.213
-137.042
-126.248
-115.833
-105.797
-96.1388
-86.8578
-77.951
-69.4153
-61.2467
-53.4405
-45.9916
-38.8941
-32.1418
-25.7281
-19.6459
-13.8878
-8.44611
-3.31294
1.51989
6.06068
10.3179
14.3
18.0158
21.4737
24.6826
27.651
30.3877
32.9011
35.1999
37.2925
39.1871
40.892
42.4153
43.7649
44.9486
45.9739
46.8485
47.5795
48.174
48.6389
48.9808
49.2064
49.3219
49.3334
49.2468
49.0677
48.8016
48.4539
48.0296
47.5334
46.9702
46.3443
45.6601
44.9215
44.1325
43.2967
42.4177
41.4988
40.543
39.5535
38.5329
37.484
36.4093
35.3109
34.1913
33.0522
31.8958
30.7237
29.5376
28.3389
27.1291
25.9095
24.6812
23.4453
22.2028
20.9546
19.7013
18.4439
17.1828
15.9186
14.6519
13.3831
12.1125
10.8405
9.5673
8.29319
7.01836
5.74296
4.46714
3.19102
1.91469
0.638243
-236.341
-222.696
-209.379
-196.401
-183.774
-171.505
-159.6
-148.066
-136.906
-126.123
-115.718
-105.692
-96.0439
-86.772
-77.874
-69.3467
-61.1862
-53.3877
-45.9461
-38.8556
-32.11
-25.7027
-19.6265
-13.8741
-8.43777
-3.30967
1.51839
6.0547
10.3077
14.2859
17.998
21.4525
24.6582
27.6237
30.3577
32.8687
35.1652
37.2556
39.1484
40.8516
42.3734
43.7216
44.9042
45.9285
46.8022
47.5325
48.1264
48.5908
48.9325
49.1578
49.2732
49.2847
49.1981
49.0192
48.7534
48.4061
47.9821
47.4865
46.9238
46.2986
45.615
44.8771
44.0889
43.254
42.3758
41.4578
40.503
39.5144
38.4949
37.447
36.3733
35.2761
34.1575
33.0196
31.8643
30.6933
29.5084
28.3109
27.1023
25.8839
24.6568
23.4222
22.1809
20.9339
19.6819
18.4257
17.1658
15.9029
14.6375
13.3699
12.1005
10.8298
9.55785
8.285
7.01142
5.73729
4.46273
3.18787
1.9128
0.637613
-236.049
-222.421
-209.12
-196.159
-183.547
-171.293
-159.403
-147.883
-136.737
-125.967
-115.575
-105.562
-95.9252
-86.6648
-77.7778
-69.261
-61.1106
-53.3217
-45.8893
-38.8076
-32.0704
-25.6709
-19.6022
-13.8569
-8.42735
-3.30558
1.51651
6.04722
10.295
14.2683
17.9757
21.426
24.6278
27.5896
30.3202
32.8281
35.1217
37.2096
39.1
40.8011
42.321
43.6676
44.8487
45.8718
46.7444
47.4738
48.0669
48.5308
48.872
49.0971
49.2123
49.2238
49.1373
48.9587
48.6932
48.3463
47.9228
47.4278
46.8658
46.2414
45.5586
44.8217
44.0344
43.2005
42.3234
41.4065
40.4529
39.4656
38.4473
37.4007
36.3284
35.2325
34.1153
32.9788
31.8249
30.6554
29.4719
28.2759
27.0688
25.8519
24.6264
23.3932
22.1535
20.908
19.6576
18.4029
17.1446
15.8833
14.6194
13.3534
12.0856
10.8164
9.54604
8.27476
7.00276
5.7302
4.45722
3.18393
1.91044
0.636825
-235.699
-222.091
-208.81
-195.867
-183.274
-171.039
-159.167
-147.664
-136.534
-125.781
-115.404
-105.405
-95.7829
-86.5362
-77.6624
-69.1583
-61.0199
-53.2426
-45.8213
-38.75
-32.0228
-25.6328
-19.5731
-13.8364
-8.41485
-3.30068
1.51426
6.03824
10.2797
14.2471
17.9491
21.3942
24.5912
27.5487
30.2752
32.7793
35.0696
37.1544
39.042
40.7406
42.2582
43.6028
44.7821
45.8037
46.675
47.4033
47.9956
48.4588
48.7995
49.0243
49.1393
49.1508
49.0644
48.886
48.621
48.2745
47.8517
47.3574
46.7963
46.1727
45.491
44.7552
43.9691
43.1364
42.2606
41.3451
40.3929
39.407
38.3903
37.3453
36.2745
35.1802
34.0647
32.9299
31.7777
30.6099
29.4282
28.234
27.0287
25.8136
24.5898
23.3585
22.1206
20.877
19.6284
18.3756
17.1192
15.8597
14.5977
13.3336
12.0677
10.8003
9.53188
8.26248
6.99237
5.7217
4.4506
3.1792
1.9076
0.63588
-235.291
-221.706
-208.448
-195.528
-182.957
-170.742
-158.891
-147.408
-136.298
-125.563
-115.204
-105.222
-95.617
-86.3862
-77.5278
-69.0384
-60.9142
-53.1504
-45.7419
-38.6829
-31.9673
-25.5884
-19.5392
-13.8124
-8.40027
-3.29496
1.51164
6.02779
10.2619
14.2224
17.918
21.3572
24.5486
27.5009
30.2227
32.7226
35.0089
37.09
38.9744
40.67
42.185
43.5273
44.7046
45.7244
46.5942
47.3212
47.9124
48.3748
48.7149
48.9393
49.0542
49.0656
48.9794
48.8013
48.5367
48.1909
47.7688
47.2754
46.7152
46.0927
45.4122
44.6776
43.8929
43.0617
42.1874
41.2735
40.3229
39.3388
38.3238
37.2805
36.2116
35.1192
34.0056
32.8728
31.7226
30.5569
29.3772
28.1851
26.9818
25.7689
24.5472
23.3181
22.0823
20.8408
19.5944
18.3437
17.0895
15.8322
14.5724
13.3104
12.0468
10.7816
9.51536
8.24817
6.98025
5.71178
4.44289
3.1737
1.9043
0.634778
-234.824
-221.266
-208.035
-195.14
-182.594
-170.404
-158.576
-147.116
-136.028
-125.314
-114.976
-105.014
-95.4274
-86.215
-77.3741
-68.9016
-60.7934
-53.045
-45.6512
-38.6062
-31.9039
-25.5377
-19.5005
-13.785
-8.38361
-3.28842
1.50865
6.01584
10.2415
14.1942
17.8825
21.3148
24.5
27.4464
30.1628
32.6577
34.9395
37.0165
38.8971
40.5894
42.1014
43.441
44.6159
45.6337
46.5018
47.2274
47.8175
48.2789
48.6184
48.8423
48.9569
48.9683
48.8823
48.7046
48.4405
48.0953
47.6741
47.1817
46.6226
46.0014
45.3222
44.5891
43.8059
42.9763
42.1038
41.1916
40.243
39.2608
38.2478
37.2066
36.1398
35.0496
33.9382
32.8076
31.6597
30.4963
29.319
28.1292
26.9284
25.7178
24.4986
23.2718
22.0385
20.7995
19.5555
18.3074
17.0556
15.8008
14.5435
13.2841
12.0229
10.7603
9.49649
8.23182
6.96641
5.70046
4.43408
3.1674
1.90052
0.63352
-234.3
-220.772
-207.57
-194.705
-182.186
-170.023
-158.222
-146.787
-135.724
-125.034
-114.719
-104.779
-95.2143
-86.0225
-77.2013
-68.7477
-60.6576
-52.9266
-45.5492
-38.52
-31.8327
-25.4807
-19.4569
-13.7542
-8.36489
-3.28107
1.50528
6.00241
10.2187
14.1625
17.8425
21.2672
24.4453
27.3851
30.0955
32.5848
34.8614
36.9339
38.8103
40.4988
42.0074
43.344
44.5163
45.5318
46.398
47.1219
47.7107
48.1711
48.5098
48.7332
48.8476
48.859
48.7732
48.5958
48.3323
47.9879
47.5677
47.0763
46.5185
45.8986
45.221
44.4895
43.7081
42.8803
42.0098
41.0997
40.1531
39.1731
38.1624
37.1236
36.0591
34.9713
33.8624
32.7344
31.589
30.4282
29.2535
28.0664
26.8682
25.6603
24.4439
23.2199
21.9893
20.753
19.5119
18.2665
17.0175
15.7656
14.511
13.2544
11.996
10.7362
9.47529
8.21343
6.95086
5.68773
4.42418
3.16033
1.89628
0.632105
-233.718
-220.224
-207.054
-194.221
-181.734
-169.601
-157.829
-146.423
-135.387
-124.723
-114.434
-104.519
-94.9777
-85.8087
-77.0095
-68.5769
-60.5069
-52.795
-45.4361
-38.4243
-31.7536
-25.4173
-19.4086
-13.72
-8.3441
-3.27291
1.50155
5.98751
10.1933
14.1274
17.7982
21.2144
24.3845
27.3171
30.0207
32.5038
34.7748
36.8421
38.7138
40.3981
41.903
43.2363
44.4057
45.4187
46.2827
47.0048
47.5921
48.0514
48.3893
48.6121
48.7262
48.7376
48.652
48.4751
48.2122
47.8687
47.4495
46.9593
46.4029
45.7846
45.1086
44.3789
43.5995
42.7738
41.9054
40.9975
40.0533
39.0758
38.0675
37.0313
35.9695
34.8845
33.7783
32.653
31.5106
30.3526
29.1808
27.9966
26.8015
25.5966
24.3831
23.1622
21.9347
20.7015
19.4634
18.2211
16.9753
15.7264
14.475
13.2215
11.9662
10.7096
9.45174
8.19302
6.93359
5.67359
4.41319
3.15248
1.89156
0.630534
-233.078
-219.621
-206.487
-193.689
-181.236
-169.136
-157.396
-146.022
-135.016
-124.382
-114.121
-104.233
-94.7177
-85.5738
-76.7987
-68.3891
-60.3413
-52.6505
-45.3117
-38.3191
-31.6667
-25.3478
-19.3555
-13.6825
-8.32125
-3.26395
1.49745
5.97112
10.1654
14.0887
17.7495
21.1563
24.3178
27.2423
29.9385
32.4148
34.6796
36.7412
38.6078
40.2875
41.7883
43.1179
44.2841
45.2944
46.156
46.8762
47.4618
47.9199
48.2568
48.4791
48.5928
48.6041
48.5188
48.3423
48.0802
47.7376
47.3196
46.8308
46.2759
45.6593
44.9851
44.2574
43.4801
42.6567
41.7907
40.8853
39.9437
38.9688
37.9633
36.9299
35.871
34.7889
33.6858
32.5636
31.4243
30.2695
29.1009
27.92
26.7281
25.5265
24.3164
23.0988
21.8746
20.6448
19.4101
18.1712
16.9288
15.6833
14.4353
13.1853
11.9335
10.6802
9.42587
8.17059
6.9146
5.65806
4.4011
3.14385
1.88639
0.628808
-232.381
-218.964
-205.87
-193.11
-180.694
-168.63
-156.926
-145.585
-134.612
-124.01
-113.779
-103.921
-94.4343
-85.3177
-76.5689
-68.1845
-60.1607
-52.493
-45.1761
-38.2045
-31.5719
-25.2719
-19.2975
-13.6415
-8.29635
-3.25418
1.49297
5.95326
10.135
14.0465
17.6964
21.093
24.245
27.1608
29.849
32.3179
34.5759
36.6313
38.4923
40.167
41.6633
42.9889
44.1516
45.1588
46.0179
46.7359
47.3198
47.7765
48.1124
48.334
48.4474
48.4587
48.3736
48.1977
47.9364
47.5948
47.178
46.6907
46.1374
45.5226
44.8505
44.125
43.35
42.5291
41.6656
40.763
39.8242
38.8522
37.8497
36.8194
35.7637
34.6849
33.585
32.4662
31.3303
30.1789
29.0138
27.8364
26.6481
25.4501
24.2436
23.0296
21.8092
20.583
19.352
18.1169
16.8781
15.6364
14.3922
13.1458
11.8977
10.6483
9.39766
8.14614
6.89391
5.64113
4.38794
3.13444
1.88074
0.626926
-231.626
-218.253
-205.201
-192.482
-180.107
-168.083
-156.416
-145.112
-134.175
-123.607
-113.41
-103.583
-94.1276
-85.0407
-76.3202
-67.9631
-59.9654
-52.3225
-45.0294
-38.0804
-31.4694
-25.1898
-19.2349
-13.5972
-8.2694
-3.2436
1.48813
5.93394
10.1021
14.0009
17.6389
21.0245
24.1663
27.0726
29.752
32.2129
34.4636
36.5123
38.3673
40.0366
41.528
42.8493
44.0082
45.0122
45.8684
46.5841
47.1662
47.6213
47.9562
48.177
48.2901
48.3013
48.2165
48.0412
47.7807
47.4402
47.0248
46.539
45.9876
45.3748
44.7048
43.9817
43.2092
42.3909
41.5303
40.6306
39.6948
38.726
37.7268
36.6998
35.6476
34.5722
33.4759
32.3608
31.2285
30.0809
28.9196
27.746
26.5616
25.3675
24.1649
22.9548
21.7383
20.5162
19.2892
18.058
16.8233
15.5856
14.3454
13.1031
11.8591
10.6137
9.36714
8.11969
6.87152
5.62281
4.37368
3.12426
1.87463
0.62489
-230.814
-217.488
-204.482
-191.808
-179.476
-167.493
-155.868
-144.603
-133.705
-123.174
-113.012
-103.22
-93.7977
-84.7426
-76.0527
-67.7249
-59.7552
-52.1391
-44.8716
-37.9469
-31.3591
-25.1015
-19.1674
-13.5496
-8.24041
-3.23222
1.48292
5.91315
10.0667
13.9519
17.5771
20.9509
24.0816
26.9777
29.6478
32.1
34.3428
36.3844
38.2328
39.8962
41.3824
42.6991
43.854
44.8544
45.7077
46.4208
47.0009
47.4544
47.7881
48.0082
48.1208
48.132
48.0475
47.8728
47.6132
47.274
46.8599
46.3759
45.8264
45.2158
44.5482
43.8276
43.0578
42.2423
41.3847
40.4882
39.5557
38.5903
37.5946
36.5712
35.5226
34.451
33.3586
32.2473
31.119
29.9755
28.8182
27.6488
26.4685
25.2785
24.0802
22.8744
21.6621
20.4443
19.2216
17.9947
16.7643
15.531
14.2951
13.0572
11.8175
10.5765
9.33431
8.09123
6.84744
5.6031
4.35835
3.11331
1.86806
0.6227
-229.945
-216.669
-203.712
-191.086
-178.8
-166.863
-155.281
-144.059
-133.201
-122.71
-112.587
-102.832
-93.4446
-84.4236
-75.7664
-67.4699
-59.5303
-51.9428
-44.7026
-37.8041
-31.241
-25.007
-19.0953
-13.4986
-8.20938
-3.22005
1.47735
5.8909
10.0288
13.8994
17.511
20.872
23.991
26.8762
29.5362
31.9792
34.2135
36.2474
38.0889
39.7461
41.2267
42.5384
43.6889
44.6856
45.5356
46.2461
46.8239
47.2758
47.6082
47.8275
47.9397
47.9509
47.8667
47.6926
47.434
47.096
46.6836
46.2013
45.6539
45.0456
44.3805
43.6626
42.8957
42.0833
41.229
40.3358
39.4068
38.445
37.4531
36.4336
35.3889
34.3214
33.233
32.1259
31.0019
29.8627
28.7098
27.5447
26.3688
25.1834
23.9895
22.7883
21.5806
20.3673
19.1492
17.927
16.7012
15.4725
14.2413
13.008
11.7731
10.5367
9.29917
8.06077
6.82166
5.58201
4.34195
3.10159
1.86103
0.620356
-229.02
-215.797
-202.892
-190.317
-178.08
-166.191
-154.656
-143.479
-132.665
-122.216
-112.134
-102.418
-93.0685
-84.0838
-75.4615
-67.1984
-59.2906
-51.7338
-44.5227
-37.6519
-31.1153
-24.9064
-19.0184
-13.4442
-8.17633
-3.20708
1.47142
5.8672
9.98844
13.8434
17.4405
20.788
23.8944
26.768
29.4173
31.8505
34.0758
36.1015
37.9356
39.5861
41.0607
42.3672
43.5131
44.5057
45.3523
46.06
46.6355
47.0855
47.4166
47.635
47.7468
47.7579
47.674
47.5006
47.2431
46.9065
46.4957
46.0154
45.4701
44.8642
44.2018
43.4869
42.723
41.914
41.063
40.1734
39.2482
38.2903
37.3023
36.2869
35.2465
34.1832
33.0993
31.9966
30.8771
29.7425
28.5942
27.4338
26.2627
25.082
23.893
22.6966
21.4937
20.2853
19.0721
17.8548
16.634
15.4102
14.184
12.9557
11.7257
10.4943
9.26174
8.02832
6.7942
5.55954
4.32447
3.08911
1.85354
0.617859
-228.038
-214.871
-202.022
-189.501
-177.317
-165.479
-153.993
-142.864
-132.096
-121.692
-111.653
-101.979
-92.6694
-83.7233
-75.1379
-66.9102
-59.0364
-51.5119
-44.3318
-37.4904
-30.9818
-24.7996
-18.9369
-13.3866
-8.14126
-3.19332
1.46512
5.84205
9.94562
13.7841
17.3657
20.6989
23.7919
26.6533
29.2912
31.7139
33.9297
35.9467
37.773
39.4164
40.8847
42.1855
43.3265
44.3149
45.1579
45.8625
46.4355
46.8836
47.2133
47.4307
47.542
47.5531
47.4696
47.2969
47.0405
46.7053
46.2963
45.8181
45.2752
44.6719
44.0123
43.3004
42.5398
41.7342
40.8869
40.0011
39.0799
38.1261
37.1424
36.1313
35.0953
34.0366
32.9573
31.8594
30.7447
29.6149
28.4716
27.3162
26.1501
24.9745
23.7905
22.5992
21.4016
20.1983
18.9903
17.7783
16.5627
15.3442
14.1232
12.9001
11.6754
10.4493
9.22203
7.9939
6.76507
5.5357
4.30593
3.07586
1.84559
0.61521
-226.999
-213.893
-201.102
-188.638
-176.51
-164.725
-153.292
-142.214
-131.495
-121.138
-111.144
-101.514
-92.2475
-83.3421
-74.7958
-66.6056
-58.7676
-51.2774
-44.1299
-37.3197
-30.8408
-24.6867
-18.8506
-13.3256
-8.10418
-3.17877
1.45845
5.81546
9.90034
13.7213
17.2866
20.6046
23.6836
26.5319
29.1578
31.5695
33.7752
35.7831
37.601
39.2369
40.6985
41.9935
43.1292
44.1131
44.9523
45.6536
46.2241
46.6701
46.9983
47.2147
47.3255
47.3366
47.2534
47.0816
46.8263
46.4927
46.0855
45.6094
45.069
44.4685
43.8119
43.1032
42.3461
41.5442
40.7008
39.819
38.902
37.9525
36.9732
35.9668
34.9355
33.8816
32.8073
31.7144
30.6047
29.4801
28.3419
27.1918
26.031
24.8608
23.6822
22.4963
21.3041
20.1064
18.9039
17.6973
16.4873
15.2743
14.0589
12.8414
11.6222
10.4017
9.18003
7.9575
6.73427
5.5105
4.28632
3.06185
1.83719
0.612408
-225.905
-212.862
-200.133
-187.728
-175.659
-163.931
-152.553
-141.528
-130.861
-120.554
-110.609
-101.025
-91.8028
-82.9403
-74.4352
-66.2845
-58.4843
-51.0302
-43.9172
-37.1398
-30.6921
-24.5676
-18.7597
-13.2614
-8.06511
-3.16344
1.45143
5.78743
9.85262
13.6552
17.2033
20.5053
23.5694
26.404
29.0172
31.4173
33.6124
35.6106
37.4197
39.0477
40.5023
41.791
42.9213
43.9005
44.7356
45.4336
46.0012
46.4452
46.7717
46.9871
47.0974
47.1084
47.0256
46.8546
46.6006
46.2685
45.8633
45.3896
44.8517
44.2541
43.6007
42.8954
42.142
41.3439
40.5045
39.627
38.7144
37.7695
36.795
35.7934
34.7671
33.7183
32.6491
31.5615
30.4572
29.3379
28.2053
27.0607
25.9055
24.7409
23.568
22.3879
21.2014
20.0094
18.8127
17.612
16.4078
15.2007
13.9911
12.7795
11.5662
10.3515
9.13578
7.91914
6.7018
5.48393
4.26566
3.04709
1.82833
0.609456
-224.755
-211.778
-199.114
-186.773
-174.764
-163.097
-151.776
-140.807
-130.195
-119.94
-110.045
-100.511
-91.3354
-82.518
-74.0563
-65.947
-58.1865
-50.7704
-43.6936
-36.9507
-30.5358
-24.4426
-18.6642
-13.1938
-8.02404
-3.14733
1.44404
5.75797
9.80247
13.5857
17.1157
20.4009
23.4495
26.2696
28.8695
31.2574
33.4413
35.4293
37.2292
38.849
40.2961
41.5783
42.7028
43.677
44.5078
45.2023
45.767
46.2087
46.5336
46.7479
46.8576
46.8685
46.7862
46.6161
46.3633
46.033
45.6298
45.1585
44.6234
44.0288
43.3787
42.677
41.9274
41.1334
40.2983
39.4253
38.5173
37.5772
36.6077
35.6112
34.5901
33.5466
32.4829
31.4008
30.3021
29.1886
28.0617
26.923
25.7736
24.6149
23.448
22.2739
21.0935
19.9076
18.717
17.5223
16.3243
15.1233
13.9199
12.7144
11.5073
10.2988
9.08927
7.87882
6.66768
5.45601
4.24394
3.03158
1.81902
0.606353
-223.549
-210.642
-198.046
-185.771
-173.827
-162.222
-150.962
-140.052
-129.496
-119.297
-109.455
-99.9716
-90.8455
-82.0754
-73.659
-65.5933
-57.8744
-50.4981
-43.4592
-36.7525
-30.372
-24.3115
-18.5641
-13.1231
-7.981
-3.13044
1.4363
5.72709
9.7499
13.5128
17.0239
20.2915
23.3237
26.1287
28.7147
31.0897
33.2619
35.2392
37.0295
38.6406
40.08
41.3553
42.4738
43.4427
44.2691
44.9598
45.5216
45.9609
46.284
46.4972
46.6063
46.6171
46.5353
46.366
46.1147
45.7861
45.3851
44.9163
44.384
43.7926
43.146
42.4481
41.7026
40.9128
40.0822
39.2138
38.3107
37.3757
36.4113
35.4202
34.4046
33.3667
32.3087
31.2324
30.1396
29.032
27.9112
26.7785
25.6354
24.4829
23.3223
22.1544
20.9803
19.8008
18.6166
17.4283
16.2367
15.0422
13.8452
12.6462
11.4456
10.2436
9.04051
7.83656
6.63192
5.42675
4.22118
3.01532
1.80927
0.603101
-222.289
-209.455
-196.929
-184.723
-172.847
-161.307
-150.111
-139.262
-128.766
-118.624
-108.838
-99.4078
-90.3332
-81.6126
-73.2437
-65.2234
-57.5481
-50.2133
-43.2142
-36.5453
-30.2008
-24.1743
-18.4594
-13.049
-7.93598
-3.11278
1.42821
5.6948
9.69492
13.4366
16.9279
20.1771
23.1922
25.9813
28.5527
30.9144
33.0744
35.0405
36.8207
38.4227
39.854
41.122
42.2342
43.1977
44.0194
44.7063
45.2649
45.7017
46.023
46.235
46.3435
46.3543
46.2728
46.1046
45.8546
45.5279
45.1291
44.663
44.1337
43.5457
42.9027
42.2088
41.4674
40.6821
39.8561
38.9927
38.0947
37.1649
36.206
35.2204
34.2105
33.1785
32.1265
31.0562
29.9696
28.8683
27.7538
26.6275
25.4908
24.3448
23.1907
22.0295
20.862
19.6891
18.5116
17.3301
16.1451
14.9573
13.7671
12.5749
11.381
10.1858
8.98953
7.79237
6.59452
5.39614
4.19737
2.99831
1.79906
0.5997
-220.973
-208.215
-195.764
-183.63
-171.824
-160.352
-149.222
-138.438
-128.004
-117.922
-108.194
-98.8195
-89.7986
-81.1296
-72.8102
-64.8374
-57.2075
-49.9161
-42.9584
-36.329
-30.022
-24.0313
-18.3502
-12.9718
-7.88901
-3.09435
1.41976
5.6611
9.63755
13.3571
16.8278
20.0577
23.0549
25.8276
28.3838
30.7315
32.8786
34.8332
36.6028
38.1953
39.6181
40.8787
41.9843
42.9421
43.7589
44.4417
44.997
45.4312
45.7506
45.9613
46.0692
46.0799
45.999
45.8317
45.5832
45.2584
44.862
44.3986
43.8726
43.288
42.6488
41.959
41.222
40.4413
39.6203
38.7619
37.8692
36.9449
35.9917
35.012
34.0081
32.9822
31.9363
30.8724
29.7923
28.6975
27.5895
26.4699
25.34
24.2008
23.0535
21.8991
20.7385
19.5726
18.402
17.2275
16.0496
14.8688
13.6856
12.5005
11.3137
10.1255
8.93633
7.74625
6.55549
5.36421
4.17253
2.98057
1.78842
0.59615
-219.603
-206.924
-194.55
-182.492
-170.758
-159.358
-148.297
-137.58
-127.21
-117.191
-107.523
-98.2068
-89.2419
-80.6266
-72.3588
-64.4354
-56.8528
-49.6066
-42.6921
-36.1037
-29.8359
-23.8823
-18.2364
-12.8914
-7.84009
-3.07516
1.41096
5.62601
9.5778
13.2743
16.7234
19.9333
22.912
25.6675
28.2078
30.5409
32.6748
34.6172
36.3759
37.9585
39.3725
40.6252
41.724
42.6758
43.4876
44.1662
44.718
45.1495
45.467
45.6764
45.7836
45.7942
45.7138
45.5476
45.3006
44.9778
44.5839
44.1234
43.6005
43.0196
42.3844
41.6988
40.9664
40.1906
39.3746
38.5216
37.6344
36.7159
35.7685
34.7949
33.7972
32.7777
31.7383
30.681
29.6075
28.5195
27.4185
26.3058
25.1828
24.0507
22.9106
21.7633
20.61
19.4513
18.2879
17.1207
15.9501
14.7766
13.6008
12.423
11.2435
10.0628
8.88092
7.69822
6.51484
5.33095
4.14666
2.96209
1.77733
0.592454
-218.179
-205.582
-193.288
-181.308
-169.651
-158.325
-147.335
-136.688
-126.385
-116.431
-106.826
-97.5699
-88.6631
-80.1037
-71.8895
-64.0175
-56.4841
-49.2849
-42.4152
-35.8696
-29.6424
-23.7274
-18.1181
-12.8078
-7.78924
-3.05522
1.40182
5.58952
9.51569
13.1882
16.615
19.804
22.7634
25.501
28.0248
30.3428
32.4629
34.3927
36.14
37.7123
39.1171
40.3618
41.4534
42.399
43.2056
43.8797
44.428
44.8567
45.1721
45.3801
45.4866
45.4972
45.4173
45.2522
45.0068
44.6861
44.2947
43.8372
43.3178
42.7406
42.1095
41.4284
40.7007
39.9299
39.1192
38.2718
37.3903
36.4778
35.5366
34.5692
33.578
32.5651
31.5325
30.482
29.4155
28.3346
27.2407
26.1352
25.0195
23.8947
22.762
21.6222
20.4763
19.3251
18.1693
17.0096
15.8466
14.6808
13.5126
12.3424
11.1706
9.9975
8.82332
7.64829
6.47259
5.29637
4.11977
2.94288
1.7658
0.588612
-216.701
-204.189
-191.979
-180.08
-168.502
-157.252
-146.337
-135.762
-125.529
-115.642
-106.102
-96.9089
-88.0624
-79.561
-71.4024
-63.5838
-56.1014
-48.951
-42.1278
-35.6266
-29.4415
-23.5666
-17.9954
-12.721
-7.73647
-3.03452
1.39232
5.55166
9.45122
13.0988
16.5024
19.6699
22.6092
25.3282
27.835
30.1373
32.2429
34.1597
35.8951
37.4568
38.8521
40.0883
41.1726
42.1118
42.9129
43.5824
44.127
44.5528
44.8661
45.0727
45.1785
45.189
45.1096
44.9456
44.7019
44.3834
43.9947
43.5402
43.0243
42.451
41.8242
41.1477
40.425
39.6594
38.8542
38.0125
37.137
36.2306
35.2958
34.335
33.3505
32.3445
31.3189
30.2755
29.2162
28.1426
27.0561
25.9582
24.85
23.7329
22.6078
21.4757
20.3376
19.1942
18.0462
16.8944
15.7393
14.5813
13.421
12.2588
11.0949
9.92978
8.76355
7.59648
6.42874
5.26049
4.09186
2.92294
1.75384
0.584624
-215.169
-202.746
-190.622
-178.807
-167.311
-156.141
-145.303
-134.802
-124.642
-114.825
-105.352
-96.224
-87.44
-78.9987
-70.8978
-63.1344
-55.7049
-48.605
-41.8301
-35.3748
-29.2335
-23.4001
-17.8682
-12.6311
-7.68179
-3.01307
1.38248
5.51242
9.38443
13.0063
16.3858
19.5309
22.4494
25.1492
27.6383
29.9243
32.0151
33.9183
35.6414
37.1921
38.5775
39.805
40.8816
41.8142
42.6096
43.2744
43.8151
44.2379
44.549
44.7541
44.8592
44.8696
44.7908
44.6279
44.386
44.0697
43.6837
43.2325
42.7202
42.151
41.5286
40.8569
40.1393
39.3791
38.5796
37.7438
36.8746
35.9746
35.0464
34.0924
33.1148
32.1159
31.0975
30.0616
29.0098
27.9437
26.8649
25.7747
24.6744
23.5651
22.448
21.3239
20.1938
19.0585
17.9187
16.775
15.628
14.4783
13.3262
12.1722
11.0165
9.8596
8.70161
7.54279
6.38331
5.22331
4.06294
2.90228
1.74144
0.580492
-213.585
-201.253
-189.218
-177.49
-166.079
-154.991
-144.233
-133.809
-123.724
-113.979
-104.576
-95.5154
-86.7961
-78.4169
-70.3757
-62.6695
-55.2947
-48.2471
-41.522
-35.1143
-29.0182
-23.2277
-17.7366
-12.5381
-7.62522
-2.99088
1.3723
5.47183
9.31532
12.9105
16.2651
19.387
22.2841
24.964
27.4347
29.7039
31.7793
33.6685
35.379
36.9182
38.2934
39.5118
40.5805
41.5062
42.2958
42.9557
43.4924
43.9121
44.2209
44.4246
44.5288
44.5392
44.4609
44.2993
44.0591
43.7451
43.362
42.9141
42.4056
41.8406
41.2228
40.556
39.8436
39.0891
38.2955
37.4659
36.603
35.7096
34.7883
33.8413
32.871
31.8794
30.8685
29.8402
28.7961
27.7379
26.667
25.5849
24.4927
23.3916
22.2827
21.1669
20.0451
18.9182
17.7867
16.6515
15.5129
14.3716
13.228
12.0825
10.9354
9.78698
8.63753
7.48724
6.3363
5.18485
4.03302
2.88091
1.72862
0.576217
-211.947
-199.71
-187.767
-176.13
-164.806
-153.803
-143.127
-132.784
-122.776
-113.105
-103.775
-94.7832
-86.1307
-77.8158
-69.8362
-62.189
-54.8708
-47.8772
-41.2037
-34.8451
-28.7957
-23.0497
-17.6006
-12.442
-7.56677
-2.96795
1.36178
5.42988
9.2439
12.8115
16.1404
19.2384
22.1132
24.7726
27.2244
29.4762
31.5357
33.4104
35.1077
36.6352
37.9999
39.2089
40.2694
41.188
41.9715
42.6264
43.159
43.5755
43.8819
44.084
44.1875
44.1977
44.1201
43.9597
43.7213
43.4098
43.0296
42.5851
42.0805
41.5198
40.9068
40.2451
39.5382
38.7894
38.0019
37.1786
36.3224
35.4359
34.5216
33.5819
32.619
31.635
30.6319
29.6114
28.5754
27.5253
26.4626
25.3887
24.3049
23.2123
22.1118
21.0046
19.8915
18.7731
17.6504
16.5238
15.394
14.2615
13.1266
11.9899
10.8516
9.71196
8.57131
7.42984
6.28772
5.1451
4.0021
2.85882
1.71537
0.5718
-210.258
-198.118
-186.271
-174.726
-163.492
-152.577
-141.986
-131.725
-121.797
-112.204
-102.947
-94.0276
-85.4441
-77.1954
-69.2795
-61.6933
-54.4334
-47.4956
-40.8752
-34.5673
-28.5662
-22.8659
-17.4603
-12.3428
-7.50644
-2.94429
1.35093
5.38659
9.17021
12.7094
16.0118
19.085
21.9369
24.5752
27.0074
29.2412
31.2843
33.144
34.8279
36.3431
37.6969
38.8964
39.9484
40.8597
41.637
42.2866
42.815
43.2281
43.5321
43.7326
43.8352
43.8454
43.7684
43.6092
43.3728
43.0637
42.6866
42.2456
41.7451
41.1888
40.5807
39.9243
39.223
38.4802
37.699
36.8823
36.0328
35.1534
34.2464
33.3141
32.3589
31.3828
30.3877
29.3754
28.3476
27.3058
26.2517
25.1863
24.1112
23.0272
21.9356
20.8372
19.7329
18.6235
17.5097
16.3921
15.2713
14.1478
13.022
11.8943
10.7651
9.63453
8.50298
7.37061
6.2376
5.10408
3.97019
2.83603
1.70169
0.567242
-208.516
-196.477
-184.728
-173.278
-162.138
-151.313
-140.81
-130.634
-120.788
-111.274
-102.095
-93.2488
-84.7364
-76.556
-68.7056
-61.1823
-53.9825
-47.1022
-40.5367
-34.281
-28.3296
-22.6765
-17.3157
-12.2405
-7.44427
-2.9199
1.33974
5.34198
9.09426
12.6041
15.8791
18.927
21.7552
24.3716
26.7837
28.999
31.0251
32.8695
34.5394
36.0421
37.3847
38.5742
39.6175
40.5213
41.2921
41.9364
42.4603
42.8701
43.1715
43.3703
43.4721
43.4822
43.4059
43.248
43.0135
42.707
42.333
41.8957
41.3993
40.8477
40.2446
39.5936
38.8981
38.1615
37.3867
36.5768
35.7344
34.8622
33.9627
33.0382
32.0909
31.1229
30.136
29.132
28.1128
27.0797
26.0342
24.9777
23.9114
22.8365
21.7539
20.6646
19.5694
18.4692
17.3646
16.2563
15.1448
14.0306
12.9141
11.7958
10.6759
9.55473
8.43255
7.30956
6.18593
5.06181
3.93731
2.81254
1.6876
0.562543
-206.723
-194.788
-183.139
-171.788
-160.743
-150.012
-139.599
-129.511
-119.749
-110.318
-101.217
-92.4469
-84.0078
-75.8978
-68.1149
-60.6562
-53.5183
-46.6972
-40.1881
-33.9862
-28.086
-22.4816
-17.1668
-12.1353
-7.38026
-2.8948
1.32822
5.29604
9.01606
12.4957
15.7426
18.7642
21.5682
24.162
26.5534
28.7497
30.7584
32.5869
34.2424
35.7322
37.0632
38.2425
39.2768
40.1728
40.937
41.5758
42.0952
42.5015
42.8003
42.9974
43.0983
43.1083
43.0326
42.8761
42.6437
42.3398
41.969
41.5355
41.0433
40.4964
39.8985
39.2531
38.5637
37.8334
37.0652
36.2623
35.4271
34.5624
33.6707
32.7541
31.815
30.8552
29.8768
28.8815
27.871
26.8468
25.8104
24.763
23.7058
22.6401
21.5668
20.4869
19.4012
18.3104
17.2153
16.1165
15.0146
13.9099
12.8031
11.6944
10.5841
9.47257
8.36005
7.24671
6.13274
5.01828
3.90345
2.78836
1.67308
0.557706
-204.879
-193.05
-181.506
-170.256
-159.31
-148.674
-138.354
-128.356
-118.681
-109.334
-100.314
-91.6223
-83.2584
-75.2208
-67.5073
-60.1152
-53.0409
-46.2806
-39.8297
-33.6831
-27.8354
-22.281
-17.0137
-12.027
-7.31443
-2.86898
1.31637
5.2488
8.93563
12.3843
15.6022
18.5968
21.3758
23.9465
26.3165
28.4932
30.484
32.2962
33.937
35.4134
36.7326
37.9014
38.9265
39.8145
40.5719
41.2049
41.7197
42.1223
42.4185
42.6139
42.7139
42.7238
42.6488
42.4937
42.2633
41.9621
41.5946
41.165
40.6772
40.1352
39.5426
38.903
38.2197
37.4959
36.7346
35.9388
35.1111
34.2541
33.3703
32.462
31.5312
30.58
29.6103
28.6239
27.6224
26.6073
25.5801
24.5421
23.4944
22.4382
21.3745
20.3041
19.2281
18.1471
17.0618
15.9728
14.8806
13.7859
12.6889
11.59
10.4897
9.38808
8.28547
7.18207
6.07804
4.97352
3.86864
2.76349
1.65816
0.552731
-202.985
-191.265
-179.827
-168.682
-157.836
-147.299
-137.075
-127.169
-117.584
-108.323
-99.3863
-90.7751
-82.4885
-74.5252
-66.8831
-59.5593
-52.5505
-45.8527
-39.4614
-33.3716
-27.5781
-22.075
-16.8564
-11.9158
-7.2468
-2.84245
1.30419
5.20026
8.85301
12.2698
15.4579
18.4249
21.1781
23.7251
26.0732
28.2297
30.2021
31.9975
33.6231
35.086
36.393
37.5509
38.5665
39.4463
40.1967
40.8239
41.334
41.7328
42.0263
42.2198
42.3189
42.3287
42.2544
42.1008
41.8725
41.5741
41.21
40.7843
40.3011
39.7641
39.177
38.5432
37.8663
37.1492
36.3949
35.6065
34.7864
33.9374
33.0618
32.1618
31.2396
30.2972
29.3365
28.3592
27.367
26.3613
25.3436
24.3151
23.2771
22.2307
21.1768
20.1164
19.0503
17.9793
16.904
15.8251
14.743
13.6584
12.5715
11.4829
10.3927
9.30127
8.20886
7.11566
6.02183
4.92753
3.83286
2.73793
1.64283
0.54762
-201.04
-189.433
-178.105
-167.066
-156.324
-145.888
-135.762
-125.95
-116.457
-107.285
-98.4342
-89.9055
-81.6983
-73.8113
-66.2423
-58.9887
-52.0471
-45.4134
-39.0833
-33.0519
-27.3139
-21.8635
-16.6949
-11.8017
-7.17737
-2.81522
1.2917
5.15044
8.76819
12.1522
15.3098
18.2484
20.9752
23.4978
25.8234
27.9593
29.9128
31.691
33.301
34.7498
36.0443
37.1912
38.1971
39.0684
39.8116
40.4328
40.938
41.333
41.6236
41.8154
41.9135
41.9232
41.8496
41.6974
41.4713
41.1758
40.8152
40.3936
39.915
39.3831
38.8016
38.174
37.5035
36.7933
36.0463
35.2654
34.4532