/*--------------------------------*- C++ -*----------------------------------*\
| =========                 |                                                 |
| \\      /  F ield         | OpenFOAM: The Open Source CFD Toolbox           |
|  \\    /   O peration     | Version:  2406                                  |
|   \\  /    A nd           | Website:  www.openfoam.com                      |
|    \\/     M anipulation  |                                                 |
\*---------------------------------------------------------------------------*/
FoamFile
{
    version     2.0;
    format      ascii;
    arch        "LSB;label=32;scalar=64";
    class       volScalarField;
    location    "30";
    object      gradTy;
}
// * * * * * * * * * * * * * * * * * * * * * * * * * * * * * * * * * * * * * //

dimensions      [0 -1 0 1 0 0 0];

internalField   nonuniform List<scalar> 
20000
(
160.574
148.647
137.467
126.998
117.207
108.061
99.5272
91.5734
84.1699
77.2857
70.8917
64.9602
59.4644
54.378
49.6756
45.3332
41.328
37.6381
34.2426
31.1216
28.2561
25.6281
23.2208
21.018
19.0047
17.1667
15.4906
13.9639
12.5748
11.3124
10.1664
9.12718
8.18592
7.3343
6.56465
5.86985
5.24332
4.67896
4.17116
3.71477
3.30502
2.93755
2.60835
2.31375
2.05041
1.81526
1.60551
1.41861
1.25225
1.10433
0.972943
0.856366
0.753035
0.661542
0.580614
0.509105
0.445983
0.390321
0.341288
0.298138
0.260202
0.226885
0.197652
0.172029
0.149592
0.129964
0.11281
0.0978327
0.0847683
0.0733833
0.0634714
0.05485
0.0473581
0.0408538
0.0352119
0.0303226
0.0260892
0.022427
0.0192615
0.0165277
0.0141685
0.0121341
0.010381
0.00887115
0.00757143
0.00645294
0.00549051
0.00466218
0.00394883
0.00333378
0.00280246
0.00234214
0.00194161
0.00159102
0.00128163
0.00100562
0.000755946
0.000526144
0.000310222
0.000102501
160.534
148.611
137.433
126.967
117.178
108.034
99.5027
91.5511
84.1491
77.2664
70.8742
64.9443
59.4499
54.3645
49.6632
45.3219
41.3178
37.6288
34.2342
31.1139
28.2491
25.6218
23.215
21.0128
19
17.1624
15.4868
13.9604
12.5717
11.3096
10.1639
9.12493
8.1839
7.33249
6.56303
5.86841
5.24202
4.6778
4.17013
3.71385
3.3042
2.93682
2.6077
2.31318
2.04991
1.81481
1.60511
1.41826
1.25194
1.10406
0.972703
0.856154
0.75285
0.661379
0.580471
0.50898
0.445873
0.390225
0.341204
0.298064
0.260138
0.226829
0.197604
0.171987
0.149555
0.129932
0.112782
0.0978087
0.0847474
0.0733653
0.0634558
0.0548366
0.0473465
0.0408437
0.0352033
0.0303152
0.0260828
0.0224215
0.0192568
0.0165237
0.014165
0.0121312
0.0103785
0.00886898
0.00756958
0.00645137
0.00548917
0.00466104
0.00394787
0.00333297
0.00280178
0.00234157
0.00194114
0.00159064
0.00128132
0.00100538
0.000755766
0.00052602
0.000310149
0.000102478
160.454
148.537
137.365
126.904
117.121
107.981
99.4536
91.5059
84.1075
77.2282
70.8392
64.9124
59.4206
54.3377
49.6387
45.2995
41.2974
37.6103
34.2173
31.0986
28.2352
25.6092
23.2036
21.0024
18.9906
17.154
15.4791
13.9535
12.5655
11.304
10.1588
9.12042
8.17986
7.32887
6.5598
5.86551
5.23943
4.67549
4.16808
3.71202
3.30257
2.93537
2.60642
2.31204
2.0489
1.81392
1.60432
1.41756
1.25132
1.10351
0.972223
0.855732
0.752478
0.661053
0.580185
0.508729
0.445653
0.390033
0.341036
0.297917
0.26001
0.226717
0.197506
0.171902
0.149482
0.129868
0.112727
0.0977605
0.0847057
0.0733292
0.0634246
0.0548096
0.0473232
0.0408236
0.035186
0.0303003
0.02607
0.0224105
0.0192474
0.0165155
0.0141581
0.0121252
0.0103734
0.00886464
0.00756587
0.00644821
0.00548648
0.00465876
0.00394594
0.00333134
0.00280042
0.00234043
0.00194019
0.00158986
0.0012807
0.0010049
0.0007554
0.000525766
0.00031
0.000102429
160.336
148.427
137.263
126.81
117.034
107.901
99.3799
91.4381
84.0452
77.1711
70.7868
64.8643
59.3766
54.2974
49.6019
45.266
41.2668
37.5824
34.192
31.0756
28.2143
25.5902
23.1864
20.9869
18.9765
17.1412
15.4676
13.9432
12.5562
11.2956
10.1513
9.11367
8.1738
7.32345
6.55494
5.86117
5.23556
4.67203
4.16499
3.70927
3.30013
2.9332
2.60449
2.31033
2.04738
1.81258
1.60313
1.41651
1.2504
1.1027
0.971504
0.855099
0.751922
0.660564
0.579756
0.508352
0.445324
0.389744
0.340784
0.297697
0.259818
0.226549
0.19736
0.171775
0.149371
0.129772
0.112644
0.0976883
0.0846432
0.0732751
0.0633778
0.0547691
0.0472883
0.0407935
0.03516
0.0302779
0.0260508
0.022394
0.0192332
0.0165034
0.0141477
0.0121163
0.0103657
0.00885812
0.00756031
0.00644347
0.00548245
0.00465534
0.00394304
0.0033289
0.00279836
0.00233871
0.00193877
0.0015887
0.00127976
0.00100416
0.00075485
0.000525384
0.000309775
0.000102355
160.178
148.28
137.128
126.685
116.918
107.795
99.2817
91.3478
83.9622
77.0949
70.7169
64.8002
59.3179
54.2438
49.5529
45.2213
41.2261
37.5453
34.1582
31.0449
28.1864
25.5649
23.1635
20.9661
18.9578
17.1243
15.4523
13.9294
12.5438
11.2845
10.1413
9.10466
8.16573
7.31621
6.54846
5.85538
5.23038
4.66742
4.16088
3.70561
3.29687
2.9303
2.60191
2.30805
2.04536
1.81079
1.60155
1.41511
1.24916
1.10161
0.970545
0.854255
0.751179
0.659912
0.579184
0.507851
0.444884
0.38936
0.340447
0.297403
0.259561
0.226326
0.197166
0.171606
0.149224
0.129644
0.112533
0.097592
0.0845598
0.0732029
0.0633154
0.0547152
0.0472417
0.0407534
0.0351254
0.0302481
0.0260252
0.022372
0.0192143
0.0164872
0.0141338
0.0121044
0.0103556
0.00884943
0.0075529
0.00643715
0.00547708
0.00465078
0.00393918
0.00332564
0.00279563
0.00233643
0.00193688
0.00158715
0.00127851
0.00100318
0.000754115
0.000524872
0.000309474
0.000102255
159.98
148.097
136.958
126.528
116.774
107.661
99.159
91.2349
83.8584
76.9996
70.6295
64.7202
59.2446
54.1767
49.4916
45.1654
41.1751
37.499
34.1161
31.0065
28.1516
25.5333
23.1348
20.9402
18.9344
17.1031
15.4333
13.9122
12.5283
11.2705
10.1288
9.09342
8.15564
7.30717
6.54037
5.84814
5.22392
4.66165
4.15574
3.70103
3.2928
2.92668
2.5987
2.3052
2.04283
1.80855
1.59957
1.41336
1.24762
1.10025
0.969346
0.8532
0.750252
0.659097
0.578469
0.507224
0.444335
0.388879
0.340027
0.297036
0.259241
0.226047
0.196922
0.171394
0.14904
0.129484
0.112394
0.0974717
0.0844555
0.0731126
0.0632373
0.0546478
0.0471835
0.0407032
0.0350822
0.0302109
0.0259931
0.0223444
0.0191906
0.0164669
0.0141164
0.0120895
0.0103428
0.00883856
0.00754362
0.00642925
0.00547036
0.00464508
0.00393435
0.00332156
0.0027922
0.00233356
0.00193451
0.00158521
0.00127695
0.00100196
0.000753193
0.000524231
0.000309096
0.000102131
159.742
147.878
136.755
126.341
116.601
107.502
99.0119
91.0996
83.734
76.8854
70.5247
64.6241
59.1567
54.0963
49.4182
45.0984
41.1141
37.4433
34.0654
30.9605
28.1098
25.4954
23.1005
20.9091
18.9063
17.0778
15.4103
13.8915
12.5097
11.2538
10.1137
9.07992
8.14354
7.29633
6.53067
5.83947
5.21617
4.65473
4.14957
3.69554
3.28791
2.92234
2.59485
2.30178
2.0398
1.80587
1.5972
1.41127
1.24577
1.09861
0.967909
0.851935
0.749139
0.65812
0.577611
0.506472
0.443676
0.388303
0.339523
0.296596
0.258857
0.225712
0.196631
0.17114
0.148819
0.129293
0.112227
0.0973274
0.0843305
0.0730044
0.0631437
0.0545669
0.0471137
0.040643
0.0350303
0.0301662
0.0259547
0.0223114
0.0191623
0.0164426
0.0140955
0.0120716
0.0103276
0.00882551
0.00753249
0.00641977
0.00546229
0.00463823
0.00392855
0.00331667
0.00278809
0.00233013
0.00193166
0.00158288
0.00127507
0.00100048
0.000752086
0.000523461
0.000308642
0.000101981
159.465
147.621
136.518
126.122
116.398
107.315
98.8404
90.9417
83.5889
76.7522
70.4025
64.5121
59.0541
54.0026
49.3326
45.0203
41.0428
37.3785
34.0064
30.9069
28.0611
25.4513
23.0605
20.8729
18.8735
17.0482
15.3836
13.8675
12.488
11.2343
10.0962
9.06419
8.12943
7.28369
6.51935
5.82935
5.20713
4.64667
4.14238
3.68914
3.28221
2.91728
2.59035
2.29779
2.03627
1.80274
1.59443
1.40882
1.24361
1.09671
0.966232
0.850459
0.747842
0.65698
0.576611
0.505595
0.442908
0.387631
0.338936
0.296083
0.258409
0.225321
0.19629
0.170844
0.148562
0.129069
0.112033
0.097159
0.0841846
0.0728782
0.0630346
0.0544726
0.0470323
0.0405727
0.0349697
0.0301141
0.0259099
0.0222729
0.0191292
0.0164142
0.0140712
0.0120508
0.0103098
0.00881029
0.0075195
0.0064087
0.00545288
0.00463024
0.00392179
0.00331096
0.00278329
0.00232612
0.00192834
0.00158015
0.00127288
0.000998764
0.000750794
0.000522562
0.000308112
0.000101805
159.149
147.329
136.248
125.872
116.168
107.103
98.6444
90.7614
83.4232
76.6
70.2629
64.3842
58.9371
53.8955
49.2348
44.931
40.9615
37.3044
33.939
30.8456
28.0055
25.4008
23.0148
20.8315
18.8361
17.0144
15.3531
13.84
12.4632
11.212
10.0762
9.04622
8.11331
7.26925
6.50643
5.81779
5.19681
4.63746
4.13417
3.68182
3.27571
2.9115
2.58522
2.29324
2.03223
1.79917
1.59127
1.40603
1.24115
1.09454
0.964318
0.848774
0.74636
0.655679
0.575468
0.504593
0.442031
0.386863
0.338264
0.295496
0.257897
0.224875
0.195902
0.170506
0.148268
0.128813
0.111811
0.0969667
0.084018
0.072734
0.0629098
0.0543648
0.0469393
0.0404925
0.0349006
0.0300546
0.0258587
0.0222288
0.0190914
0.0163817
0.0140434
0.012027
0.0102894
0.00879289
0.00750466
0.00639606
0.00544212
0.00462111
0.00391405
0.00330443
0.00277781
0.00232154
0.00192454
0.00157704
0.00127038
0.000996799
0.000749317
0.000521534
0.000307506
0.000101605
158.794
147
135.943
125.591
115.908
106.864
98.4241
90.5588
83.2369
76.4289
70.106
64.2405
58.8055
53.7752
49.1249
44.8307
40.87
37.2211
33.8632
30.7767
27.9429
25.3441
22.9634
20.785
18.794
16.9764
15.3188
13.8091
12.4354
11.187
10.0537
9.02602
8.09519
7.25302
6.4919
5.8048
5.18521
4.6271
4.12494
3.6736
3.26839
2.90499
2.57944
2.28812
2.02769
1.79515
1.58772
1.40289
1.23838
1.09209
0.962165
0.846879
0.744694
0.654215
0.574184
0.503467
0.441044
0.385999
0.337509
0.294837
0.257322
0.224373
0.195465
0.170125
0.147937
0.128526
0.111562
0.0967505
0.0838307
0.0725718
0.0627696
0.0542436
0.0468347
0.0404023
0.0348228
0.0299876
0.0258011
0.0221793
0.0190489
0.0163453
0.0140122
0.0120003
0.0102665
0.00877333
0.00748797
0.00638183
0.00543002
0.00461083
0.00390536
0.00329709
0.00277164
0.00231638
0.00192027
0.00157354
0.00126756
0.000994587
0.000747655
0.000520377
0.000306824
0.00010138
158.399
146.634
135.606
125.279
115.62
106.598
98.1796
90.3337
83.0301
76.239
69.9318
64.0808
58.6593
53.6416
49.0028
44.7193
40.7685
37.1286
33.7791
30.7003
27.8735
25.2811
22.9063
20.7333
18.7473
16.9342
15.2808
13.7748
12.4045
11.1592
10.0287
9.00359
8.07508
7.23499
6.47577
5.79038
5.17232
4.61561
4.11469
3.66448
3.26027
2.89778
2.57304
2.28243
2.02266
1.79069
1.58378
1.39941
1.2353
1.08938
0.959775
0.844776
0.742845
0.65259
0.572758
0.502217
0.439949
0.385041
0.336671
0.294105
0.256683
0.223816
0.194979
0.169703
0.14757
0.128207
0.111285
0.0965104
0.0836227
0.0723918
0.0626139
0.0541091
0.0467185
0.0403021
0.0347365
0.0299133
0.0257371
0.0221244
0.0190017
0.0163048
0.0139774
0.0119705
0.0102411
0.00875161
0.00746943
0.00636604
0.00541658
0.00459943
0.0038957
0.00328894
0.00276478
0.00231066
0.00191552
0.00156965
0.00126443
0.000992131
0.000745808
0.000519092
0.000306066
0.00010113
157.966
146.233
135.234
124.936
115.304
106.306
97.9108
90.0864
82.8028
76.0303
69.7404
63.9054
58.4988
53.4947
48.8687
44.5969
40.6568
37.0269
33.6866
30.6162
27.7972
25.2119
22.8436
20.6766
18.696
16.8878
15.2389
13.737
12.3705
11.1286
10.0012
8.97894
8.05297
7.21519
6.45804
5.77453
5.15816
4.60297
4.10343
3.65444
3.25135
2.88984
2.56599
2.27618
2.01712
1.78579
1.57944
1.39558
1.23192
1.0864
0.957148
0.842464
0.740812
0.650805
0.571191
0.500842
0.438745
0.383987
0.33575
0.2933
0.25598
0.223204
0.194446
0.169239
0.147166
0.127857
0.110981
0.0962465
0.083394
0.0721938
0.0624427
0.0539612
0.0465908
0.0401919
0.0346416
0.0298315
0.0256668
0.0220639
0.0189498
0.0162602
0.0139393
0.0119378
0.0102131
0.00872773
0.00744905
0.00634867
0.00540181
0.00458688
0.00388508
0.00327997
0.00275725
0.00230436
0.0019103
0.00156538
0.00126098
0.000989429
0.000743778
0.000517679
0.000305233
0.000100854
157.493
145.795
134.83
124.562
114.959
105.988
97.6178
89.8169
82.555
75.8028
69.5317
63.7142
58.3237
53.3347
48.7224
44.4635
40.5352
36.9161
33.5858
30.5246
27.714
25.1364
22.7752
20.6147
18.64
16.8373
15.1933
13.6959
12.3335
11.0953
9.97132
8.95207
8.02887
7.1936
6.43872
5.75725
5.14273
4.5892
4.09115
3.64351
3.24162
2.8812
2.55831
2.26937
2.01109
1.78045
1.57472
1.3914
1.22823
1.08315
0.954285
0.839944
0.738596
0.648858
0.569482
0.499345
0.437433
0.382839
0.334746
0.292423
0.255215
0.222537
0.193865
0.168733
0.146726
0.127474
0.110649
0.0959589
0.0831448
0.0719781
0.0622562
0.0538
0.0464516
0.0400719
0.0345381
0.0297424
0.0255902
0.0219981
0.0188932
0.0162117
0.0138977
0.0119022
0.0101827
0.00870169
0.00742683
0.00632974
0.0053857
0.00457321
0.00387349
0.0032702
0.00274903
0.00229749
0.00190461
0.00156072
0.00125723
0.000986483
0.000741563
0.000516138
0.000304324
0.000100554
156.982
145.322
134.392
124.157
114.585
105.644
97.3008
89.5252
82.2869
75.5566
69.3059
63.5073
58.1343
53.1615
48.5642
44.319
40.4035
36.7962
33.4767
30.4255
27.624
25.0548
22.7012
20.5477
18.5795
16.7826
15.144
13.6515
12.2935
11.0593
9.93893
8.923
8.0028
7.17024
6.41781
5.73855
5.12603
4.57429
4.07786
3.63168
3.23109
2.87184
2.55001
2.262
2.00455
1.77466
1.5696
1.38688
1.22425
1.07963
0.951187
0.837217
0.736198
0.646752
0.567634
0.497724
0.436013
0.381596
0.33366
0.291474
0.254387
0.221814
0.193236
0.168185
0.14625
0.127061
0.11029
0.0956475
0.0828751
0.0717446
0.0620542
0.0536255
0.046301
0.0399419
0.0344261
0.029646
0.0255072
0.0219267
0.018832
0.0161592
0.0138526
0.0118637
0.0101497
0.00867351
0.00740278
0.00630924
0.00536827
0.00455841
0.00386096
0.00325962
0.00274014
0.00229006
0.00189845
0.00155567
0.00125316
0.000983293
0.000739166
0.000514469
0.000303341
0.000100229
156.431
144.813
133.921
123.722
114.184
105.274
96.9597
89.2114
81.9985
75.2918
69.063
63.2847
57.9306
52.9751
48.394
44.1637
40.2619
36.6673
33.3594
30.3188
27.5272
24.967
22.6217
20.4757
18.5144
16.7238
15.0909
13.6036
12.2504
11.0205
9.90409
8.89172
7.97475
7.1451
6.39531
5.71844
5.10806
4.55826
4.06357
3.61895
3.21977
2.86178
2.54107
2.25408
1.99753
1.76845
1.5641
1.38202
1.21996
1.07585
0.947854
0.834283
0.733619
0.644485
0.565645
0.49598
0.434486
0.38026
0.332491
0.290453
0.253496
0.221037
0.192559
0.167596
0.145738
0.126616
0.109904
0.0953126
0.0825849
0.0714934
0.061837
0.0534378
0.0461389
0.0398021
0.0343056
0.0295423
0.0254179
0.02185
0.0187661
0.0161026
0.0138042
0.0118222
0.0101142
0.00864318
0.0073769
0.00628719
0.00534951
0.00454248
0.00384747
0.00324823
0.00273057
0.00228206
0.00189182
0.00155024
0.00124879
0.000979861
0.000736586
0.000512674
0.000302282
9.98792e-05
155.842
144.268
133.417
123.256
113.754
104.877
96.5948
88.8756
81.6898
75.0084
68.803
63.0465
57.7125
52.7757
48.2118
43.9975
40.1104
36.5292
33.2338
30.2047
27.4235
24.873
22.5365
20.3986
18.4447
16.6608
15.0341
13.5524
12.2043
10.9791
9.86681
8.85825
7.94473
7.11821
6.37124
5.69691
5.08884
4.54111
4.04828
3.60533
3.20765
2.85101
2.53151
2.24559
1.99001
1.76179
1.55822
1.37682
1.21536
1.0718
0.944287
0.831144
0.730858
0.64206
0.563516
0.494114
0.432851
0.378829
0.33124
0.28936
0.252542
0.220206
0.191834
0.166966
0.14519
0.12614
0.109491
0.0949542
0.0822744
0.0712246
0.0616045
0.0532369
0.0459655
0.0396525
0.0341767
0.0294312
0.0253224
0.0217679
0.0186956
0.0160422
0.0137523
0.0117778
0.0100762
0.00861072
0.0073492
0.00626358
0.00532942
0.00452543
0.00383303
0.00323604
0.00272032
0.0022735
0.00188473
0.00154442
0.0012441
0.000976186
0.000733824
0.000510751
0.000301148
9.95048e-05
155.215
143.687
132.88
122.76
113.296
104.455
96.206
88.5178
81.361
74.7065
68.5261
62.7927
57.4802
52.5633
48.0178
43.8204
39.9489
36.3822
33.1
30.0831
27.3131
24.7728
22.4458
20.3165
18.3704
16.5937
14.9736
13.4978
12.1551
10.9349
9.8271
8.8226
7.91275
7.08956
6.3456
5.67398
5.06835
4.52283
4.03198
3.59082
3.19474
2.83953
2.52132
2.23656
1.982
1.7547
1.55194
1.37128
1.21047
1.06749
0.940487
0.827799
0.727917
0.639477
0.561249
0.492125
0.431109
0.377305
0.329907
0.288196
0.251526
0.21932
0.191063
0.166294
0.144606
0.125632
0.10905
0.0945723
0.0819435
0.0709382
0.0613568
0.0530228
0.0457807
0.0394931
0.0340393
0.0293129
0.0252206
0.0216804
0.0186204
0.0159777
0.0136971
0.0117305
0.0100357
0.00857614
0.00731969
0.00623843
0.00530802
0.00450726
0.00381764
0.00322305
0.0027094
0.00226438
0.00187716
0.00153823
0.00123911
0.00097227
0.00073088
0.000508703
0.000299941
9.91056e-05
154.55
143.071
132.31
122.234
112.81
104.007
95.7934
88.1383
81.0121
74.3861
68.2322
62.5234
57.2337
52.3379
47.8119
43.6325
39.7776
36.2262
32.9581
29.9541
27.196
24.6666
22.3495
20.2294
18.2916
16.5226
14.9094
13.44
12.103
10.888
9.78496
8.78477
7.87882
7.05916
6.31839
5.64965
5.04662
4.50343
4.01469
3.57542
3.18104
2.82736
2.51051
2.22697
1.9735
1.74718
1.54529
1.3654
1.20528
1.06291
0.936455
0.82425
0.724796
0.636735
0.558843
0.490016
0.429261
0.375687
0.328493
0.286961
0.250448
0.21838
0.190244
0.165582
0.143986
0.125094
0.108583
0.0941671
0.0815924
0.0706343
0.0610939
0.0527957
0.0455845
0.0393239
0.0338935
0.0291874
0.0251126
0.0215876
0.0185407
0.0159093
0.0136384
0.0116802
0.00999276
0.00853943
0.00728836
0.00621174
0.00528531
0.00448798
0.00380131
0.00320926
0.00269782
0.0022547
0.00186914
0.00153165
0.00123381
0.000968114
0.000727756
0.000506528
0.000298659
9.86821e-05
153.846
142.419
131.707
121.677
112.297
103.534
95.3573
87.737
80.6433
74.0474
67.9215
62.2388
56.9731
52.0996
47.5942
43.4338
39.5965
36.0612
32.808
29.8177
27.0722
24.5543
22.2478
20.1373
18.2084
16.4474
14.8415
13.3788
12.0479
10.8384
9.74041
8.74477
7.84295
7.02702
6.28962
5.62393
5.02364
4.48293
3.99641
3.55914
3.16656
2.81448
2.49908
2.21683
1.96452
1.73922
1.53826
1.35919
1.1998
1.05807
0.932192
0.820498
0.721497
0.633837
0.556299
0.487785
0.427307
0.373977
0.326998
0.285655
0.249308
0.217386
0.189378
0.164828
0.143331
0.124525
0.108089
0.0937386
0.0812212
0.0703129
0.060816
0.0525555
0.0453772
0.0391451
0.0337393
0.0290547
0.0249984
0.0214894
0.0184564
0.0158369
0.0135764
0.0116271
0.00994733
0.00850062
0.00725524
0.00618351
0.0052613
0.00446758
0.00378404
0.00319469
0.00268556
0.00224446
0.00186065
0.00152469
0.00122821
0.000963718
0.000724452
0.000504229
0.000297303
9.82341e-05
153.104
141.733
131.072
121.091
111.755
103.035
94.8976
87.314
80.2545
73.6905
67.5941
61.9387
56.6985
51.8484
47.3647
43.2244
39.4056
35.8874
32.6498
29.6739
26.9417
24.4359
22.1405
20.0402
18.1206
16.3681
14.7699
13.3143
11.9898
10.7861
9.69345
8.70261
7.80514
6.99314
6.2593
5.59682
4.99942
4.46132
3.97715
3.54198
3.15129
2.80092
2.48703
2.20614
1.95505
1.73084
1.53084
1.35263
1.19401
1.05297
0.927699
0.816543
0.718019
0.630782
0.553618
0.485434
0.425248
0.372175
0.325422
0.284278
0.248107
0.216339
0.188465
0.164034
0.14264
0.123925
0.107568
0.093287
0.0808299
0.0699742
0.060523
0.0523023
0.0451586
0.0389565
0.0335768
0.0289147
0.0248781
0.021386
0.0183675
0.0157607
0.0135111
0.0115712
0.00989945
0.00845971
0.00722032
0.00615375
0.00523598
0.00444609
0.00376584
0.00317932
0.00267264
0.00223366
0.0018517
0.00151736
0.00122231
0.000959084
0.000720968
0.000501804
0.000295873
9.77618e-05
152.325
141.011
130.405
120.474
111.186
102.51
94.4144
86.8695
79.8459
73.3153
67.25
61.6234
56.4098
51.5845
47.1236
43.0043
39.205
35.7047
32.4836
29.5229
26.8045
24.3115
22.0278
19.9382
18.0283
16.2847
14.6948
13.2465
11.9288
10.7312
9.6441
8.6583
7.7654
6.95754
6.22743
5.56832
4.97397
4.43861
3.9569
3.52395
3.13525
2.78666
2.47437
2.19491
1.9451
1.72203
1.52305
1.34575
1.18794
1.04761
0.922977
0.812387
0.714365
0.627571
0.5508
0.482964
0.423084
0.370281
0.323766
0.282831
0.246844
0.215238
0.187506
0.163199
0.141914
0.123294
0.107021
0.0928124
0.0804187
0.0696182
0.0602151
0.0520363
0.0449289
0.0387584
0.0334061
0.0287677
0.0247515
0.0212772
0.0182741
0.0156806
0.0134424
0.0115123
0.00984913
0.0084167
0.00718362
0.00612248
0.00520937
0.00442349
0.0037467
0.00316316
0.00265907
0.00222231
0.00184229
0.00150965
0.0012161
0.000954213
0.000717307
0.000499256
0.000294371
9.72653e-05
151.508
140.255
129.706
119.828
110.59
101.96
93.908
86.4035
79.4177
72.9221
66.8893
61.2928
56.1072
51.3078
46.8708
42.7737
38.9947
35.5132
32.3094
29.3645
26.6607
24.1811
21.9097
19.8312
17.9316
16.1974
14.6159
13.1754
11.8648
10.6737
9.59237
8.61186
7.72375
6.92022
6.19403
5.53846
4.9473
4.4148
3.93568
3.50505
3.11844
2.77171
2.4611
2.18314
1.93467
1.71279
1.51488
1.33853
1.18156
1.042
0.918027
0.808031
0.710534
0.624206
0.547846
0.480374
0.420815
0.368295
0.32203
0.281315
0.245521
0.214084
0.186501
0.162324
0.141154
0.122633
0.106447
0.0923148
0.0799876
0.069245
0.0598924
0.0517574
0.0446881
0.0385507
0.033227
0.0286135
0.0246189
0.0211632
0.0181762
0.0155966
0.0133704
0.0114507
0.00979637
0.00837162
0.00714515
0.00608969
0.00518147
0.00439981
0.00372664
0.00314623
0.00264483
0.00221042
0.00183243
0.00150157
0.00120959
0.000949106
0.000713468
0.000496584
0.000292795
9.67448e-05
150.653
139.464
128.974
119.152
109.966
101.385
93.3784
85.9163
78.9698
72.5108
66.5121
60.9472
55.7908
51.0184
46.6065
42.5324
38.7748
35.3129
32.1272
29.1989
26.5104
24.0448
21.7861
19.7194
17.8305
16.106
14.5335
13.1011
11.7979
10.6135
9.53828
8.5633
7.68019
6.8812
6.1591
5.50723
4.9194
4.3899
3.91348
3.48529
3.10085
2.75608
2.44722
2.17083
1.92376
1.70313
1.50634
1.33098
1.1749
1.03612
0.912851
0.803475
0.706528
0.620687
0.544758
0.477666
0.418443
0.366219
0.320214
0.279729
0.244136
0.212877
0.18545
0.161409
0.140358
0.121942
0.105847
0.0917945
0.0795368
0.0688548
0.0595548
0.0514657
0.0444363
0.0383334
0.0330398
0.0284523
0.0244802
0.021044
0.0180738
0.0155087
0.0132951
0.0113862
0.00974119
0.00832447
0.00710491
0.00605539
0.0051523
0.00437503
0.00370566
0.00312851
0.00262994
0.00219797
0.00182212
0.00149312
0.00120278
0.000943764
0.000709453
0.000493789
0.000291148
9.62003e-05
149.762
138.638
128.211
118.447
109.316
100.785
92.8258
85.4078
78.5024
72.0817
66.1184
60.5865
55.4606
50.7165
46.3307
42.2807
38.5453
35.1039
31.937
29.0261
26.3535
23.9024
21.6572
19.6027
17.725
16.0107
14.4475
13.0236
11.7281
10.5507
9.48183
8.51262
7.63474
6.84047
6.12265
5.47463
4.89028
4.36393
3.89033
3.46466
3.0825
2.73977
2.43274
2.15798
1.91237
1.69305
1.49742
1.32311
1.16795
1.02999
0.907449
0.79872
0.702347
0.617014
0.541534
0.474839
0.415967
0.364052
0.31832
0.278074
0.242692
0.211617
0.184353
0.160454
0.139528
0.121221
0.105221
0.0912515
0.0790663
0.0684475
0.0592026
0.0511613
0.0441735
0.0381067
0.0328444
0.028284
0.0243354
0.0209195
0.017967
0.015417
0.0132165
0.0113189
0.00968361
0.00827526
0.00706291
0.0060196
0.00512185
0.00434918
0.00368376
0.00311003
0.0026144
0.00218499
0.00181135
0.0014843
0.00119568
0.000938189
0.000705262
0.000490873
0.000289428
9.56321e-05
148.833
137.779
127.416
117.713
108.638
100.16
92.2503
84.8783
78.0157
71.6348
65.7085
60.2109
55.1168
50.402
46.0434
42.0186
38.3063
34.8863
31.739
28.8462
26.1901
23.7543
21.5229
19.4812
17.6151
15.9115
14.3579
12.9429
11.6554
10.4853
9.42304
8.45984
7.58741
6.79806
6.08469
5.44069
4.85997
4.33687
3.86621
3.44318
3.06339
2.72279
2.41766
2.1446
1.90052
1.68256
1.48814
1.31491
1.16071
1.0236
0.901824
0.793769
0.697993
0.613189
0.538177
0.471896
0.413388
0.361796
0.316347
0.27635
0.241188
0.210306
0.18321
0.15946
0.138663
0.120469
0.104569
0.090686
0.0785763
0.0680234
0.0588357
0.0508443
0.0438998
0.0378706
0.0326409
0.0281088
0.0241847
0.0207899
0.0178557
0.0153215
0.0131346
0.0112487
0.00962363
0.00822401
0.00701917
0.00598232
0.00509013
0.00432225
0.00366095
0.00309077
0.00259821
0.00217146
0.00180014
0.00147511
0.00118827
0.000932382
0.000700897
0.000487834
0.000287637
9.50402e-05
147.868
136.885
126.59
116.949
107.933
99.5107
91.652
84.3278
77.5097
71.1702
65.2823
59.8204
54.7593
50.0752
45.7448
41.7461
38.0579
34.66
31.5332
28.6591
26.0202
23.6002
21.3833
19.3548
17.5008
15.8083
14.2648
12.8589
11.5798
10.4173
9.36193
8.40498
7.5382
6.75398
6.04523
5.40541
4.82845
4.30875
3.84113
3.42085
3.04352
2.70513
2.40198
2.1307
1.88819
1.67165
1.47849
1.30638
1.15318
1.01697
0.895976
0.788622
0.693467
0.609213
0.534688
0.468836
0.410708
0.35945
0.314296
0.274559
0.239624
0.208942
0.182022
0.158426
0.137764
0.119688
0.103891
0.0900981
0.0780669
0.0675824
0.0584543
0.0505147
0.0436152
0.0376251
0.0324294
0.0279266
0.0240279
0.0206552
0.01774
0.0152222
0.0130495
0.0111759
0.00956127
0.00817073
0.0069737
0.00594357
0.00505716
0.00429425
0.00363724
0.00307075
0.00258139
0.0021574
0.00178848
0.00146556
0.00118058
0.000926345
0.000696358
0.000484676
0.000285774
9.44249e-05
146.866
135.958
125.732
116.157
107.202
98.8366
91.0311
83.7565
76.9847
70.688
64.8401
59.4151
54.3883
49.7359
45.4349
41.4633
37.8001
34.4252
31.3196
28.4649
25.844
23.4403
21.2384
19.2237
17.3823
15.7012
14.1682
12.7718
11.5013
10.3467
9.29851
8.34804
7.48713
6.70822
6.00428
5.36879
4.79574
4.27956
3.81511
3.39768
3.02291
2.6868
2.38571
2.11626
1.8754
1.66032
1.46848
1.29753
1.14537
1.01008
0.889907
0.78328
0.68877
0.605086
0.531066
0.46566
0.407926
0.357015
0.312167
0.272699
0.238001
0.207527
0.180789
0.157353
0.136831
0.118878
0.103187
0.089488
0.0775383
0.0671248
0.0580585
0.0501727
0.0433199
0.0373704
0.0322098
0.0277375
0.0238653
0.0205154
0.0176199
0.0151192
0.0129611
0.0111002
0.00949656
0.00811542
0.0069265
0.00590334
0.00502293
0.00426519
0.00361262
0.00304997
0.00256392
0.0021428
0.00177638
0.00145564
0.00117259
0.000920078
0.000691647
0.000481397
0.000283841
9.37861e-05
145.828
134.997
124.843
115.336
106.444
98.138
90.3877
83.1646
76.4406
70.1884
64.3818
58.9952
54.004
49.3844
45.1138
41.1702
37.5329
34.1819
31.0982
28.2637
25.6613
23.2747
21.0883
19.0878
17.2594
15.5902
14.068
12.6815
11.42
10.2736
9.23279
8.28904
7.43422
6.66081
5.96184
5.33085
4.76185
4.24931
3.78815
3.37367
3.00154
2.66782
2.36885
2.10131
1.86215
1.64859
1.4581
1.28836
1.13728
1.00294
0.883618
0.777745
0.683903
0.600811
0.527313
0.46237
0.405044
0.354492
0.309961
0.270772
0.236319
0.206061
0.179512
0.156241
0.135864
0.118038
0.102458
0.0888558
0.0769905
0.0666505
0.0576484
0.0498182
0.0430139
0.0371064
0.0319823
0.0275416
0.0236967
0.0203705
0.0174954
0.0150124
0.0128696
0.0110218
0.00942949
0.00805812
0.00687759
0.00586166
0.00498747
0.00423507
0.00358712
0.00302844
0.00254582
0.00212767
0.00176384
0.00144537
0.00116432
0.000913583
0.000686765
0.000477999
0.000281838
9.31241e-05
144.754
134.003
123.924
114.487
105.66
97.4153
89.7221
82.5521
75.8776
69.6715
63.9077
58.5607
53.6062
49.0207
44.7815
40.867
37.2565
33.9302
30.8692
28.0556
25.4723
23.1032
20.933
18.9473
17.1323
15.4754
13.9644
12.5881
11.3359
10.1979
9.1648
8.228
7.37947
6.61176
5.91794
5.29159
4.72678
4.21802
3.76025
3.34882
2.97944
2.64817
2.3514
2.08583
1.84843
1.63645
1.44736
1.27887
1.1289
0.995554
0.877111
0.772018
0.678867
0.596387
0.523431
0.458965
0.402061
0.351882
0.307679
0.268778
0.234579
0.204544
0.17819
0.155091
0.134864
0.117169
0.101704
0.0882016
0.0764237
0.0661599
0.057224
0.0494515
0.0426972
0.0368333
0.0317469
0.0273389
0.0235223
0.0202205
0.0173666
0.0149019
0.0127749
0.0109407
0.0093601
0.00799882
0.00682698
0.00581853
0.00495077
0.00420391
0.00356072
0.00300616
0.00252709
0.00211202
0.00175086
0.00143474
0.00115575
0.000906863
0.000681714
0.000474483
0.000279764
9.24392e-05
143.645
132.976
122.974
113.609
104.85
96.6685
89.0343
81.9193
75.2959
69.1374
63.4178
58.1118
53.1953
48.6449
44.4382
40.5537
36.9709
33.6701
30.6326
27.8405
25.2771
22.9261
20.7726
18.802
17.001
15.3568
13.8574
12.4916
11.249
10.1197
9.09454
8.16492
7.3229
6.56108
5.87257
5.25103
4.69054
4.18568
3.73143
3.32315
2.9566
2.62787
2.33338
2.06984
1.83427
1.62391
1.43627
1.26907
1.12025
0.987923
0.870388
0.7661
0.673663
0.591815
0.519418
0.455447
0.398979
0.349185
0.30532
0.266718
0.232781
0.202976
0.176825
0.153902
0.13383
0.116271
0.100925
0.0875257
0.075838
0.0656529
0.0567854
0.0490725
0.04237
0.036551
0.0315036
0.0271294
0.023342
0.0200656
0.0172336
0.0147877
0.012677
0.0108569
0.00928839
0.00793754
0.00677468
0.00577396
0.00491284
0.00417171
0.00353345
0.00298314
0.00250773
0.00209584
0.00173746
0.00142375
0.0011469
0.000899919
0.000676493
0.00047085
0.000277622
9.17313e-05
142.499
131.916
121.994
112.703
104.015
95.8979
88.3245
81.2662
74.6957
68.5863
62.9122
57.6485
52.7712
48.2571
44.084
40.2305
36.6762
33.4017
30.3884
27.6186
25.0756
22.7434
20.607
18.6521
16.8655
15.2343
13.7469
12.3921
11.1594
10.0391
9.02204
8.09983
7.26453
6.50877
5.82576
5.20917
4.65315
4.15232
3.70168
3.29666
2.93303
2.60692
2.31478
2.05334
1.81964
1.61096
1.42482
1.25895
1.11132
0.980048
0.86345
0.759994
0.668293
0.587098
0.515278
0.451817
0.395799
0.346402
0.302887
0.264592
0.230926
0.201358
0.175415
0.152676
0.132764
0.115344
0.10012
0.0868281
0.0752336
0.0651296
0.0563329
0.0486815
0.0420324
0.0362597
0.0312525
0.0269132
0.023156
0.0199057
0.0170963
0.0146699
0.012576
0.0107704
0.00921439
0.0078743
0.00672071
0.00572796
0.00487371
0.00413848
0.0035053
0.00295937
0.00248776
0.00207915
0.00172362
0.00141241
0.00113777
0.000892751
0.000671106
0.0004671
0.000275411
9.10008e-05
141.319
130.823
120.983
111.77
103.153
95.1036
87.5929
80.5931
74.077
68.0182
62.3911
57.171
52.3342
47.8574
43.7189
39.8972
36.3724
33.125
30.1367
27.3898
24.8679
22.555
20.4363
18.4976
16.7258
15.1082
13.6331
12.2894
11.0669
9.95591
8.94732
8.03275
7.20436
6.45486
5.77751
5.16602
4.61461
4.11793
3.67102
3.26936
2.90874
2.58533
2.29561
2.03634
1.80457
1.59762
1.41302
1.24853
1.10211
0.971931
0.856299
0.753699
0.662759
0.582236
0.511011
0.448075
0.392521
0.343533
0.300378
0.262401
0.229014
0.199691
0.173963
0.151411
0.131664
0.114389
0.0992912
0.0861091
0.0746106
0.0645903
0.0558664
0.0482784
0.0416844
0.0359595
0.0309938
0.0266904
0.0229643
0.0197409
0.0169547
0.0145484
0.0124719
0.0106812
0.00913811
0.00780912
0.00666507
0.00568054
0.00483337
0.00410423
0.00347629
0.00293488
0.00246717
0.00206194
0.00170935
0.00140072
0.00112835
0.000885364
0.000665552
0.000463235
0.000273132
9.02478e-05
140.104
129.698
119.943
110.809
102.266
94.2858
86.8398
79.9001
73.4401
67.4334
61.8546
56.6795
51.8842
47.4459
43.3429
39.5542
36.0596
32.8402
29.8775
27.1543
24.654
22.3611
20.2606
18.3386
16.582
14.9783
13.5158
12.1838
10.9718
9.8703
8.87038
7.96368
7.14241
6.39936
5.72783
5.1216
4.57493
4.08252
3.63946
3.24125
2.88373
2.5631
2.27587
2.01883
1.78906
1.58388
1.40087
1.23779
1.09264
0.963574
0.848936
0.747219
0.65706
0.57723
0.506617
0.444223
0.389147
0.34058