/*--------------------------------*- C++ -*----------------------------------*\
| =========                 |                                                 |
| \\      /  F ield         | OpenFOAM: The Open Source CFD Toolbox           |
|  \\    /   O peration     | Version:  2406                                  |
|   \\  /    A nd           | Website:  www.openfoam.com                      |
|    \\/     M anipulation  |                                                 |
\*---------------------------------------------------------------------------*/
FoamFile
{
    version     2.0;
    format      ascii;
    arch        "LSB;label=32;scalar=64";
    class       volScalarField;
    location    "120";
    object      gradTx;
}
// * * * * * * * * * * * * * * * * * * * * * * * * * * * * * * * * * * * * * //

dimensions      [0 -1 0 1 0 0 0];

internalField   nonuniform List<scalar> 
20000
(
4.42601
4.05372
3.69755
3.35732
3.03304
2.7243
2.43035
2.15033
1.88507
1.63401
1.39572
1.17031
0.957791
0.757551
0.56898
0.391699
0.22541
0.0697486
-0.0757065
-0.211379
-0.337658
-0.454908
-0.563484
-0.663745
-0.756051
-0.840764
-0.918238
-0.988814
-1.05283
-1.11059
-1.16242
-1.20862
-1.24948
-1.28529
-1.31632
-1.34284
-1.36511
-1.38339
-1.39792
-1.40893
-1.41666
-1.42132
-1.42311
-1.42225
-1.41892
-1.41332
-1.40562
-1.39599
-1.38459
-1.37159
-1.35713
-1.34135
-1.32439
-1.30637
-1.28743
-1.26768
-1.24723
-1.22618
-1.20463
-1.18268
-1.16043
-1.13794
-1.1153
-1.09259
-1.06988
-1.04723
-1.02471
-1.00237
-0.980271
-0.958464
-0.936995
-0.915911
-0.895254
-0.875061
-0.85537
-0.836214
-0.817625
-0.799632
-0.782261
-0.765538
-0.749485
-0.734124
-0.719474
-0.705552
-0.692375
-0.679958
-0.668314
-0.657455
-0.647392
-0.638135
-0.629694
-0.622075
-0.615287
-0.609334
-0.604222
-0.599956
-0.596539
-0.593973
-0.592262
-0.591406
13.2769
12.1601
11.0919
10.0714
9.09855
8.17161
7.28995
6.45104
5.65507
4.90121
4.18661
3.51082
2.87329
2.27244
1.70671
1.17497
0.676197
0.20926
-0.227092
-0.634095
-1.01291
-1.36462
-1.69031
-1.99106
-2.26796
-2.52208
-2.75448
-2.9662
-3.15822
-3.3315
-3.48699
-3.62557
-3.74814
-3.85555
-3.94863
-4.02818
-4.095
-4.14984
-4.19342
-4.22646
-4.24963
-4.2636
-4.26898
-4.26639
-4.25642
-4.23961
-4.2165
-4.18761
-4.15343
-4.11443
-4.07104
-4.02371
-3.97283
-3.9188
-3.86198
-3.80273
-3.74137
-3.67823
-3.6136
-3.54776
-3.48099
-3.41353
-3.34563
-3.27751
-3.20937
-3.14143
-3.07387
-3.00686
-2.94057
-2.87515
-2.81076
-2.74751
-2.68554
-2.62497
-2.5659
-2.50844
-2.45267
-2.3987
-2.34659
-2.29643
-2.24827
-2.20219
-2.15824
-2.11648
-2.07695
-2.03971
-2.00478
-1.9722
-1.94202
-1.91425
-1.88893
-1.86607
-1.84571
-1.82785
-1.81252
-1.79972
-1.78947
-1.78177
-1.77664
-1.77407
22.124
20.263
18.4838
16.7834
15.1621
13.617
12.1476
10.7502
9.42377
8.16703
6.9764
5.85057
4.78815
3.78674
2.84397
1.95793
1.12684
0.348746
-0.378417
-1.05667
-1.68793
-2.27401
-2.81672
-3.31788
-3.77929
-4.20276
-4.59004
-4.94285
-5.26283
-5.5516
-5.81069
-6.04163
-6.24588
-6.42486
-6.57996
-6.71254
-6.82388
-6.91525
-6.98788
-7.04294
-7.08155
-7.10482
-7.1138
-7.10949
-7.09286
-7.06485
-7.02635
-6.97821
-6.92125
-6.85625
-6.78395
-6.70508
-6.6203
-6.53026
-6.43558
-6.33684
-6.2346
-6.12938
-6.02167
-5.91197
-5.80069
-5.68828
-5.57513
-5.46161
-5.34808
-5.23486
-5.12227
-5.01061
-4.90015
-4.79114
-4.68382
-4.57843
-4.47516
-4.37422
-4.27579
-4.18004
-4.08712
-3.99717
-3.91034
-3.82675
-3.7465
-3.66972
-3.59648
-3.52689
-3.46102
-3.39895
-3.34074
-3.28646
-3.23616
-3.18989
-3.14769
-3.10961
-3.07567
-3.04592
-3.02037
-2.99904
-2.98196
-2.96913
-2.96058
-2.9563
30.9659
28.3605
25.8704
23.491
21.2217
19.0594
17.0023
15.0466
13.1901
11.4309
9.76452
8.18888
6.70181
5.30008
3.98052
2.74043
1.57723
0.488149
-0.529662
-1.479
-2.36254
-3.18284
-3.94243
-4.64387
-5.28969
-5.8824
-6.42447
-6.91828
-7.36615
-7.77032
-8.13297
-8.4562
-8.74207
-8.99259
-9.20968
-9.39523
-9.55107
-9.67897
-9.78062
-9.85768
-9.91173
-9.9443
-9.95686
-9.95083
-9.92756
-9.88835
-9.83446
-9.76708
-9.68736
-9.59638
-9.49519
-9.38479
-9.26613
-9.14011
-9.00759
-8.86939
-8.72628
-8.57901
-8.42826
-8.27471
-8.11897
-7.96163
-7.80326
-7.64437
-7.48546
-7.327
-7.16941
-7.01312
-6.85851
-6.70593
-6.55573
-6.40822
-6.26368
-6.1224
-5.98463
-5.85061
-5.72055
-5.59466
-5.47313
-5.35612
-5.24381
-5.13633
-5.03383
-4.93643
-4.84423
-4.75736
-4.67589
-4.59991
-4.52951
-4.46474
-4.40568
-4.35238
-4.30488
-4.26323
-4.22747
-4.19762
-4.17371
-4.15576
-4.14379
-4.1378
39.8009
36.4517
33.2505
30.1927
27.2761
24.497
21.8529
19.3393
16.9531
14.6919
12.5502
10.5252
8.61379
6.81211
5.11611
3.52227
2.02723
0.627423
-0.680789
-1.90098
-3.03657
-4.09088
-5.06716
-5.9687
-6.79876
-7.56058
-8.2573
-8.89201
-9.46766
-9.98714
-10.4532
-10.8687
-11.2361
-11.5581
-11.8371
-12.0756
-12.2759
-12.4403
-12.5709
-12.67
-12.7395
-12.7813
-12.7975
-12.7897
-12.7598
-12.7094
-12.6401
-12.5535
-12.4511
-12.3341
-12.2041
-12.0622
-11.9097
-11.7477
-11.5774
-11.3997
-11.2158
-11.0265
-10.8328
-10.6354
-10.4352
-10.233
-10.0295
-9.82524
-9.621
-9.41732
-9.21478
-9.01391
-8.81518
-8.61908
-8.42602
-8.23642
-8.05066
-7.86907
-7.692
-7.51974
-7.35257
-7.19077
-7.03456
-6.88418
-6.73982
-6.60169
-6.46994
-6.34475
-6.22625
-6.11459
-6.00988
-5.91223
-5.82174
-5.7385
-5.66259
-5.59408
-5.53303
-5.4795
-5.43353
-5.39516
-5.36443
-5.34136
-5.32597
-5.31827
48.6262
44.5343
40.6226
36.8869
33.3236
29.9285
26.6981
23.6272
20.712
17.9494
15.3329
12.8588
10.5237
8.32247
6.25043
4.30324
2.47672
0.766532
-0.83176
-2.3225
-3.70986
-4.9979
-6.19063
-7.29205
-8.30616
-9.23689
-10.0881
-10.8635
-11.5668
-12.2015
-12.7709
-13.2785
-13.7274
-14.1208
-14.4616
-14.753
-14.9977
-15.1985
-15.3582
-15.4792
-15.564
-15.6152
-15.6349
-15.6254
-15.5889
-15.5273
-15.4427
-15.3369
-15.2117
-15.0689
-14.91
-14.7366
-14.5503
-14.3524
-14.1443
-13.9273
-13.7026
-13.4713
-13.2346
-12.9935
-12.7489
-12.5019
-12.2532
-12.0037
-11.7542
-11.5053
-11.2579
-11.0125
-10.7697
-10.5301
-10.2942
-10.0626
-9.83564
-9.6138
-9.39746
-9.18701
-8.98278
-8.7851
-8.59426
-8.41053
-8.23417
-8.06541
-7.90445
-7.7515
-7.60673
-7.47031
-7.34238
-7.22308
-7.11253
-7.01083
-6.91809
-6.83439
-6.75981
-6.69441
-6.63825
-6.59138
-6.55383
-6.52565
-6.50684
-6.49744
57.4393
52.6058
47.9849
43.5721
39.363
35.3525
31.5367
27.9092
24.4658
21.2024
18.1117
15.1893
12.4309
9.83078
7.38323
5.08315
2.9256
0.905443
-0.982531
-2.74344
-4.38223
-5.90368
-7.31256
-8.61359
-9.81149
-10.9109
-11.9164
-12.8324
-13.6631
-14.4128
-15.0855
-15.685
-16.2153
-16.6799
-17.0826
-17.4268
-17.7158
-17.9531
-18.1416
-18.2845
-18.3848
-18.4452
-18.4685
-18.4573
-18.4142
-18.3414
-18.2415
-18.1165
-17.9686
-17.7999
-17.6122
-17.4074
-17.1873
-16.9535
-16.7077
-16.4514
-16.186
-15.9128
-15.6332
-15.3484
-15.0595
-14.7677
-14.4739
-14.1792
-13.8844
-13.5905
-13.2982
-13.0083
-12.7215
-12.4385
-12.1599
-11.8863
-11.6182
-11.3562
-11.1006
-10.852
-10.6108
-10.3773
-10.1518
-9.93482
-9.72649
-9.52714
-9.33701
-9.15634
-8.98534
-8.82419
-8.67308
-8.53215
-8.40157
-8.28144
-8.17189
-8.07302
-7.98492
-7.90767
-7.84133
-7.78596
-7.74161
-7.70832
-7.68611
-7.675
66.2379
60.6641
55.3353
50.2465
45.3927
40.7679
36.3675
32.1844
28.2136
24.4502
20.886
17.5161
14.3351
11.3367
8.51419
5.8618
3.37374
1.04412
-1.13306
-3.16371
-5.05351
-6.808
-8.43268
-9.933
-11.3144
-12.5823
-13.7418
-14.7981
-15.7561
-16.6206
-17.3963
-18.0877
-18.6992
-19.235
-19.6993
-20.0962
-20.4296
-20.7031
-20.9206
-21.0854
-21.201
-21.2707
-21.2975
-21.2846
-21.2349
-21.151
-21.0357
-20.8916
-20.7211
-20.5265
-20.31
-20.0739
-19.8201
-19.5505
-19.2671
-18.9714
-18.6654
-18.3503
-18.0279
-17.6994
-17.3663
-17.0298
-16.691
-16.3512
-16.0113
-15.6723
-15.3352
-15.0009
-14.6702
-14.3439
-14.0226
-13.7071
-13.3979
-13.0957
-12.801
-12.5143
-12.2362
-11.9669
-11.7069
-11.4566
-11.2164
-10.9865
-10.7673
-10.5589
-10.3617
-10.1759
-10.0016
-9.83912
-9.68853
-9.55
-9.42367
-9.30966
-9.20806
-9.11898
-9.04248
-8.97863
-8.92749
-8.88909
-8.86348
-8.85067
75.0202
68.7073
62.672
56.9086
51.4112
46.1732
41.1893
36.4517
31.9543
27.6919
23.6552
19.8385
16.2358
12.8398
9.64306
6.63899
3.82105
1.18254
-1.28332
-3.5832
-5.72354
-7.71064
-9.55071
-11.25
-12.8145
-14.2505
-15.5638
-16.7601
-17.8452
-18.8243
-19.7029
-20.4859
-21.1784
-21.7853
-22.3112
-22.7607
-23.1383
-23.4481
-23.6944
-23.881
-24.012
-24.0909
-24.1213
-24.1067
-24.0503
-23.9554
-23.8248
-23.6616
-23.4684
-23.248
-23.0029
-22.7354
-22.448
-22.1427
-21.8216
-21.4868
-21.1401
-20.7834
-20.4182
-20.0462
-19.6689
-19.2877
-18.904
-18.5191
-18.1341
-17.7502
-17.3685
-16.9899
-16.6153
-16.2457
-15.8818
-15.5244
-15.1743
-14.832
-14.4983
-14.1736
-13.8585
-13.5535
-13.2591
-12.9756
-12.7036
-12.4432
-12.1949
-11.9589
-11.7356
-11.5251
-11.3277
-11.1437
-10.9731
-10.8162
-10.6731
-10.544
-10.4289
-10.328
-10.2414
-10.1691
-10.1112
-10.0677
-10.0387
-10.0242
83.784
76.7336
69.9933
63.5566
57.417
51.5671
46.001
40.7099
35.6872
30.9268
26.4186
22.1561
18.1325
14.3397
10.7695
7.41455
4.26741
1.32067
-1.43325
-4.00179
-6.39215
-8.61137
-10.6664
-12.5641
-14.3115
-15.9152
-17.3819
-18.718
-19.9298
-21.0234
-22.0045
-22.879
-23.6525
-24.3303
-24.9176
-25.4196
-25.8413
-26.1873
-26.4623
-26.6708
-26.817
-26.9052
-26.9391
-26.9228
-26.8599
-26.7538
-26.608
-26.4257
-26.21
-25.9638
-25.6901
-25.3914
-25.0703
-24.7293
-24.3708
-23.9969
-23.6097
-23.2112
-22.8034
-22.3879
-21.9666
-21.5409
-21.1124
-20.6825
-20.2526
-19.8238
-19.3975
-18.9746
-18.5563
-18.1435
-17.7371
-17.338
-16.9469
-16.5647
-16.1919
-15.8293
-15.4774
-15.1368
-14.808
-14.4914
-14.1876
-13.8968
-13.6195
-13.3559
-13.1065
-12.8714
-12.651
-12.4455
-12.255
-12.0797
-11.92
-11.7757
-11.6472
-11.5345
-11.4378
-11.357
-11.2923
-11.2438
-11.2114
-11.1952
92.5271
84.741
77.2973
70.1889
63.4086
56.9483
50.8013
44.9581
39.4113
34.1541
29.1755
24.4681
20.0247
15.8361
11.8934
8.18827
4.71272
1.45847
-1.58283
-4.4194
-7.05918
-9.50996
-11.7794
-13.8752
-15.8049
-17.576
-19.1958
-20.6713
-22.0096
-23.2172
-24.3008
-25.2666
-26.1207
-26.8692
-27.5178
-28.0722
-28.5379
-28.92
-29.2237
-29.454
-29.6155
-29.7128
-29.7503
-29.7323
-29.6628
-29.5456
-29.3846
-29.1833
-28.9451
-28.6732
-28.3709
-28.041
-27.6865
-27.3099
-26.914
-26.501
-26.0734
-25.6334
-25.183
-24.7242
-24.2588
-23.7887
-23.3155
-22.8408
-22.366
-21.8925
-21.4216
-20.9547
-20.4927
-20.0368
-19.588
-19.1472
-18.7154
-18.2933
-17.8816
-17.4812
-17.0926
-16.7164
-16.3533
-16.0037
-15.6681
-15.347
-15.0407
-14.7497
-14.4742
-14.2146
-13.9712
-13.7442
-13.5338
-13.3403
-13.1638
-13.0046
-12.8627
-12.7382
-12.6313
-12.5422
-12.4707
-12.4171
-12.3813
-12.3634
101.247
92.7275
84.5822
76.8039
69.3846
62.3155
55.5891
49.1952
43.1257
37.3729
31.9251
26.7742
21.9119
17.3285
13.0142
8.95996
5.15686
1.59591
-1.73202
-4.83591
-7.72447
-10.4062
-12.8896
-15.1829
-17.2944
-19.2324
-21.0049
-22.6195
-24.0839
-25.4054
-26.591
-27.6478
-28.5825
-29.4015
-30.1113
-30.7179
-31.2275
-31.6456
-31.978
-32.2299
-32.4066
-32.5131
-32.5542
-32.5344
-32.4584
-32.3302
-32.154
-31.9337
-31.673
-31.3756
-31.0447
-30.6838
-30.2958
-29.8838
-29.4505
-28.9986
-28.5308
-28.0492
-27.5564
-27.0543
-26.5451
-26.0307
-25.5129
-24.9934
-24.4739
-23.9558
-23.4405
-22.9296
-22.424
-21.9252
-21.4341
-20.9518
-20.4792
-20.0173
-19.5669
-19.1287
-18.7035
-18.2919
-17.8945
-17.512
-17.1447
-16.7933
-16.4582
-16.1398
-15.8383
-15.5543
-15.2879
-15.0395
-14.8093
-14.5976
-14.4045
-14.2302
-14.0749
-13.9387
-13.8218
-13.7242
-13.646
-13.5873
-13.5482
-13.5286
109.943
100.691
91.8463
83.4
75.3434
67.6672
60.3632
53.4202
46.8294
40.5826
34.6669
29.0736
23.7937
18.8167
14.1319
9.72945
5.59973
1.73296
-1.88078
-5.25122
-8.38784
-11.2999
-13.9965
-16.4868
-18.7797
-20.8841
-22.8088
-24.5621
-26.1523
-27.5872
-28.8747
-30.0223
-31.0372
-31.9266
-32.6973
-33.356
-33.9093
-34.3634
-34.7243
-34.9978
-35.1897
-35.3054
-35.35
-35.3286
-35.2459
-35.1067
-34.9154
-34.6762
-34.3931
-34.0701
-33.7109
-33.3189
-32.8976
-32.4502
-31.9797
-31.4891
-30.981
-30.4582
-29.923
-29.3778
-28.8249
-28.2663
-27.704
-27.1399
-26.5757
-26.0131
-25.4537
-24.8988
-24.3499
-23.8082
-23.2749
-22.7512
-22.238
-21.7364
-21.2473
-20.7715
-20.3097
-19.8628
-19.4313
-19.0159
-18.6172
-18.2356
-17.8717
-17.5259
-17.1985
-16.8901
-16.6009
-16.3311
-16.0812
-15.8512
-15.6416
-15.4523
-15.2837
-15.1358
-15.0088
-14.9029
-14.818
-14.7542
-14.7117
-14.6905
118.611
108.63
99.0877
89.9754
81.2837
73.0023
65.1224
57.632
50.5216
43.7822
37.4001
31.3659
25.6697
20.3003
15.2461
10.4965
6.04123
1.86959
-2.02906
-5.66524
-9.04914
-12.1908
-15.1
-17.7866
-20.2603
-22.5307
-24.6071
-26.4987
-28.2142
-29.7623
-31.1513
-32.3893
-33.4843
-34.4437
-35.2752
-35.9859
-36.5828
-37.0727
-37.462
-37.7572
-37.9642
-38.0889
-38.1371
-38.114
-38.0248
-37.8747
-37.6682
-37.4102
-37.1048
-36.7563
-36.3687
-35.9459
-35.4914
-35.0087
-34.5011
-33.9718
-33.4237
-32.8596
-32.2822
-31.694
-31.0975
-30.4949
-29.8883
-29.2797
-28.671
-28.0641
-27.4605
-26.8619
-26.2697
-25.6853
-25.1099
-24.5449
-23.9913
-23.4502
-22.9225
-22.4092
-21.911
-21.4288
-20.9633
-20.5152
-20.085
-19.6733
-19.2807
-18.9076
-18.5545
-18.2218
-17.9097
-17.6187
-17.349
-17.101
-16.8748
-16.6706
-16.4887
-16.3292
-16.1922
-16.0778
-15.9863
-15.9175
-15.8716
-15.8487
127.25
116.542
106.305
96.5287
87.2039
78.3194
69.8655
61.8295
54.2013
46.971
40.1241
33.6504
27.5393
21.7788
16.3565
11.261
6.48123
2.00576
-2.17685
-6.07785
-9.70821
-13.0786
-16.1998
-19.082
-21.7359
-24.1717
-26.3994
-28.4287
-30.2692
-31.93
-33.4202
-34.7484
-35.9231
-36.9524
-37.8445
-38.6069
-39.2473
-39.7728
-40.1905
-40.5072
-40.7293
-40.8631
-40.9147
-40.8899
-40.7943
-40.6332
-40.4118
-40.1349
-39.8073
-39.4334
-39.0176
-38.564
-38.0764
-37.5585
-37.014
-36.4461
-35.858
-35.2529
-34.6334
-34.0024
-33.3625
-32.7159
-32.0651
-31.4122
-30.7592
-30.1081
-29.4605
-28.8183
-28.183
-27.556
-26.9388
-26.3326
-25.7387
-25.1582
-24.5921
-24.0413
-23.5069
-22.9896
-22.4902
-22.0094
-21.5479
-21.1062
-20.685
-20.2848
-19.9059
-19.5489
-19.2141
-18.902
-18.6126
-18.3465
-18.1038
-17.8848
-17.6896
-17.5185
-17.3715
-17.2489
-17.1506
-17.0769
-17.0276
-17.003
135.857
124.425
113.495
103.058
93.1026
83.6171
74.5913
66.0119
57.8677
50.1482
42.8382
35.9266
29.4022
23.252
17.4629
12.0228
6.91964
2.14143
-2.32409
-6.48896
-10.3649
-13.9633
-17.2955
-20.3728
-23.2062
-25.8067
-28.1851
-30.3517
-32.3167
-34.0899
-35.6808
-37.0989
-38.353
-39.452
-40.4044
-41.2184
-41.9021
-42.4632
-42.9091
-43.2472
-43.4843
-43.6272
-43.6823
-43.6558
-43.5538
-43.3818
-43.1453
-42.8497
-42.5
-42.1008
-41.6569
-41.1725
-40.652
-40.0991
-39.5177
-38.9114
-38.2836
-37.6374
-36.9761
-36.3024
-35.6192
-34.9289
-34.2341
-33.537
-32.8399
-32.1447
-31.4533
-30.7677
-30.0894
-29.42
-28.761
-28.1138
-27.4798
-26.8599
-26.2555
-25.6675
-25.097
-24.5446
-24.0115
-23.4981
-23.0054
-22.5339
-22.0842
-21.6569
-21.2524
-20.8713
-20.5138
-20.1805
-19.8717
-19.5875
-19.3284
-19.0946
-18.8862
-18.7035
-18.5466
-18.4156
-18.3107
-18.232
-18.1794
-18.1532
144.431
132.277
120.658
109.562
98.9783
88.8942
79.2988
70.1779
61.5197
53.3131
45.5418
38.1939
31.2578
24.7194
18.565
12.7815
7.35634
2.27658
-2.47076
-6.89847
-11.019
-14.8445
-18.387
-21.6585
-24.6707
-27.4354
-29.9639
-32.2672
-34.3562
-36.2413
-37.9327
-39.4402
-40.7735
-41.9418
-42.9543
-43.8197
-44.5466
-45.143
-45.6171
-45.9765
-46.2286
-46.3805
-46.4391
-46.411
-46.3024
-46.1196
-45.8682
-45.554
-45.1821
-44.7578
-44.2859
-43.771
-43.2175
-42.6297
-42.0117
-41.3671
-40.6996
-40.0128
-39.3097
-38.5935
-37.8671
-37.1333
-36.3946
-35.6536
-34.9124
-34.1733
-33.4384
-32.7094
-31.9883
-31.2767
-30.5761
-29.8881
-29.214
-28.5551
-27.9125
-27.2874
-26.6808
-26.0937
-25.5268
-24.9811
-24.4573
-23.956
-23.4779
-23.0237
-22.5937
-22.1885
-21.8085
-21.4541
-21.1258
-20.8237
-20.5482
-20.2996
-20.0781
-19.8839
-19.717
-19.5778
-19.4663
-19.3826
-19.3267
-19.2988
152.97
140.097
127.791
116.039
104.83
94.1494
83.9867
74.3266
65.1566
56.4647
48.234
40.4519
33.1056
26.1807
19.6625
13.5371
7.79123
2.41117
-2.61682
-7.30628
-11.6704
-15.722
-19.474
-22.9389
-26.1292
-29.0573
-31.7352
-34.1748
-36.3872
-38.3838
-40.1752
-41.7718
-43.1839
-44.4213
-45.4937
-46.4102
-47.18
-47.8118
-48.3139
-48.6945
-48.9615
-49.1224
-49.1845
-49.1547
-49.0397
-48.8461
-48.5798
-48.247
-47.8532
-47.4038
-46.9039
-46.3586
-45.7724
-45.1499
-44.4953
-43.8126
-43.1057
-42.3782
-41.6336
-40.875
-40.1057
-39.3285
-38.5462
-37.7613
-36.9763
-36.1936
-35.4151
-34.6431
-33.8794
-33.1257
-32.3837
-31.655
-30.9411
-30.2432
-29.5626
-28.9006
-28.2581
-27.6362
-27.0359
-26.4579
-25.9031
-25.3722
-24.8659
-24.3847
-23.9293
-23.5002
-23.0977
-22.7224
-22.3747
-22.0547
-21.763
-21.4997
-21.2651
-21.0593
-20.8827
-20.7352
-20.6171
-20.5284
-20.4693
-20.4397
161.47
147.883
134.892
122.488
110.655
99.3813
88.6539
78.457
68.7774
59.6025
50.9144
42.6998
34.9453
27.6356
20.7551
14.2894
8.2242
2.54517
-2.76223
-7.71228
-12.3189
-16.5957
-20.5561
-24.2136
-27.5812
-30.672
-33.4988
-36.0739
-38.4093
-40.5168
-42.4077
-44.0931
-45.5837
-46.8898
-48.0218
-48.9893
-49.8018
-50.4687
-50.9987
-51.4005
-51.6824
-51.8522
-51.9177
-51.8862
-51.7649
-51.5605
-51.2795
-50.9281
-50.5124
-50.038
-49.5104
-48.9347
-48.316
-47.6589
-46.9679
-46.2473
-45.5011
-44.7332
-43.9472
-43.1465
-42.3344
-41.514
-40.6882
-39.8597
-39.0311
-38.2049
-37.3832
-36.5682
-35.7621
-34.9665
-34.1833
-33.4141
-32.6605
-31.9238
-31.2054
-30.5066
-29.8284
-29.172
-28.5383
-27.9282
-27.3426
-26.7822
-26.2477
-25.7398
-25.2591
-24.8061
-24.3813
-23.9851
-23.618
-23.2803
-22.9724
-22.6944
-22.4468
-22.2296
-22.0431
-21.8875
-21.7628
-21.6692
-21.6068
-21.5755
169.931
155.631
141.961
128.906
116.453
104.589
93.2992
82.568
72.3812
62.7256
53.5822
44.9372
36.7764
29.0836
21.8426
15.0381
8.65514
2.67854
-2.90696
-8.11638
-12.9644
-17.4653
-21.6332
-25.4823
-29.0264
-32.2792
-35.2541
-37.9641
-40.4219
-42.6399
-44.6298
-46.4035
-47.9722
-49.3468
-50.538
-51.5562
-52.4114
-53.1132
-53.671
-54.0938
-54.3904
-54.5691
-54.6381
-54.605
-54.4773
-54.2621
-53.9664
-53.5967
-53.1592
-52.6599
-52.1047
-51.4988
-50.8477
-50.1561
-49.4289
-48.6706
-47.8853
-47.0771
-46.2499
-45.4073
-44.5527
-43.6893
-42.8202
-41.9483
-41.0763
-40.2067
-39.342
-38.4844
-37.6359
-36.7987
-35.9744
-35.1649
-34.3718
-33.5966
-32.8405
-32.1051
-31.3914
-30.7006
-30.0337
-29.3916
-28.7753
-28.1855
-27.623
-27.0885
-26.5826
-26.1059
-25.6588
-25.2419
-24.8556
-24.5002
-24.1761
-23.8836
-23.6229
-23.3944
-23.1981
-23.0343
-22.9031
-22.8046
-22.7389
-22.7061
178.35
163.342
148.994
135.292
122.223
109.77
97.9215
86.6586
75.9672
65.8331
56.2368
47.1635
38.5984
30.5245
22.9248
15.7832
9.08395
2.81125
-3.05097
-8.51847
-13.6066
-18.3305
-22.705
-26.7447
-30.4644
-33.8784
-37.0007
-39.845
-42.4245
-44.7524
-46.8409
-48.7025
-50.3489
-51.7916
-53.0418
-54.1105
-55.008
-55.7446
-56.33
-56.7738
-57.0851
-57.2727
-57.345
-57.3102
-57.1762
-56.9504
-56.6401
-56.252
-55.7928
-55.2688
-54.6861
-54.0502
-53.3668
-52.641
-51.8778
-51.0818
-50.2576
-49.4094
-48.5413
-47.6569
-46.7599
-45.8538
-44.9416
-44.0265
-43.1113
-42.1987
-41.2911
-40.391
-39.5005
-38.6218
-37.7567
-36.9071
-36.0747
-35.261
-34.4676
-33.6957
-32.9466
-32.2216
-31.5216
-30.8477
-30.2009
-29.5819
-28.9916
-28.4306
-27.8996
-27.3992
-26.93
-26.4925
-26.087
-25.714
-25.3738
-25.0668
-24.7933
-24.5534
-24.3474
-24.1755
-24.0378
-23.9345
-23.8655
-23.831
186.725
171.012
155.99
141.645
127.962
114.925
102.52
90.7279
79.5344
68.9245
58.8776
49.3782
40.4109
31.9579
24.0013
16.5243
9.51052
2.94327
-3.19422
-8.91847
-14.2456
-19.1913
-23.7711
-28.0006
-31.895
-35.4692
-38.7381
-41.716
-44.4167
-46.8538
-49.0405
-50.9894
-52.7131
-54.2236
-55.5326
-56.6514
-57.591
-58.3622
-58.9751
-59.4397
-59.7656
-59.962
-60.0378
-60.0014
-59.8611
-59.6247
-59.2997
-58.8934
-58.4127
-57.8641
-57.254
-56.5883
-55.8728
-55.1129
-54.3138
-53.4805
-52.6176
-51.7296
-50.8206
-49.8947
-48.9556
-48.0069
-47.052
-46.0939
-45.1357
-44.1802
-43.23
-42.2876
-41.3553
-40.4353
-39.5297
-38.6402
-37.7687
-36.9168
-36.0861
-35.2779
-34.4937
-33.7346
-33.0018
-32.2963
-31.619
-30.971
-30.3529
-29.7656
-29.2097
-28.6858
-28.1946
-27.7365
-27.312
-26.9214
-26.5653
-26.2439
-25.9575
-25.7064
-25.4907
-25.3107
-25.1666
-25.0583
-24.9861
-24.95
195.053
178.64
162.948
147.963
133.67
120.051
107.092
94.7748
83.082
71.9988
61.5038
51.5807
42.2134
33.3833
25.0718
17.2614
9.93474
3.07456
-3.33669
-9.31626
-14.881
-20.0473
-24.8314
-29.2495
-33.3176
-37.0513
-40.466
-43.5767
-46.3979
-48.9437
-51.2279
-53.2638
-55.0644
-56.6422
-58.0096
-59.1783
-60.1599
-60.9654
-61.6057
-62.091
-62.4315
-62.6366
-62.7157
-62.6777
-62.5311
-62.2842
-61.9448
-61.5203
-61.0182
-60.4451
-59.8078
-59.1124
-58.3649
-57.5712
-56.7365
-55.866
-54.9646
-54.037
-53.0875
-52.1202
-51.1393
-50.1483
-49.1507
-48.1499
-47.149
-46.1508
-45.1583
-44.1738
-43.2
-42.2389
-41.2929
-40.3637
-39.4533
-38.5634
-37.6957
-36.8515
-36.0323
-35.2393
-34.4738
-33.7368
-33.0294
-32.3524
-31.7068
-31.0933
-30.5126
-29.9654
-29.4522
-28.9736
-28.5302
-28.1223
-27.7503
-27.4145
-27.1153
-26.853
-26.6277
-26.4397
-26.2891
-26.1761
-26.1006
-26.0629
203.334
186.224
169.866
154.244
139.344
125.148
111.639
98.7982
86.6091
75.0554
64.1148
53.7705
44.0055
34.8006
26.1362
17.9942
10.3565
3.20509
-3.47834
-9.71176
-15.5127
-20.8983
-25.8856
-30.4913
-34.732
-38.6243
-42.184
-45.4267
-48.3677
-51.0216
-53.4027
-55.5251
-57.4021
-59.0469
-60.4723
-61.6906
-62.7138
-63.5536
-64.221
-64.727
-65.0819
-65.2957
-65.3782
-65.3386
-65.1858
-64.9284
-64.5745
-64.1321
-63.6086
-63.0112
-62.3468
-61.6219
-60.8427
-60.0152
-59.1451
-58.2377
-57.298
-56.331
-55.3412
-54.3329
-53.3103
-52.2772
-51.2373
-50.194
-49.1506
-48.1101
-47.0754
-46.0492
-45.034
-44.0321
-43.0459
-42.0773
-41.1282
-40.2006
-39.296
-38.4159
-37.562
-36.7353
-35.9373
-35.1691
-34.4316
-33.7259
-33.0529
-32.4133
-31.8079
-31.2375
-30.7025
-30.2037
-29.7414
-29.3161
-28.9283
-28.5783
-28.2665
-27.993
-27.7582
-27.5622
-27.4052
-27.2873
-27.2087
-27.1694
211.565
193.761
176.741
160.488
144.985
130.213
116.158
102.797
90.1149
78.0934
66.71
55.947
45.7868
36.2092
27.1941
18.7225
10.7757
3.33483
-3.61913
-10.1049
-16.1406
-21.7442
-26.9333
-31.7255
-36.1379
-40.1877
-43.8915
-47.2655
-50.3255
-53.0868
-55.5644
-57.7726
-59.7256
-61.437
-62.92
-64.1877
-65.2523
-66.1261
-66.8205
-67.347
-67.7162
-67.9387
-68.0246
-67.9833
-67.8244
-67.5565
-67.1883
-66.728
-66.1833
-65.5617
-64.8704
-64.1162
-63.3055
-62.4445
-61.5392
-60.595
-59.6173
-58.6111
-57.5813
-56.5322
-55.4682
-54.3933
-53.3113
-52.2257
-51.1401
-50.0575
-48.9809
-47.9131
-46.8568
-45.8144
-44.7883
-43.7804
-42.793
-41.8278
-40.8866
-39.9709
-39.0824
-38.2223
-37.392
-36.5926
-35.8253
-35.091
-34.3908
-33.7253
-33.0954
-32.5019
-31.9453
-31.4262
-30.9452
-30.5028
-30.0993
-29.7351
-29.4106
-29.1261
-28.8817
-28.6778
-28.5145
-28.3918
-28.31
-28.2691
219.743
201.252
183.573
166.692
150.589
135.247
120.648
106.771
93.5984
81.1122
69.2888
58.1097
47.5567
37.6089
28.2454
19.4463
11.1923
3.46375
-3.75903
-10.4955
-16.7645
-22.5848
-27.9745
-32.9518
-37.5349
-41.7412
-45.5881
-49.0926
-52.2709
-55.139
-57.7123
-60.0059
-62.0343
-63.8119
-65.3523
-66.6689
-67.7748
-68.6823
-69.4036
-69.9504
-70.3339
-70.565
-70.6541
-70.6113
-70.4462
-70.168
-69.7856
-69.3074
-68.7417
-68.0961
-67.3781
-66.5947
-65.7526
-64.8584
-63.918
-62.9373
-61.9219
-60.8768
-59.8071
-58.7175
-57.6124
-56.4959
-55.3721
-54.2446
-53.117
-51.9925
-50.8743
-49.7653
-48.6681
-47.5854
-46.5196
-45.4728
-44.4472
-43.4447
-42.4671
-41.516
-40.5931
-39.6998
-38.8374
-38.0072
-37.2102
-36.4475
-35.7202
-35.029
-34.3748
-33.7583
-33.1802
-32.6411
-32.1415
-31.6819
-31.2628
-30.8846
-30.5475
-30.252
-29.9982
-29.7864
-29.6167
-29.4894
-29.4044
-29.3619
227.867
208.692
190.36
172.854
156.156
140.247
125.108
110.719
97.0588
84.111
71.8504
60.2581
49.3149
38.9993
29.2896
20.1652
11.6061
3.59181
-3.89799
-10.8835
-17.3843
-23.4197
-29.0087
-34.1701
-38.9225
-43.2844
-47.2736
-50.9076
-54.2034
-57.1775
-59.8459
-62.2243
-64.3278
-66.1711
-67.7684
-69.1337
-70.2804
-71.2215
-71.9695
-72.5365
-72.9342
-73.1738
-73.2663
-73.2219
-73.0506
-72.7621
-72.3656
-71.8698
-71.2831
-70.6137
-69.8691
-69.0567
-68.1836
-67.2562
-66.2811
-65.2642
-64.2112
-63.1275
-62.0182
-60.8883
-59.7423
-58.5846
-57.4192
-56.25
-55.0807
-53.9147
-52.7552
-51.6051
-50.4674
-49.3447
-48.2395
-47.154
-46.0905
-45.0509
-44.0371
-43.0509
-42.0939
-41.1675
-40.2733
-39.4123
-38.5859
-37.795
-37.0408
-36.324
-35.6456
-35.0064
-34.4069
-33.8478
-33.3298
-32.8532
-32.4186
-32.0264
-31.6769
-31.3704
-31.1073
-30.8876
-30.7117
-30.5796
-30.4915
-30.4474
235.935
216.081
197.1
178.975
161.685
145.213
129.538
114.639
100.495
87.089
74.3944
62.3916
51.061
40.3801
30.3266
20.8792
12.017
3.71899
-4.036
-11.2688
-17.9998
-24.2489
-30.0358
-35.3799
-40.3006
-44.8169
-48.9474
-52.71
-56.1225
-59.2019
-61.9649
-64.4274
-66.6054
-68.5139
-70.1678
-71.5815
-72.7688
-73.7432
-74.5176
-75.1047
-75.5165
-75.7646
-75.8603
-75.8144
-75.6371
-75.3384
-74.9278
-74.4144
-73.807
-73.1138
-72.3429
-71.5017
-70.5976
-69.6375
-68.6279
-67.5749
-66.4846
-65.3625
-64.214
-63.0441
-61.8576
-60.6588
-59.4522
-58.2416
-57.0309
-55.8236
-54.623
-53.4322
-52.2543
-51.0918
-49.9474
-48.8235
-47.7223
-46.6459
-45.5963
-44.5752
-43.5843
-42.6251
-41.6992
-40.8077
-39.952
-39.1332
-38.3522
-37.6101
-36.9077
-36.2458
-35.6251
-35.0462
-34.5098
-34.0164
-33.5664
-33.1603
-32.7984
-32.4811
-32.2086
-31.9812
-31.7991
-31.6623
-31.5711
-31.5254
243.944
223.417
203.791
185.05
167.174
150.142
133.936
118.53
103.907
90.0455
76.9199
64.5097
52.7944
41.751
31.3562
21.588
12.425
3.84524
-4.17301
-11.6514
-18.6109
-25.0721
-31.0554
-36.581
-41.6688
-46.3384
-50.6091
-54.4995
-58.0278
-61.2118
-64.0685
-66.6147
-68.8665
-70.8399
-72.5499
-74.0116
-75.2392
-76.2466
-77.0474
-77.6544
-78.0802
-78.3367
-78.4357
-78.3881
-78.2048
-77.896
-77.4714
-76.9406
-76.3126
-75.5959
-74.7988
-73.9291
-72.9943
-72.0016
-70.9577
-69.869
-68.7417
-67.5815
-66.394
-65.1844
-63.9575
-62.7181
-61.4705
-60.2188
-58.967
-57.7187
-56.4774
-55.2462
-54.0282
-52.8263
-51.6431
-50.481
-49.3424
-48.2295
-47.1442
-46.0884
-45.0639
-44.0722
-43.1148
-42.1931
-41.3083
-40.4617
-39.6542
-38.8869
-38.1607
-37.4763
-36.8345
-36.236
-35.6814
-35.1712
-34.706
-34.2861
-33.9119
-33.5838
-33.3021
-33.0669
-32.8786
-32.7372
-32.6429
-32.5957
251.894
230.697
210.432
191.081
172.622
155.035
138.3
122.393
107.293
92.9798
79.4265
66.6119
54.5148
43.1115
32.378
22.2915
12.8299
3.97055
-4.309
-12.0311
-19.2173
-25.8891
-32.0674
-37.7731
-43.0266
-47.8484
-52.2583
-56.2755
-59.9188
-63.2065
-66.1563
-68.7855
-71.1107
-73.1483
-74.9141
-76.4234
-77.691
-78.7313
-79.5581
-80.1849
-80.6246
-80.8895
-80.9917
-80.9426
-80.7533
-80.4344
-79.996
-79.4479
-78.7994
-78.0593
-77.2363
-76.3382
-75.373
-74.3479
-73.27
-72.1458
-70.9817
-69.7838
-68.5576
-67.3085
-66.0417
-64.7619
-63.4736
-62.1812
-60.8886
-59.5996
-58.3178
-57.0465
-55.7888
-54.5477
-53.3259
-52.126
-50.9503
-49.8012
-48.6805
-47.5903
-46.5324
-45.5084
-44.5198
-43.568
-42.6544
-41.7802
-40.9464
-40.1541
-39.4042
-38.6975
-38.0348
-37.4168
-36.8441
-36.3173
-35.8369
-35.4033
-35.017
-34.6782
-34.3873
-34.1445
-33.95
-33.804
-33.7066
-33.6579
259.781
237.921
217.021
197.064
178.027
159.889
142.631
126.225
110.652
95.8912
81.9135
68.6976
56.2218
44.4614
33.3918
22.9895
13.2316
4.09488
-4.44392
-12.4078
-19.8191
-26.6997
-33.0715
-38.9558
-44.3739
-49.3467
-53.8946
-58.0376
-61.795
-65.1856
-68.2278
-70.9393
-73.3373
-75.4388
-77.2598
-78.8164
-80.1237
-81.1965
-82.0493
-82.6957
-83.1491
-83.4223
-83.5277
-83.477
-83.2818
-82.9529
-82.5008
-81.9356
-81.2668
-80.5035
-79.6547
-78.7285
-77.7331
-76.6759
-75.5642
-74.4048
-73.2043
-71.9688
-70.7043
-69.4161
-68.1096
-66.7897
-65.4611
-64.1282
-62.7951
-61.4658
-60.1438
-58.8327
-57.5357
-56.2557
-54.9957
-53.7582
-52.5457
-51.3605
-50.2048
-49.0805
-47.9894
-46.9333
-45.9138
-44.9322
-43.99
-43.0884
-42.2286
-41.4114
-40.638
-39.9092
-39.2258
-38.5884
-37.9978
-37.4545
-36.959
-36.5119
-36.1134
-35.764
-35.464
-35.2136
-35.013
-34.8625
-34.762
-34.7118
267.604
245.085
223.557
202.998
183.388
164.704
146.926
130.027
113.985
98.7789
84.3803
70.7664
57.9149
45.8004
34.3974
23.6818
13.6301
4.2182
-4.57774
-12.7814
-20.4159
-27.5038
-34.0674
-40.1289
-45.7102
-50.8327
-55.5176
-59.7853
-63.6559
-67.1487
-70.2825
-73.0756
-75.5459
-77.7106
-79.5865
-81.1899
-82.5365
-83.6417
-84.5201
-85.186
-85.6531
-85.9345
-86.043
-85.9909
-85.7898
-85.451
-84.9853
-84.403
-83.7141
-82.9279
-82.0534
-81.0994
-80.074
-78.9849
-77.8398
-76.6455
-75.4088
-74.1361
-72.8335
-71.5065
-70.1607
-68.801
-67.4324
-66.0594
-64.6862
-63.3168
-61.955
-60.6044
-59.2683
-57.9498
-56.6518
-55.3771
-54.1281
-52.9072
-51.7167
-50.5585
-49.4346
-48.3467
-47.2964
-46.2853
-45.3148
-44.386
-43.5002
-42.6585
-41.8618
-41.1111
-40.407
-39.7505
-39.1421
-38.5824
-38.072
-37.6114
-37.201
-36.8411
-36.532
-36.2741
-36.0674
-35.9123
-35.8089
-35.7571
275.361
252.19
230.037
208.883
188.704
169.479
151.185
133.796
117.289
101.642
86.8263
72.8178
59.5937
47.128
35.3945
24.3683
14.0252
4.34048
-4.71044
-13.1519
-21.0077
-28.301
-35.0549
-41.2922
-47.0352
-52.3062
-57.1269
-61.5184
-65.5011
-69.0951
-72.3198
-75.1939
-77.7357
-79.9632
-81.8935
-83.5434
-84.9291
-86.0663
-86.9701
-87.6553
-88.1359
-88.4255
-88.5372
-88.4836
-88.2766
-87.928
-87.4488
-86.8497
-86.1407
-85.3317
-84.4319
-83.4503
-82.3951
-81.2745
-80.0961
-78.8672
-77.5947
-76.2852
-74.9447
-73.5793
-72.1945
-70.7954
-69.3871
-67.9743
-66.5612
-65.1522
-63.7509
-62.3612
-60.9864
-59.6297
-58.294
-56.9823
-55.6971
-54.4409
-53.2158
-52.024
-50.8676
-49.7481
-48.6674
-47.627
-46.6283
-45.6727
-44.7612
-43.8951
-43.0753
-42.3028
-41.5783
-40.9027
-40.2767
-39.7008
-39.1757
-38.7017
-38.2793
-37.909
-37.591
-37.3255
-37.1129
-36.9533
-36.8469
-36.7936
283.051
259.232
236.461
214.716
193.974
174.211
155.406
137.532
120.564
104.481
89.2508
74.8512
61.2578
48.444
36.3828
25.0488
14.4168
4.46168
-4.84197
-13.5192
-21.5943
-29.0913
-36.0338
-42.4452
-48.3486
-53.7668
-58.7221
-63.2362
-67.3302
-71.0246
-74.3392
-77.2936
-79.9065
-82.1961
-84.1803