/*--------------------------------*- C++ -*----------------------------------*\
| =========                 |                                                 |
| \\      /  F ield         | OpenFOAM: The Open Source CFD Toolbox           |
|  \\    /   O peration     | Version:  2406                                  |
|   \\  /    A nd           | Website:  www.openfoam.com                      |
|    \\/     M anipulation  |                                                 |
\*---------------------------------------------------------------------------*/
FoamFile
{
    version     2.0;
    format      ascii;
    arch        "LSB;label=32;scalar=64";
    class       volVectorField;
    location    "155";
    object      flux;
}
// * * * * * * * * * * * * * * * * * * * * * * * * * * * * * * * * * * * * * //

dimensions      [0 1 -1 1 0 0 0];

internalField   nonuniform List<vector> 
20000
(
(0.00256761 -0.0735784 0)
(0.00248421 -0.068527 0)
(0.00240083 -0.0636423 0)
(0.00231766 -0.0589243 0)
(0.00223495 -0.0543721 0)
(0.00215288 -0.0499849 0)
(0.00207151 -0.0457612 0)
(0.00199083 -0.0416995 0)
(0.0019112 -0.0377983 0)
(0.00183277 -0.0340551 0)
(0.00175543 -0.0304677 0)
(0.00167928 -0.0270339 0)
(0.00160449 -0.023751 0)
(0.00153118 -0.0206163 0)
(0.00145936 -0.0176266 0)
(0.00138906 -0.0147792 0)
(0.00132032 -0.0120707 0)
(0.0012532 -0.0094982 0)
(0.00118774 -0.00705826 0)
(0.00112398 -0.00474754 0)
(0.00106194 -0.00256262 0)
(0.00100163 -0.00050005 0)
(0.000943073 0.00144366 0)
(0.000886263 0.00327201 0)
(0.000831204 0.0049885 0)
(0.000777895 0.00659662 0)
(0.000726332 0.00809989 0)
(0.000676507 0.00950177 0)
(0.000628407 0.0108057 0)
(0.000582018 0.0120152 0)
(0.000537321 0.0131337 0)
(0.000494297 0.0141644 0)
(0.000452923 0.0151107 0)
(0.000413173 0.015976 0)
(0.00037502 0.0167633 0)
(0.000338436 0.017476 0)
(0.000303389 0.018117 0)
(0.000269849 0.0186894 0)
(0.000237781 0.0191963 0)
(0.000207153 0.0196405 0)
(0.000177928 0.0200249 0)
(0.000150072 0.0203522 0)
(0.000123547 0.0206251 0)
(9.83159e-05 0.0208463 0)
(7.43421e-05 0.0210184 0)
(5.15875e-05 0.0211437 0)
(3.00141e-05 0.0212247 0)
(9.58376e-06 0.0212637 0)
(-9.74151e-06 0.021263 0)
(-2.79997e-05 0.0212248 0)
(-4.52288e-05 0.021151 0)
(-6.14663e-05 0.0210439 0)
(-7.67497e-05 0.0209052 0)
(-9.11158e-05 0.0207369 0)
(-0.000104601 0.0205408 0)
(-0.000117242 0.0203185 0)
(-0.000129074 0.0200718 0)
(-0.000140133 0.0198022 0)
(-0.000150451 0.0195113 0)
(-0.000160065 0.0192005 0)
(-0.000169005 0.0188711 0)
(-0.000177306 0.0185245 0)
(-0.000184999 0.0181619 0)
(-0.000192114 0.0177845 0)
(-0.000198682 0.0173935 0)
(-0.000204733 0.0169899 0)
(-0.000210294 0.0165746 0)
(-0.000215395 0.0161487 0)
(-0.000220061 0.0157131 0)
(-0.00022432 0.0152686 0)
(-0.000228195 0.0148159 0)
(-0.000231713 0.0143558 0)
(-0.000234896 0.0138891 0)
(-0.000237767 0.0134163 0)
(-0.000240349 0.0129381 0)
(-0.000242662 0.012455 0)
(-0.000244726 0.0119675 0)
(-0.000246562 0.0114761 0)
(-0.000248186 0.0109813 0)
(-0.000249618 0.0104834 0)
(-0.000250874 0.00998289 0)
(-0.000251969 0.00948 0)
(-0.000252919 0.00897508 0)
(-0.000253739 0.00846839 0)
(-0.000254441 0.00796018 0)
(-0.000255039 0.00745068 0)
(-0.000255544 0.00694009 0)
(-0.000255968 0.00642857 0)
(-0.000256319 0.00591628 0)
(-0.000256609 0.00540336 0)
(-0.000256845 0.00488991 0)
(-0.000257035 0.00437604 0)
(-0.000257187 0.00386183 0)
(-0.000257306 0.00334736 0)
(-0.000257398 0.00283267 0)
(-0.000257468 0.00231783 0)
(-0.000257519 0.00180286 0)
(-0.000257554 0.00128782 0)
(-0.000257576 0.000772712 0)
(-0.000257587 0.000257574 0)
(0.00770221 -0.0735603 0)
(0.00745198 -0.0685101 0)
(0.00720188 -0.0636266 0)
(0.00695247 -0.0589097 0)
(0.0067044 -0.0543587 0)
(0.00645803 -0.0499725 0)
(0.00621387 -0.04575 0)
(0.00597208 -0.0416893 0)
(0.00573325 -0.0377889 0)
(0.00549783 -0.0340466 0)
(0.00526578 -0.0304602 0)
(0.0050374 -0.0270273 0)
(0.00481312 -0.0237452 0)
(0.0045932 -0.0206112 0)
(0.00437774 -0.0176223 0)
(0.00416684 -0.0147755 0)
(0.00396063 -0.0120678 0)
(0.00375928 -0.00949586 0)
(0.00356292 -0.00705653 0)
(0.00337166 -0.00474638 0)
(0.00318555 -0.002562 0)
(0.00300466 -0.000499928 0)
(0.00282899 0.00144331 0)
(0.00265857 0.00327121 0)
(0.00249341 0.00498727 0)
(0.00233349 0.006595 0)
(0.00217882 0.00809789 0)
(0.00202935 0.00949943 0)
(0.00188507 0.0108031 0)
(0.00174591 0.0120123 0)
(0.00161183 0.0131304 0)
(0.00148277 0.0141609 0)
(0.00135866 0.015107 0)
(0.00123942 0.015972 0)
(0.00112497 0.0167592 0)
(0.00101522 0.0174717 0)
(0.000910092 0.0181125 0)
(0.000809479 0.0186848 0)
(0.000713285 0.0191916 0)
(0.000621407 0.0196357 0)
(0.000533741 0.0200199 0)
(0.000450178 0.0203472 0)
(0.000370609 0.02062 0)
(0.000294923 0.0208412 0)
(0.000223008 0.0210132 0)
(0.00015475 0.0211385 0)
(9.00347e-05 0.0212195 0)
(2.87489e-05 0.0212585 0)
(-2.92222e-05 0.0212578 0)
(-8.39924e-05 0.0212195 0)
(-0.000135675 0.0211458 0)
(-0.000184384 0.0210387 0)
(-0.00023023 0.0209 0)
(-0.000273325 0.0207318 0)
(-0.000313778 0.0205357 0)
(-0.000351698 0.0203135 0)
(-0.000387191 0.0200669 0)
(-0.000420363 0.0197974 0)
(-0.000451317 0.0195065 0)
(-0.000480154 0.0191957 0)
(-0.000506974 0.0188664 0)
(-0.000531875 0.0185199 0)
(-0.00055495 0.0181574 0)
(-0.000576294 0.0177802 0)
(-0.000595997 0.0173892 0)
(-0.000614147 0.0169857 0)
(-0.000630831 0.0165705 0)
(-0.000646131 0.0161448 0)
(-0.000660129 0.0157092 0)
(-0.000672903 0.0152648 0)
(-0.00068453 0.0148122 0)
(-0.000695082 0.0143523 0)
(-0.00070463 0.0138857 0)
(-0.000713244 0.013413 0)
(-0.000720988 0.0129349 0)
(-0.000727926 0.0124519 0)
(-0.000734119 0.0119645 0)
(-0.000739624 0.0114733 0)
(-0.000744498 0.0109786 0)
(-0.000748793 0.0104808 0)
(-0.000752559 0.00998043 0)
(-0.000755845 0.00947766 0)
(-0.000758696 0.00897286 0)
(-0.000761154 0.0084663 0)
(-0.000763262 0.00795822 0)
(-0.000765055 0.00744885 0)
(-0.00076657 0.00693838 0)
(-0.00076784 0.00642698 0)
(-0.000768895 0.00591482 0)
(-0.000769764 0.00540202 0)
(-0.000770472 0.0048887 0)
(-0.000771043 0.00437496 0)
(-0.000771497 0.00386088 0)
(-0.000771854 0.00334653 0)
(-0.00077213 0.00283197 0)
(-0.000772339 0.00231726 0)
(-0.000772492 0.00180242 0)
(-0.000772599 0.0012875 0)
(-0.000772666 0.000772521 0)
(-0.000772698 0.000257511 0)
(0.0128348 -0.0735239 0)
(0.0124178 -0.0684763 0)
(0.0120012 -0.0635953 0)
(0.0115856 -0.0588807 0)
(0.0111722 -0.0543319 0)
(0.0107616 -0.0499479 0)
(0.0103547 -0.0457274 0)
(0.00995188 -0.0416688 0)
(0.00955393 -0.0377702 0)
(0.0091615 -0.0340298 0)
(0.00877478 -0.0304452 0)
(0.00839427 -0.027014 0)
(0.00802059 -0.0237335 0)
(0.00765411 -0.020601 0)
(0.00729504 -0.0176135 0)
(0.00694357 -0.0147682 0)
(0.00659995 -0.0120618 0)
(0.00626442 -0.00949119 0)
(0.00593722 -0.00705306 0)
(0.00561851 -0.00474405 0)
(0.00530839 -0.00256074 0)
(0.00500694 -0.000499686 0)
(0.00471421 0.00144259 0)
(0.00443022 0.00326959 0)
(0.00415499 0.00498481 0)
(0.00388852 0.00659174 0)
(0.00363076 0.00809389 0)
(0.0033817 0.00949474 0)
(0.00314126 0.0107977 0)
(0.00290937 0.0120064 0)
(0.00268594 0.013124 0)
(0.00247088 0.0141539 0)
(0.00226406 0.0150996 0)
(0.00206535 0.0159642 0)
(0.00187464 0.0167509 0)
(0.00169176 0.017463 0)
(0.00151657 0.0181036 0)
(0.00134891 0.0186756 0)
(0.00118861 0.0191821 0)
(0.00103551 0.019626 0)
(0.000889422 0.0200101 0)
(0.000750174 0.0203371 0)
(0.000617581 0.0206099 0)
(0.000491458 0.0208309 0)
(0.000371619 0.0210028 0)
(0.000257874 0.021128 0)
(0.000150033 0.021209 0)
(4.79069e-05 0.021248 0)
(-4.86956e-05 0.0212473 0)
(-0.000139964 0.0212091 0)
(-0.000226088 0.0211354 0)
(-0.000307256 0.0210283 0)
(-0.000383654 0.0208897 0)
(-0.000455467 0.0207215 0)
(-0.000522877 0.0205255 0)
(-0.000586067 0.0203035 0)
(-0.000645213 0.020057 0)
(-0.00070049 0.0197876 0)
(-0.000752071 0.0194969 0)
(-0.000800125 0.0191863 0)
(-0.000844818 0.0188571 0)
(-0.000886312 0.0185108 0)
(-0.000924765 0.0181485 0)
(-0.000960332 0.0177714 0)
(-0.000993165 0.0173806 0)
(-0.00102341 0.0169773 0)
(-0.00105121 0.0165624 0)
(-0.00107671 0.0161368 0)
(-0.00110003 0.0157015 0)
(-0.00112132 0.0152573 0)
(-0.00114069 0.0148049 0)
(-0.00115828 0.0143452 0)
(-0.00117419 0.0138788 0)
(-0.00118854 0.0134064 0)
(-0.00120145 0.0129285 0)
(-0.00121301 0.0124457 0)
(-0.00122333 0.0119586 0)
(-0.0012325 0.0114676 0)
(-0.00124063 0.0109732 0)
(-0.00124778 0.0104757 0)
(-0.00125406 0.0099755 0)
(-0.00125953 0.00947299 0)
(-0.00126428 0.00896843 0)
(-0.00126838 0.00846212 0)
(-0.00127189 0.00795429 0)
(-0.00127488 0.00744517 0)
(-0.00127741 0.00693495 0)
(-0.00127952 0.00642381 0)
(-0.00128128 0.0059119 0)
(-0.00128273 0.00539936 0)
(-0.00128391 0.00488629 0)
(-0.00128486 0.0043728 0)
(-0.00128562 0.00385897 0)
(-0.00128621 0.00334488 0)
(-0.00128667 0.00283057 0)
(-0.00128702 0.00231611 0)
(-0.00128727 0.00180153 0)
(-0.00128745 0.00128686 0)
(-0.00128756 0.00077214 0)
(-0.00128762 0.000257383 0)
(0.0179643 -0.0734695 0)
(0.0173806 -0.0684254 0)
(0.0167975 -0.0635481 0)
(0.0162159 -0.0588371 0)
(0.0156372 -0.0542917 0)
(0.0150625 -0.0499109 0)
(0.014493 -0.0456935 0)
(0.0139292 -0.0416379 0)
(0.0133722 -0.0377423 0)
(0.0128229 -0.0340046 0)
(0.0122816 -0.0304227 0)
(0.0117491 -0.026994 0)
(0.0112261 -0.0237159 0)
(0.0107131 -0.0205857 0)
(0.0102105 -0.0176005 0)
(0.00971858 -0.0147572 0)
(0.00923763 -0.0120529 0)
(0.00876802 -0.00948417 0)
(0.00831006 -0.00704785 0)
(0.00786397 -0.00474055 0)
(0.00742992 -0.00255885 0)
(0.00700799 -0.000499319 0)
(0.00659827 0.00144153 0)
(0.00620078 0.00326717 0)
(0.00581556 0.00498112 0)
(0.00544258 0.00658686 0)
(0.00508182 0.0080879 0)
(0.00473321 0.00948771 0)
(0.00439668 0.0107898 0)
(0.00407211 0.0119975 0)
(0.00375939 0.0131142 0)
(0.00345838 0.0141434 0)
(0.0031689 0.0150884 0)
(0.00289078 0.0159523 0)
(0.00262384 0.0167385 0)
(0.00236788 0.0174501 0)
(0.00212267 0.0180902 0)
(0.00188801 0.0186618 0)
(0.00166365 0.0191679 0)
(0.00144935 0.0196114 0)
(0.00124488 0.0199952 0)
(0.00104998 0.0203221 0)
(0.0008644 0.0205946 0)
(0.000687872 0.0208155 0)
(0.000520138 0.0209873 0)
(0.000360934 0.0211124 0)
(0.000209995 0.0211933 0)
(6.70531e-05 0.0212323 0)
(-6.8157e-05 0.0212316 0)
(-0.000195902 0.0211934 0)
(-0.000316445 0.0211197 0)
(-0.000430052 0.0210127 0)
(-0.000536983 0.0208743 0)
(-0.000637496 0.0207062 0)
(-0.000731848 0.0205104 0)
(-0.000820291 0.0202884 0)
(-0.000903075 0.0200421 0)
(-0.000980444 0.0197729 0)
(-0.00105264 0.0194824 0)
(-0.0011199 0.0191721 0)
(-0.00118245 0.0188432 0)
(-0.00124053 0.0184971 0)
(-0.00129435 0.018135 0)
(-0.00134413 0.0177582 0)
(-0.00139009 0.0173678 0)
(-0.00143242 0.0169647 0)
(-0.00147133 0.0165501 0)
(-0.00150702 0.0161248 0)
(-0.00153967 0.0156898 0)
(-0.00156946 0.015246 0)
(-0.00159658 0.014794 0)
(-0.00162119 0.0143346 0)
(-0.00164346 0.0138685 0)
(-0.00166355 0.0133964 0)
(-0.00168161 0.0129189 0)
(-0.0016978 0.0124365 0)
(-0.00171224 0.0119498 0)
(-0.00172508 0.0114591 0)
(-0.00173645 0.010965 0)
(-0.00174646 0.0104679 0)
(-0.00175525 0.00996811 0)
(-0.00176291 0.00946597 0)
(-0.00176956 0.00896179 0)
(-0.0017753 0.00845585 0)
(-0.00178021 0.0079484 0)
(-0.00178439 0.00743966 0)
(-0.00178793 0.00692982 0)
(-0.00179089 0.00641906 0)
(-0.00179335 0.00590753 0)
(-0.00179538 0.00539536 0)
(-0.00179703 0.00488267 0)
(-0.00179836 0.00436956 0)
(-0.00179942 0.00385612 0)
(-0.00180025 0.0033424 0)
(-0.0018009 0.00282848 0)
(-0.00180138 0.0023144 0)
(-0.00180174 0.0018002 0)
(-0.00180199 0.00128591 0)
(-0.00180215 0.000771568 0)
(-0.00180222 0.000257193 0)
(0.0230895 -0.073397 0)
(0.0223392 -0.0683578 0)
(0.0215896 -0.0634853 0)
(0.0208421 -0.0587789 0)
(0.0200984 -0.054238 0)
(0.0193598 -0.0498616 0)
(0.0186277 -0.0456483 0)
(0.0179031 -0.0415967 0)
(0.0171872 -0.037705 0)
(0.0164811 -0.033971 0)
(0.0157854 -0.0303926 0)
(0.015101 -0.0269673 0)
(0.0144288 -0.0236925 0)
(0.0137695 -0.0205653 0)
(0.0131235 -0.0175831 0)
(0.0124912 -0.0147427 0)
(0.011873 -0.012041 0)
(0.0112694 -0.00947481 0)
(0.0106808 -0.00704089 0)
(0.0101075 -0.00473587 0)
(0.00954962 -0.00255633 0)
(0.00900732 -0.000498826 0)
(0.0084807 0.0014401 0)
(0.00796981 0.00326395 0)
(0.00747468 0.0049762 0)
(0.0069953 0.00658036 0)
(0.00653161 0.00807991 0)
(0.00608355 0.00947834 0)
(0.00565101 0.0107791 0)
(0.00523385 0.0119856 0)
(0.00483192 0.0131013 0)
(0.00444502 0.0141295 0)
(0.00407296 0.0150735 0)
(0.0037155 0.0159366 0)
(0.0033724 0.016722 0)
(0.00304341 0.0174329 0)
(0.00272826 0.0180723 0)
(0.00242664 0.0186434 0)
(0.00213827 0.019149 0)
(0.00186284 0.0195921 0)
(0.00160004 0.0199755 0)
(0.00134954 0.020302 0)
(0.00111101 0.0205743 0)
(0.000884116 0.0207949 0)
(0.000668529 0.0209665 0)
(0.000463906 0.0210915 0)
(0.000269904 0.0211724 0)
(8.61827e-05 0.0212113 0)
(-8.76016e-05 0.0212106 0)
(-0.000251791 0.0211724 0)
(-0.000406725 0.0210989 0)
(-0.000552742 0.020992 0)
(-0.000690179 0.0208536 0)
(-0.000819368 0.0206857 0)
(-0.000940637 0.0204901 0)
(-0.00105431 0.0202684 0)
(-0.00116071 0.0200223 0)
(-0.00126016 0.0197534 0)
(-0.00135295 0.0194632 0)
(-0.0014394 0.0191531 0)
(-0.0015198 0.0188246 0)
(-0.00159444 0.0184788 0)
(-0.00166362 0.0181171 0)
(-0.0017276 0.0177407 0)
(-0.00178667 0.0173506 0)
(-0.00184108 0.016948 0)
(-0.00189109 0.0165337 0)
(-0.00193696 0.0161089 0)
(-0.00197892 0.0156743 0)
(-0.00201722 0.0152309 0)
(-0.00205207 0.0147793 0)
(-0.0020837 0.0143204 0)
(-0.00211233 0.0138548 0)
(-0.00213815 0.0133832 0)
(-0.00216136 0.0129062 0)
(-0.00218216 0.0124242 0)
(-0.00220073 0.011938 0)
(-0.00221723 0.0114478 0)
(-0.00223184 0.0109542 0)
(-0.00224472 0.0104576 0)
(-0.00225601 0.00995827 0)
(-0.00226586 0.00945662 0)
(-0.0022744 0.00895294 0)
(-0.00228177 0.0084475 0)
(-0.00228809 0.00794055 0)
(-0.00229347 0.00743231 0)
(-0.00229801 0.00692297 0)
(-0.00230181 0.00641271 0)
(-0.00230498 0.00590169 0)
(-0.00230758 0.00539003 0)
(-0.0023097 0.00487785 0)
(-0.00231142 0.00436525 0)
(-0.00231278 0.00385231 0)
(-0.00231385 0.0033391 0)
(-0.00231468 0.00282568 0)
(-0.0023153 0.00231211 0)
(-0.00231576 0.00179842 0)
(-0.00231608 0.00128464 0)
(-0.00231628 0.000770806 0)
(-0.00231638 0.000256939 0)
(0.028209 -0.0733064 0)
(0.0272923 -0.0682735 0)
(0.0263764 -0.0634069 0)
(0.0254632 -0.0587063 0)
(0.0245546 -0.054171 0)
(0.0236522 -0.0498 0)
(0.0227578 -0.0455919 0)
(0.0218726 -0.0415454 0)
(0.0209979 -0.0376584 0)
(0.0201353 -0.0339291 0)
(0.0192854 -0.0303551 0)
(0.0184493 -0.026934 0)
(0.017628 -0.0236632 0)
(0.0168225 -0.0205399 0)
(0.0160332 -0.0175614 0)
(0.0152607 -0.0147244 0)
(0.0145055 -0.0120261 0)
(0.0137681 -0.00946311 0)
(0.013049 -0.00703221 0)
(0.0123485 -0.00473003 0)
(0.011667 -0.00255318 0)
(0.0110044 -0.000498214 0)
(0.010361 0.00143832 0)
(0.00973688 0.00325991 0)
(0.00913197 0.00497005 0)
(0.00854629 0.00657223 0)
(0.0079798 0.00806993 0)
(0.00743239 0.00946663 0)
(0.00690395 0.0107658 0)
(0.0063943 0.0119708 0)
(0.00590324 0.0130851 0)
(0.00543057 0.014112 0)
(0.00497601 0.0150548 0)
(0.0045393 0.0159169 0)
(0.00412013 0.0167013 0)
(0.0037182 0.0174113 0)
(0.00333316 0.01805 0)
(0.00296467 0.0186203 0)
(0.00261237 0.0191253 0)
(0.00227587 0.0195679 0)
(0.0019548 0.0199508 0)
(0.00164875 0.0202769 0)
(0.00135734 0.0205488 0)
(0.00108014 0.0207692 0)
(0.000816755 0.0209406 0)
(0.000566762 0.0210655 0)
(0.000329747 0.0211462 0)
(0.000105291 0.0211851 0)
(-0.000107025 0.0211844 0)
(-0.000307618 0.0211463 0)
(-0.000496903 0.0210728 0)
(-0.000675296 0.020966 0)
(-0.000843205 0.0208279 0)
(-0.00100104 0.0206602 0)
(-0.0011492 0.0204648 0)
(-0.00128807 0.0202434 0)
(-0.00141807 0.0199976 0)
(-0.00153956 0.019729 0)
(-0.00165292 0.0194391 0)
(-0.00175854 0.0191295 0)
(-0.00185677 0.0188013 0)
(-0.00194796 0.018456 0)
(-0.00203248 0.0180947 0)
(-0.00211065 0.0177188 0)
(-0.00218281 0.0173292 0)
(-0.00224928 0.016927 0)
(-0.00231038 0.0165133 0)
(-0.00236642 0.016089 0)
(-0.00241769 0.015655 0)
(-0.00246447 0.0152121 0)
(-0.00250705 0.0147611 0)
(-0.0025457 0.0143027 0)
(-0.00258067 0.0138377 0)
(-0.00261222 0.0133667 0)
(-0.00264058 0.0128902 0)
(-0.00266599 0.0124089 0)
(-0.00268867 0.0119232 0)
(-0.00270883 0.0114337 0)
(-0.00272668 0.0109407 0)
(-0.00274241 0.0104447 0)
(-0.00275621 0.00994596 0)
(-0.00276824 0.00944494 0)
(-0.00277868 0.00894188 0)
(-0.00278769 0.00843706 0)
(-0.0027954 0.00793074 0)
(-0.00280197 0.00742313 0)
(-0.00280752 0.00691442 0)
(-0.00281217 0.00640479 0)
(-0.00281604 0.0058944 0)
(-0.00281922 0.00538337 0)
(-0.00282181 0.00487182 0)
(-0.0028239 0.00435985 0)
(-0.00282557 0.00384755 0)
(-0.00282688 0.00333497 0)
(-0.00282789 0.00282219 0)
(-0.00282865 0.00230925 0)
(-0.00282921 0.0017962 0)
(-0.0028296 0.00128305 0)
(-0.00282985 0.000769853 0)
(-0.00282997 0.000256621 0)
(0.0333215 -0.0731976 0)
(0.0322386 -0.0681722 0)
(0.0311567 -0.0633128 0)
(0.030078 -0.0586192 0)
(0.0290047 -0.0540906 0)
(0.0279388 -0.0497261 0)
(0.0268823 -0.0455243 0)
(0.0258366 -0.0414837 0)
(0.0248035 -0.0376026 0)
(0.0237845 -0.0338787 0)
(0.0227805 -0.03031 0)
(0.0217929 -0.026894 0)
(0.0208229 -0.023628 0)
(0.0198713 -0.0205094 0)
(0.018939 -0.0175353 0)
(0.0180264 -0.0147026 0)
(0.0171343 -0.0120083 0)
(0.0162633 -0.00944908 0)
(0.0154139 -0.00702178 0)
(0.0145865 -0.00472302 0)
(0.0137814 -0.00254939 0)
(0.0129988 -0.000497478 0)
(0.0122388 0.00143619 0)
(0.0115015 0.00325508 0)
(0.010787 0.00496268 0)
(0.0100952 0.00656248 0)
(0.00942601 0.00805796 0)
(0.0087794 0.00945258 0)
(0.00815518 0.0107498 0)
(0.00755317 0.011953 0)
(0.00697312 0.0130657 0)
(0.00641477 0.0140911 0)
(0.00587783 0.0150325 0)
(0.00536197 0.0158933 0)
(0.00486684 0.0166765 0)
(0.00439207 0.0173855 0)
(0.00393725 0.0180232 0)
(0.00350198 0.0185927 0)
(0.00308582 0.0190969 0)
(0.00268834 0.0195388 0)
(0.00230907 0.0199212 0)
(0.00194756 0.0202468 0)
(0.00160333 0.0205183 0)
(0.0012759 0.0207384 0)
(0.000964779 0.0209096 0)
(0.000669479 0.0210342 0)
(0.000389509 0.0211148 0)
(0.000124373 0.0211537 0)
(-0.000126421 0.021153 0)
(-0.000363369 0.0211149 0)
(-0.00058696 0.0210415 0)
(-0.000797683 0.0209349 0)
(-0.000996023 0.020797 0)
(-0.00118246 0.0206295 0)
(-0.00135747 0.0204344 0)
(-0.00152152 0.0202133 0)
(-0.00167507 0.0199679 0)
(-0.00181858 0.0196997 0)
(-0.00195249 0.0194103 0)
(-0.00207725 0.0191011 0)
(-0.00219328 0.0187734 0)
(-0.002301 0.0184286 0)
(-0.00240083 0.0180679 0)
(-0.00249317 0.0176925 0)
(-0.00257841 0.0173035 0)
(-0.00265693 0.0169019 0)
(-0.00272911 0.0164888 0)
(-0.0027953 0.0160651 0)
(-0.00285586 0.0156318 0)
(-0.00291112 0.0151895 0)
(-0.00296142 0.0147392 0)
(-0.00300707 0.0142815 0)
(-0.00304838 0.0138172 0)
(-0.00308564 0.0133468 0)
(-0.00311914 0.0128711 0)
(-0.00314916 0.0123905 0)
(-0.00317595 0.0119055 0)
(-0.00319977 0.0114167 0)
(-0.00322085 0.0109244 0)
(-0.00323943 0.0104292 0)
(-0.00325573 0.00993121 0)
(-0.00326994 0.00943092 0)
(-0.00328228 0.00892861 0)
(-0.00329291 0.00842454 0)
(-0.00330203 0.00791897 0)
(-0.00330979 0.00741211 0)
(-0.00331634 0.00690416 0)
(-0.00332183 0.00639529 0)
(-0.0033264 0.00588565 0)
(-0.00333016 0.00537538 0)
(-0.00333322 0.00486459 0)
(-0.00333569 0.00435338 0)
(-0.00333766 0.00384184 0)
(-0.0033392 0.00333003 0)
(-0.0033404 0.00281801 0)
(-0.0033413 0.00230583 0)
(-0.00334196 0.00179353 0)
(-0.00334242 0.00128115 0)
(-0.00334271 0.000768711 0)
(-0.00334285 0.000256241 0)
(0.0384257 -0.0730707 0)
(0.037177 -0.0680541 0)
(0.0359293 -0.0632031 0)
(0.0346854 -0.0585176 0)
(0.0334477 -0.0539969 0)
(0.0322185 -0.0496399 0)
(0.0310002 -0.0454454 0)
(0.0297943 -0.0414119 0)
(0.0286029 -0.0375374 0)
(0.0274278 -0.03382 0)
(0.0262701 -0.0302575 0)
(0.0251312 -0.0268474 0)
(0.0240126 -0.0235871 0)
(0.0229153 -0.0204739 0)
(0.0218401 -0.0175049 0)
(0.0207877 -0.0146771 0)
(0.019759 -0.0119875 0)
(0.0187546 -0.00943272 0)
(0.0177751 -0.00700962 0)
(0.0168209 -0.00471484 0)
(0.0158925 -0.00254498 0)
(0.01499 -0.000496616 0)
(0.0141136 0.0014337 0)
(0.0132634 0.00324944 0)
(0.0124394 0.00495408 0)
(0.0116416 0.00655111 0)
(0.0108699 0.008044 0)
(0.0101242 0.00943621 0)
(0.0094044 0.0107312 0)
(0.00871017 0.0119323 0)
(0.00804127 0.013043 0)
(0.0073974 0.0140667 0)
(0.00677821 0.0150065 0)
(0.00618333 0.0158657 0)
(0.00561235 0.0166477 0)
(0.00506485 0.0173554 0)
(0.00454036 0.017992 0)
(0.00403841 0.0185605 0)
(0.00355851 0.0190638 0)
(0.00310014 0.019505 0)
(0.00266278 0.0198867 0)
(0.0022459 0.0202117 0)
(0.00184893 0.0204828 0)
(0.00147134 0.0207025 0)
(0.00111257 0.0208733 0)
(0.000772031 0.0209978 0)
(0.000449174 0.0210782 0)
(0.000143425 0.021117 0)
(-0.000145787 0.0211163 0)
(-0.00041903 0.0210783 0)
(-0.000676871 0.0210051 0)
(-0.000919873 0.0208986 0)
(-0.0011486 0.0207609 0)
(-0.00136359 0.0205938 0)
(-0.00156541 0.020399 0)
(-0.00175459 0.0201783 0)
(-0.00193166 0.0199333 0)
(-0.00209715 0.0196656 0)
(-0.00225158 0.0193767 0)
(-0.00239544 0.019068 0)
(-0.00252925 0.0187409 0)
(-0.00265347 0.0183967 0)
(-0.00276859 0.0180366 0)
(-0.00287508 0.0176618 0)
(-0.00297337 0.0172735 0)
(-0.00306392 0.0168726 0)
(-0.00314715 0.0164602 0)
(-0.00322349 0.0160373 0)
(-0.00329332 0.0156047 0)
(-0.00335705 0.0151632 0)
(-0.00341505 0.0147136 0)
(-0.00346769 0.0142568 0)
(-0.00351533 0.0137932 0)
(-0.0035583 0.0133237 0)
(-0.00359694 0.0128488 0)
(-0.00363155 0.012369 0)
(-0.00366245 0.0118849 0)
(-0.00368991 0.0113969 0)
(-0.00371423 0.0109055 0)
(-0.00373565 0.0104111 0)
(-0.00375444 0.009914 0)
(-0.00377084 0.00941458 0)
(-0.00378506 0.00891314 0)
(-0.00379733 0.00840995 0)
(-0.00380784 0.00790525 0)
(-0.00381679 0.00739927 0)
(-0.00382434 0.0068922 0)
(-0.00383068 0.00638421 0)
(-0.00383594 0.00587545 0)
(-0.00384028 0.00536607 0)
(-0.00384381 0.00485616 0)
(-0.00384666 0.00434584 0)
(-0.00384893 0.00383518 0)
(-0.00385071 0.00332426 0)
(-0.00385208 0.00281312 0)
(-0.00385312 0.00230183 0)
(-0.00385389 0.00179042 0)
(-0.00385442 0.00127893 0)
(-0.00385476 0.000767379 0)
(-0.00385492 0.000255797 0)
(0.0435205 -0.0729258 0)
(0.0421062 -0.0679191 0)
(0.0406931 -0.0630778 0)
(0.0392842 -0.0584016 0)
(0.0378824 -0.0538899 0)
(0.0364903 -0.0495415 0)
(0.0351104 -0.0453553 0)
(0.0337447 -0.0413298 0)
(0.0323953 -0.037463 0)
(0.0310644 -0.033753 0)
(0.0297532 -0.0301975 0)
(0.0284633 -0.0267941 0)
(0.0271964 -0.0235403 0)
(0.0259535 -0.0204333 0)
(0.0247358 -0.0174702 0)
(0.0235439 -0.014648 0)
(0.0223788 -0.0119637 0)
(0.0212412 -0.00941403 0)
(0.0201318 -0.00699573 0)
(0.0190512 -0.0047055 0)
(0.0179997 -0.00253994 0)
(0.0169775 -0.000495633 0)
(0.0159849 0.00143086 0)
(0.0150219 0.003243 0)
(0.0140887 0.00494426 0)
(0.0131851 0.00653812 0)
(0.0123111 0.00802805 0)
(0.0114666 0.0094175 0)
(0.0106513 0.0107099 0)
(0.00986503 0.0119087 0)
(0.00910744 0.0130172 0)
(0.0083782 0.0140388 0)
(0.00767691 0.0149767 0)
(0.00700316 0.0158343 0)
(0.00635648 0.0166146 0)
(0.00573638 0.017321 0)
(0.00514235 0.0179563 0)
(0.00457385 0.0185237 0)
(0.00403032 0.0190261 0)
(0.00351118 0.0194663 0)
(0.00301583 0.0198473 0)
(0.00254367 0.0201717 0)
(0.00209408 0.0204422 0)
(0.00166643 0.0206614 0)
(0.00126008 0.0208319 0)
(0.000874392 0.0209562 0)
(0.000508729 0.0210364 0)
(0.000162441 0.0210751 0)
(-0.000165116 0.0210744 0)
(-0.000474588 0.0210365 0)
(-0.000766616 0.0209634 0)
(-0.00104184 0.0208572 0)
(-0.00130088 0.0207198 0)
(-0.00154439 0.020553 0)
(-0.00177296 0.0203586 0)
(-0.00198722 0.0201383 0)
(-0.00218777 0.0198938 0)
(-0.00237521 0.0196266 0)
(-0.00255011 0.0193383 0)
(-0.00271305 0.0190302 0)
(-0.00286459 0.0187037 0)
(-0.00300529 0.0183602 0)
(-0.00313567 0.0180008 0)
(-0.00325627 0.0176268 0)
(-0.0033676 0.0172392 0)
(-0.00347016 0.0168392 0)
(-0.00356443 0.0164276 0)
(-0.00365088 0.0160055 0)
(-0.00372997 0.0155737 0)
(-0.00380215 0.0151331 0)
(-0.00386784 0.0146845 0)
(-0.00392747 0.0142285 0)
(-0.00398142 0.0137659 0)
(-0.00403009 0.0132973 0)
(-0.00407385 0.0128233 0)
(-0.00411305 0.0123445 0)
(-0.00414804 0.0118613 0)
(-0.00417915 0.0113743 0)
(-0.00420669 0.0108839 0)
(-0.00423095 0.0103904 0)
(-0.00425223 0.00989434 0)
(-0.0042708 0.00939592 0)
(-0.00428691 0.00889547 0)
(-0.0043008 0.00839327 0)
(-0.00431271 0.00788958 0)
(-0.00432284 0.0073846 0)
(-0.0043314 0.00687853 0)
(-0.00433858 0.00637155 0)
(-0.00434454 0.00586381 0)
(-0.00434945 0.00535543 0)
(-0.00435345 0.00484654 0)
(-0.00435667 0.00433722 0)
(-0.00435924 0.00382758 0)
(-0.00436126 0.00331766 0)
(-0.00436282 0.00280755 0)
(-0.004364 0.00229727 0)
(-0.00436486 0.00178687 0)
(-0.00436547 0.00127639 0)
(-0.00436585 0.000765858 0)
(-0.00436603 0.000255289 0)
(0.0486045 -0.072763 0)
(0.047025 -0.0677674 0)
(0.0454468 -0.062937 0)
(0.0438734 -0.0582712 0)
(0.0423078 -0.0537695 0)
(0.0407531 -0.0494309 0)
(0.0392119 -0.0452541 0)
(0.0376867 -0.0412375 0)
(0.0361797 -0.0373793 0)
(0.0346933 -0.0336776 0)
(0.0332289 -0.03013 0)
(0.0317884 -0.0267343 0)
(0.0303734 -0.0234878 0)
(0.0289854 -0.0203877 0)
(0.0276253 -0.0174312 0)
(0.0262942 -0.0146153 0)
(0.024993 -0.011937 0)
(0.0237225 -0.00939301 0)
(0.0224836 -0.00698012 0)
(0.0212767 -0.00469499 0)
(0.0201024 -0.00253427 0)
(0.0189608 -0.000494528 0)
(0.0178522 0.00142766 0)
(0.0167768 0.00323575 0)
(0.0157345 0.00493322 0)
(0.0147254 0.00652352 0)
(0.0137493 0.00801013 0)
(0.0128061 0.00939647 0)
(0.0118956 0.010686 0)
(0.0110174 0.0118821 0)
(0.0101714 0.0129881 0)
(0.00935693 0.0140074 0)
(0.00857372 0.0149433 0)
(0.00782126 0.0157989 0)
(0.00709904 0.0165775 0)
(0.0064065 0.0172823 0)
(0.00574308 0.0179162 0)
(0.00510817 0.0184823 0)
(0.00450114 0.0189836 0)
(0.00392135 0.0194228 0)
(0.00336814 0.0198029 0)
(0.00284082 0.0201266 0)
(0.00233871 0.0203965 0)
(0.0018611 0.0206153 0)
(0.00140728 0.0207854 0)
(0.000976538 0.0209094 0)
(0.000568158 0.0209895 0)
(0.000181417 0.0210281 0)
(-0.000184405 0.0210274 0)
(-0.000530029 0.0209895 0)
(-0.000856171 0.0209166 0)
(-0.00116354 0.0208106 0)
(-0.00145285 0.0206735 0)
(-0.0017248 0.0205071 0)
(-0.00198008 0.0203131 0)
(-0.00221937 0.0200933 0)
(-0.00244335 0.0198494 0)
(-0.00265268 0.0195828 0)
(-0.00284801 0.0192951 0)
(-0.00302998 0.0189877 0)
(-0.00319923 0.0186619 0)
(-0.00335636 0.0183192 0)
(-0.00350198 0.0179606 0)
(-0.00363667 0.0175874 0)
(-0.003761 0.0172007 0)
(-0.00387554 0.0168016 0)
(-0.00398082 0.0163909 0)
(-0.00407737 0.0159698 0)
(-0.0041657 0.015539 0)
(-0.00424631 0.0150993 0)
(-0.00431968 0.0146517 0)
(-0.00438627 0.0141967 0)
(-0.00444652 0.0137352 0)
(-0.00450088 0.0132676 0)
(-0.00454975 0.0127947 0)
(-0.00459353 0.0123169 0)
(-0.00463261 0.0118348 0)
(-0.00466735 0.0113489 0)
(-0.00469811 0.0108596 0)
(-0.00472521 0.0103672 0)
(-0.00474898 0.00987225 0)
(-0.00476971 0.00937493 0)
(-0.0047877 0.0088756 0)
(-0.00480322 0.00837453 0)
(-0.00481651 0.00787196 0)
(-0.00482783 0.00736811 0)
(-0.00483739 0.00686317 0)
(-0.0048454 0.00635732 0)
(-0.00485206 0.00585071 0)
(-0.00485755 0.00534347 0)
(-0.00486201 0.00483571 0)
(-0.00486562 0.00432754 0)
(-0.00486849 0.00381903 0)
(-0.00487074 0.00331026 0)
(-0.00487248 0.00280128 0)
(-0.0048738 0.00229214 0)
(-0.00487476 0.00178288 0)
(-0.00487544 0.00127354 0)
(-0.00487586 0.000764147 0)
(-0.00487606 0.000254719 0)
(0.0536765 -0.0725822 0)
(0.0519322 -0.0675991 0)
(0.0501893 -0.0627806 0)
(0.0484517 -0.0581264 0)
(0.0467228 -0.0536359 0)
(0.0450058 -0.0493081 0)
(0.0433038 -0.0451416 0)
(0.0416194 -0.041135 0)
(0.0399552 -0.0372864 0)
(0.0383137 -0.0335939 0)
(0.0366965 -0.0300552 0)
(0.0351056 -0.0266679 0)
(0.033543 -0.0234294 0)
(0.0320101 -0.020337 0)
(0.0305081 -0.0173879 0)
(0.0290381 -0.014579 0)
(0.0276011 -0.0119073 0)
(0.0261981 -0.00936968 0)
(0.0248298 -0.00696278 0)
(0.023497 -0.00468333 0)
(0.0222001 -0.00252797 0)
(0.0209394 -0.0004933 0)
(0.0197152 0.00142411 0)
(0.0185275 0.00322771 0)
(0.0173764 0.00492096 0)
(0.016262 0.00650731 0)
(0.0151841 0.00799022 0)
(0.0141425 0.00937313 0)
(0.0131369 0.0106594 0)
(0.0121671 0.0118526 0)
(0.0112328 0.0129558 0)
(0.0103334 0.0139726 0)
(0.00946841 0.0149061 0)
(0.00863743 0.0157597 0)
(0.00783984 0.0165364 0)
(0.00707504 0.0172393 0)
(0.00634239 0.0178717 0)
(0.00564122 0.0184364 0)
(0.00497085 0.0189364 0)
(0.00433056 0.0193746 0)
(0.00371961 0.0197537 0)
(0.00313727 0.0200766 0)
(0.00258276 0.0203459 0)
(0.00205531 0.0205641 0)
(0.00155413 0.0207338 0)
(0.00107844 0.0208574 0)
(0.000627447 0.0209373 0)
(0.000200349 0.0209758 0)
(-0.000203649 0.0209751 0)
(-0.000585339 0.0209374 0)
(-0.000945515 0.0208647 0)
(-0.00128496 0.0207589 0)
(-0.00160446 0.0206221 0)
(-0.00190479 0.0204561 0)
(-0.0021867 0.0202626 0)
(-0.00245097 0.0200434 0)
(-0.00269832 0.0198 0)
(-0.00292949 0.0195341 0)
(-0.00314521 0.0192471 0)
(-0.00334617 0.0189405 0)
(-0.00353308 0.0186156 0)
(-0.00370661 0.0182737 0)
(-0.00386742 0.017916 0)
(-0.00401617 0.0175437 0)
(-0.00415348 0.017158 0)
(-0.00427996 0.0167598 0)
(-0.00439623 0.0163502 0)
(-0.00450286 0.0159301 0)
(-0.00460041 0.0155003 0)
(-0.00468943 0.0150618 0)
(-0.00477045 0.0146153 0)
(-0.00484399 0.0141614 0)
(-0.00491053 0.013701 0)
(-0.00497056 0.0132346 0)
(-0.00502453 0.0127629 0)
(-0.00507288 0.0122863 0)
(-0.00511604 0.0118054 0)
(-0.0051544 0.0113207 0)
(-0.00518837 0.0108326 0)
(-0.0052183 0.0103415 0)
(-0.00524455 0.00984772 0)
(-0.00526745 0.00935164 0)
(-0.00528731 0.00885355 0)
(-0.00530445 0.00835372 0)
(-0.00531913 0.0078524 0)
(-0.00533163 0.0073498 0)
(-0.00534219 0.00684612 0)
(-0.00535104 0.00634152 0)
(-0.00535839 0.00583617 0)
(-0.00536444 0.00533019 0)
(-0.00536938 0.0048237 0)
(-0.00537336 0.00431679 0)
(-0.00537653 0.00380954 0)
(-0.00537902 0.00330203 0)
(-0.00538094 0.00279431 0)
(-0.00538239 0.00228644 0)
(-0.00538346 0.00177845 0)
(-0.0053842 0.00127038 0)
(-0.00538467 0.000762249 0)
(-0.0053849 0.000254086 0)
(0.0587353 -0.0723835 0)
(0.0568266 -0.067414 0)
(0.0549195 -0.0626087 0)
(0.053018 -0.0579673 0)
(0.0511262 -0.0534891 0)
(0.0492474 -0.0491731 0)
(0.047385 -0.045018 0)
(0.0455419 -0.0410223 0)
(0.0437208 -0.0371843 0)
(0.0419246 -0.0335019 0)
(0.040155 -0.0299729 0)
(0.0384142 -0.0265948 0)
(0.0367042 -0.0233653 0)
(0.0350269 -0.0202814 0)
(0.0333833 -0.0173403 0)
(0.0317748 -0.0145391 0)
(0.0302024 -0.0118748 0)
(0.0286671 -0.00934403 0)
(0.0271699 -0.00694372 0)
(0.0257115 -0.00467051 0)
(0.0242924 -0.00252105 0)
(0.0229129 -0.000491951 0)
(0.0215732 0.00142021 0)
(0.0202736 0.00321888 0)
(0.0190141 0.00490749 0)