/*--------------------------------*- C++ -*----------------------------------*\
| =========                 |                                                 |
| \\      /  F ield         | OpenFOAM: The Open Source CFD Toolbox           |
|  \\    /   O peration     | Version:  2406                                  |
|   \\  /    A nd           | Website:  www.openfoam.com                      |
|    \\/     M anipulation  |                                                 |
\*---------------------------------------------------------------------------*/
FoamFile
{
    version     2.0;
    format      ascii;
    arch        "LSB;label=32;scalar=64";
    class       volScalarField;
    location    "10";
    object      gradTy;
}
// * * * * * * * * * * * * * * * * * * * * * * * * * * * * * * * * * * * * * //

dimensions      [0 -1 0 1 0 0 0];

internalField   nonuniform List<scalar> 
20000
(
34.0813
29.7633
25.932
22.5415
19.5491
16.915
14.6023
12.5773
10.8087
9.26803
7.92938
6.76919
5.76628
4.90145
4.15749
3.51906
2.97253
2.5058
2.10812
1.77006
1.48331
1.24063
1.0357
0.86302
0.717827
0.595996
0.493975
0.408711
0.337588
0.278374
0.229167
0.188353
0.15456
0.126631
0.10359
0.0846128
0.06901
0.0562025
0.0457065
0.0371185
0.0301026
0.0243797
0.0197185
0.0159275
0.0128488
0.0103521
0.00833013
0.00669486
0.00537411
0.00430879
0.0034506
0.00276016
0.00220537
0.00176012
0.00140322
0.00111748
0.000888967
0.000706441
0.000560809
0.000444743
0.000352342
0.000278861
0.000220487
0.000174164
0.000137442
0.00010836
8.53518e-05
6.71673e-05
5.28091e-05
4.14829e-05
3.25571e-05
2.55294e-05
2.00014e-05
1.5657e-05
1.22459e-05
9.56993e-06
7.47254e-06
5.83007e-06
4.54492e-06
3.54021e-06
2.75541e-06
2.14292e-06
1.66521e-06
1.29301e-06
1.00318e-06
7.77689e-07
6.02363e-07
4.66083e-07
3.60256e-07
2.78044e-07
2.14229e-07
1.64624e-07
1.2601e-07
9.58456e-08
7.21201e-08
5.33129e-08
3.80918e-08
2.54907e-08
1.46216e-08
4.77396e-09
34.0729
29.7559
25.9256
22.536
19.5443
16.9108
14.5987
12.5742
10.806
9.26572
7.92741
6.76754
5.76487
4.90023
4.15645
3.51819
2.97181
2.50519
2.10761
1.76962
1.48294
1.24032
1.03544
0.862808
0.717652
0.595851
0.493855
0.40861
0.337504
0.278305
0.22911
0.188305
0.154521
0.1266
0.103564
0.0845918
0.0689929
0.0561886
0.0456953
0.0371094
0.0300952
0.0243737
0.0197137
0.0159237
0.0128457
0.0103496
0.00832812
0.00669325
0.00537282
0.00430776
0.00344979
0.00275951
0.00220486
0.00175971
0.0014029
0.00111722
0.000888766
0.000706282
0.000560684
0.000444645
0.000352265
0.000278801
0.00022044
0.000174128
0.000137413
0.000108338
8.53347e-05
6.71541e-05
5.27989e-05
4.14751e-05
3.2551e-05
2.55247e-05
1.99978e-05
1.56543e-05
1.22438e-05
9.56837e-06
7.47135e-06
5.82914e-06
4.54421e-06
3.5397e-06
2.75506e-06
2.14263e-06
1.66502e-06
1.29285e-06
1.00305e-06
7.77589e-07
6.02285e-07
4.66038e-07
3.6019e-07
2.78055e-07
2.14218e-07
1.64624e-07
1.25977e-07
9.58122e-08
7.20979e-08
5.32574e-08
3.80806e-08
2.54574e-08
1.45994e-08
4.75175e-09
34.0561
29.7412
25.9128
22.5248
19.5346
16.9025
14.5915
12.568
10.8007
9.26114
7.9235
6.76421
5.76202
4.8978
4.15439
3.51645
2.97035
2.50396
2.10657
1.76875
1.48221
1.23971
1.03493
0.862384
0.7173
0.59556
0.493612
0.408409
0.337337
0.278166
0.228996
0.188211
0.154444
0.126537
0.103512
0.0845499
0.0689588
0.0561609
0.0456728
0.0370912
0.0300805
0.0243618
0.019704
0.0159159
0.0128395
0.0103446
0.00832408
0.00669001
0.00537023
0.00430569
0.00344813
0.00275819
0.0022038
0.00175888
0.00140224
0.0011167
0.00088835
0.000705954
0.000560425
0.000444441
0.000352105
0.000278675
0.000220342
0.00017405
0.000137353
0.00010829
8.52979e-05
6.71254e-05
5.27766e-05
4.14578e-05
3.25376e-05
2.55144e-05
1.99898e-05
1.56481e-05
1.22391e-05
9.56472e-06
7.46854e-06
5.82699e-06
4.54259e-06
3.53846e-06
2.75411e-06
2.14191e-06
1.66448e-06
1.29242e-06
1.00276e-06
7.77356e-07
6.02096e-07
4.65894e-07
3.60101e-07
2.77967e-07
2.14173e-07
1.64568e-07
1.25977e-07
9.579e-08
7.21312e-08
5.32796e-08
3.80695e-08
2.54796e-08
1.46216e-08
4.74065e-09
34.0309
29.7193
25.8936
22.5081
19.5201
16.8899
14.5807
12.5587
10.7927
9.25429
7.91764
6.7592
5.75775
4.89417
4.15131
3.51385
2.96815
2.5021
2.10501
1.76743
1.48111
1.23879
1.03417
0.861748
0.716771
0.59512
0.493248
0.408106
0.337087
0.277959
0.228825
0.188071
0.154329
0.126442
0.103436
0.0844872
0.0689078
0.0561194
0.0456391
0.0370638
0.0300583
0.0243439
0.0196896
0.0159042
0.0128301
0.010337
0.00831802
0.00668515
0.00536634
0.00430257
0.00344565
0.00275621
0.00220223
0.00175763
0.00140124
0.00111591
0.000887726
0.00070546
0.000560035
0.000444134
0.000351863
0.000278485
0.000220192
0.000173933
0.000137261
0.000108219
8.52421e-05
6.70819e-05
5.27427e-05
4.14314e-05
3.25172e-05
2.54986e-05
1.99776e-05
1.56386e-05
1.22317e-05
9.55903e-06
7.46418e-06
5.82367e-06
4.54002e-06
3.5365e-06
2.75258e-06
2.14075e-06
1.66361e-06
1.29178e-06
1.00229e-06
7.7699e-07
6.01796e-07
4.65683e-07
3.59957e-07
2.77833e-07
2.14051e-07
1.64491e-07
1.2591e-07
9.57678e-08
7.20757e-08
5.32685e-08
3.80695e-08
2.54685e-08
1.46105e-08
4.75175e-09
33.9972
29.6899
25.868
22.4859
19.5009
16.8732
14.5663
12.5463
10.782
9.24515
7.90981
6.75252
5.75206
4.88934
4.14721
3.51039
2.96522
2.49963
2.10293
1.76568
1.47964
1.23756
1.03315
0.860898
0.716065
0.594533
0.492761
0.407703
0.336753
0.277684
0.228598
0.187884
0.154176
0.126317
0.103333
0.0844036
0.0688397
0.056064
0.0455941
0.0370274
0.0300288
0.02432
0.0196703
0.0158887
0.0128175
0.0103269
0.00830991
0.00667865
0.00536113
0.00429841
0.00344232
0.00275356
0.00220012
0.00175595
0.00139991
0.00111485
0.000886887
0.000704797
0.000559511
0.00044372
0.000351537
0.000278228
0.000219991
0.000173775
0.000137137
0.000108122
8.51661e-05
6.70226e-05
5.26964e-05
4.13954e-05
3.24891e-05
2.54768e-05
1.99607e-05
1.56256e-05
1.22216e-05
9.55122e-06
7.45815e-06
5.81899e-06
4.53644e-06
3.53375e-06
2.75048e-06
2.13913e-06
1.66237e-06
1.29086e-06
1.00153e-06
7.76457e-07
6.01397e-07
4.65405e-07
3.59723e-07
2.77667e-07
2.13929e-07
1.64402e-07
1.2581e-07
9.57123e-08
7.20313e-08
5.32241e-08
3.80473e-08
2.54463e-08
1.46105e-08
4.78506e-09
33.9552
29.6532
25.8361
22.4581
19.4768
16.8524
14.5483
12.5308
10.7687
9.23373
7.90004
6.74418
5.74495
4.8833
4.14209
3.50605
2.96156
2.49654
2.10033
1.7635
1.47781
1.23604
1.03187
0.859836
0.715181
0.593799
0.492152
0.407199
0.336336
0.27734
0.228315
0.187652
0.153985
0.126161
0.103205
0.0842993
0.0687547
0.0559949
0.0455379
0.0369818
0.0299918
0.0242901
0.0196461
0.0158692
0.0128018
0.0103143
0.00829977
0.00667051
0.00535461
0.00429319
0.00343815
0.00275023
0.00219746
0.00175384
0.00139823
0.00111352
0.000885832
0.000703961
0.00055885
0.000443198
0.000351126
0.000277904
0.000219736
0.000173575
0.00013698
0.000107999
8.50696e-05
6.69471e-05
5.26375e-05
4.13494e-05
3.24533e-05
2.54489e-05
1.9939e-05
1.56087e-05
1.22086e-05
9.54111e-06
7.45033e-06
5.81296e-06
4.53179e-06
3.53012e-06
2.74771e-06
2.137e-06
1.66073e-06
1.2896e-06
1.00058e-06
7.7568e-07
6.00853e-07
4.64928e-07
3.59379e-07
2.774e-07
2.1374e-07
1.6428e-07
1.25744e-07
9.56457e-08
7.19647e-08
5.31908e-08
3.80029e-08
2.54463e-08
1.45994e-08
4.77396e-09
33.9048
29.6092
25.7977
22.4248
19.4479
16.8274
14.5267
12.5122
10.7527
9.22003
7.88832
6.73417
5.73643
4.87605
4.13595
3.50085
2.95716
2.49284
2.09721
1.76088
1.47562
1.2342
1.03034
0.858562
0.714121
0.592918
0.491421
0.406594
0.335836
0.276927
0.227975
0.187373
0.153756
0.125973
0.103052
0.0841742
0.0686527
0.0559119
0.0454705
0.036927
0.0299475
0.0242542
0.0196171
0.0158458
0.012783
0.0102991
0.00828758
0.00666073
0.00534677
0.00428692
0.00343314
0.00274623
0.00219427
0.00175129
0.00139621
0.00111191
0.000884559
0.000702953
0.000558053
0.000442568
0.000350628
0.000277512
0.000219427
0.000173332
0.000136789
0.000107849
8.49525e-05
6.68554e-05
5.25658e-05
4.12935e-05
3.24097e-05
2.54149e-05
1.99125e-05
1.55882e-05
1.21926e-05
9.52872e-06
7.44075e-06
5.80557e-06
4.52606e-06
3.52574e-06
2.74429e-06
2.13439e-06
1.65873e-06
1.28804e-06
9.99401e-07
7.74791e-07
6.00142e-07
4.64395e-07
3.5898e-07
2.77112e-07
2.13518e-07
1.64069e-07
1.25611e-07
9.55458e-08
7.19091e-08
5.31353e-08
3.79918e-08
2.54241e-08
1.45883e-08
4.74065e-09
33.8461
29.5579
25.753
22.3859
19.4142
16.7982
14.5016
12.4905
10.7341
9.20405
7.87465
6.7225
5.72649
4.86761
4.12878
3.49478
2.95204
2.48852
2.09357
1.75783
1.47306
1.23207
1.02856
0.857075
0.712884
0.591891
0.490569
0.405889
0.335254
0.276447
0.22758
0.187047
0.153489
0.125755
0.102873
0.0840283
0.0685338
0.0558151
0.0453918
0.0368632
0.0298958
0.0242124
0.0195833
0.0158185
0.012761
0.0102814
0.00827335
0.0066493
0.00533761
0.00427959
0.00342728
0.00274155
0.00219054
0.00174832
0.00139384
0.00111003
0.000883069
0.000701772
0.000557118
0.000441829
0.000350045
0.000277052
0.000219065
0.000173047
0.000136565
0.000107673
8.48144e-05
6.67474e-05
5.24813e-05
4.12274e-05
3.23581e-05
2.53746e-05
1.98812e-05
1.55638e-05
1.21737e-05
9.51403e-06
7.42932e-06
5.7967e-06
4.51921e-06
3.52043e-06
2.74022e-06
2.13123e-06
1.65631e-06
1.28618e-06
9.97968e-07
7.73681e-07
5.99276e-07
4.63785e-07
3.58513e-07
2.76734e-07
2.13218e-07
1.63858e-07
1.25444e-07
9.54126e-08
7.18092e-08
5.31131e-08
3.79585e-08
2.54019e-08
1.45994e-08
4.75175e-09
33.779
29.4993
25.702
22.3416
19.3757
16.7649
14.4728
12.4657
10.7128
9.1858
7.85904
6.70918
5.71514
4.85796
4.1206
3.48785
2.94618
2.48358
2.08942
1.75435
1.47014
1.22962
1.02652
0.855376
0.711471
0.590718
0.489596
0.405083
0.334588
0.275898
0.227128
0.186676
0.153185
0.125505
0.102669
0.0838617
0.0683979
0.0557045
0.0453019
0.0367903
0.0298366
0.0241645
0.0195446
0.0157873
0.0127358
0.0102612
0.00825707
0.00663624
0.00532714
0.0042712
0.00342057
0.00273619
0.00218627
0.00174492
0.00139114
0.00110788
0.000881361
0.000700418
0.000556046
0.000440981
0.000349375
0.000276523
0.000218648
0.000172719
0.000136307
0.00010747
8.46556e-05
6.66228e-05
5.23838e-05
4.11511e-05
3.22985e-05
2.53282e-05
1.9845e-05
1.55356e-05
1.21517e-05
9.49698e-06
7.41611e-06
5.78646e-06
4.51127e-06
3.51427e-06
2.73547e-06
2.12756e-06
1.65347e-06
1.284e-06
9.9627e-07
7.72415e-07
5.9831e-07
4.63019e-07
3.57903e-07
2.76301e-07
2.12907e-07
1.63625e-07
1.25233e-07
9.52682e-08
7.17315e-08
5.29909e-08
3.7903e-08
2.53575e-08
1.45439e-08
4.74065e-09
33.7036
29.4334
25.6446
22.2917
19.3324
16.7275
14.4405
12.4379
10.6889
9.16529
7.84149
6.69419
5.70238
4.84711
4.11139
3.48006
2.9396
2.47804
2.08476
1.75043
1.46686
1.22688
1.02423
0.853466
0.709882
0.589398
0.488503
0.404178
0.33384
0.275281
0.22662
0.186259
0.152842
0.125225
0.10244
0.0836744
0.0682453
0.0555802
0.0452009
0.0367083
0.0297702
0.0241107
0.0195011
0.0157522
0.0127075
0.0102384
0.00823876
0.00662153
0.00531535
0.00426176
0.00341302
0.00273016
0.00218146
0.00174108
0.00138808
0.00110546
0.000879435
0.000698891
0.000554836
0.000440024
0.000348619
0.000275926
0.000218177
0.000172348
0.000136016
0.000107241
8.44757e-05
6.64818e-05
5.22733e-05
4.10647e-05
3.22309e-05
2.52754e-05
1.98038e-05
1.55035e-05
1.21267e-05
9.47756e-06
7.40104e-06
5.77474e-06
4.50217e-06
3.50726e-06
2.73002e-06
2.12336e-06
1.65019e-06
1.28147e-06
9.94349e-07
7.70917e-07
5.97167e-07
4.6213e-07
3.57225e-07
2.75746e-07
2.12486e-07
1.63314e-07
1.25022e-07
9.50684e-08
7.15761e-08
5.28688e-08
3.7792e-08
2.5302e-08
1.45106e-08
4.74065e-09
33.6198
29.3603
25.5808
22.2363
19.2844
16.6859
14.4046
12.407
10.6623
9.14252
7.822
6.67756
5.68821
4.83506
4.10118
3.47141
2.9323
2.47188
2.07958
1.74608
1.46322
1.22383
1.02168
0.851346
0.708118
0.587933
0.487288
0.403173
0.33301
0.274597
0.226057
0.185796
0.152462
0.124913
0.102185
0.0834665
0.0680758
0.0554422
0.0450887
0.0366172
0.0296963
0.0240509
0.0194528
0.0157132
0.0126761
0.0102131
0.0082184
0.00660519
0.00530224
0.00425126
0.00340462
0.00272345
0.0021761
0.00173682
0.00138469
0.00110276
0.000877291
0.00069719
0.000553489
0.000438958
0.000347776
0.000275261
0.000217653
0.000171935
0.00013569
0.000106985
8.42747e-05
6.63241e-05
5.21497e-05
4.09679e-05
3.21553e-05
2.52163e-05
1.97577e-05
1.54675e-05
1.20987e-05
9.45576e-06
7.38406e-06
5.76157e-06
4.49196e-06
3.49933e-06
2.72389e-06
2.11862e-06
1.64652e-06
1.27864e-06
9.92151e-07
7.69218e-07
5.95846e-07
4.61109e-07
3.56459e-07
2.75169e-07
2.12041e-07
1.62947e-07
1.24745e-07
9.49019e-08
7.14206e-08
5.28022e-08
3.77254e-08
2.52132e-08
1.44773e-08
4.71845e-09
33.5278
29.2799
25.5108
22.1754
19.2316
16.6402
14.3652
12.373
10.6331
9.11749
7.80059
6.65928
5.67264
4.82182
4.08995
3.46191
2.92427
2.46511
2.07388
1.7413
1.45921
1.22048
1.01889
0.849015
0.706179
0.586323
0.485954
0.402069
0.332098
0.273845
0.225438
0.185287
0.152045
0.124571
0.101905
0.083238
0.0678895
0.0552905
0.0449654
0.0365171
0.0296152
0.0239852
0.0193997
0.0156703
0.0126415
0.0101853
0.00819602
0.00658722
0.00528782
0.00423971
0.00339538
0.00271607
0.00217021
0.00173212
0.00138095
0.00109978
0.00087493
0.000695317
0.000552004
0.000437783
0.000346846
0.000274527
0.000217073
0.000171478
0.000135331
0.000106703
8.40526e-05
6.61498e-05
5.20131e-05
4.08609e-05
3.20716e-05
2.51509e-05
1.97066e-05
1.54277e-05
1.20677e-05
9.43159e-06
7.36524e-06
5.74696e-06
4.48062e-06
3.49052e-06
2.71706e-06
2.11331e-06
1.64245e-06
1.27549e-06
9.89697e-07
7.6732e-07
5.94391e-07
4.59999e-07
3.55616e-07
2.74514e-07
2.11531e-07
1.62592e-07
1.24467e-07
9.46798e-08
7.12319e-08
5.26579e-08
3.76255e-08
2.5191e-08
1.44218e-08
4.70735e-09
33.4275
29.1923
25.4345
22.1091
19.174
16.5905
14.3222
12.336
10.6013
9.09021
7.77725
6.63935
5.65566
4.8074
4.07771
3.45155
2.91552
2.45774
2.06768
1.73609
1.45485
1.21683
1.01584
0.846474
0.704066
0.584568
0.484499
0.400865
0.331104
0.273025
0.224763
0.184732
0.15159
0.124199
0.101601
0.082989
0.0676864
0.0551252
0.044831
0.036408
0.0295267
0.0239136
0.0193418
0.0156235
0.0126038
0.0101549
0.00817161
0.00656761
0.0052721
0.00422712
0.0033853
0.00270802
0.00216378
0.001727
0.00137687
0.00109654
0.00087235
0.00069327
0.000550382
0.000436498
0.000345831
0.000273724
0.00021644
0.000170979
0.000134938
0.000106393
8.38095e-05
6.59589e-05
5.18634e-05
4.07436e-05
3.19798e-05
2.50791e-05
1.96505e-05
1.53839e-05
1.20335e-05
9.40499e-06
7.34458e-06
5.73086e-06
4.46813e-06
3.4808e-06
2.70953e-06
2.10749e-06
1.63795e-06
1.27195e-06
9.8701e-07
7.65243e-07
5.92804e-07
4.58777e-07
3.54672e-07
2.73803e-07
2.10976e-07
1.6217e-07
1.24134e-07
9.44245e-08
7.10765e-08
5.25024e-08
3.75477e-08
2.51243e-08
1.44107e-08
4.68514e-09
33.3189
29.0975
25.3519
22.0373
19.1118
16.5366
14.2757
12.2959
10.5669
9.06069
7.75199
6.61779
5.63729
4.79178
4.06447
3.44034
2.90605
2.44975
2.06096
1.73045
1.45012
1.21288
1.01254
0.843725
0.701779
0.582669
0.482925
0.399563
0.330028
0.272138
0.224032
0.184132
0.151097
0.123795
0.101271
0.0827196
0.0674667
0.0549463
0.0446855
0.0362899
0.029431
0.0238361
0.0192791
0.0155729
0.012563
0.010122
0.00814518
0.00654638
0.00525507
0.00421347
0.00337438
0.00269929
0.00215682
0.00172144
0.00137244
0.00109302
0.000869554
0.000691051
0.000548622
0.000435105
0.000344728
0.000272853
0.000215752
0.000170437
0.000134511
0.000106057
8.35454e-05
6.57515e-05
5.17007e-05
4.06161e-05
3.18799e-05
2.5001e-05
1.95894e-05
1.53362e-05
1.19963e-05
9.37603e-06
7.322e-06
5.71332e-06
4.45449e-06
3.47022e-06
2.70132e-06
2.10114e-06
1.63299e-06
1.26816e-06
9.84057e-07
7.62979e-07
5.91027e-07
4.57423e-07
3.53606e-07
2.72993e-07
2.10376e-07
1.6166e-07
1.23757e-07
9.4158e-08
7.08655e-08
5.23581e-08
3.74478e-08
2.50577e-08
1.43996e-08
4.66294e-09
33.2021
28.9955
25.263
21.96
19.0448
16.4786
14.2256
12.2528
10.5298
9.02893
7.72482
6.59459
5.61753
4.77499
4.05022
3.42828
2.89587
2.44117
2.05374
1.72439
1.44504
1.20863
1.00899
0.840767
0.699319
0.580627
0.481232
0.398162
0.328871
0.271184
0.223247
0.183487
0.150567
0.123361
0.100916
0.0824297
0.0672303
0.0547538
0.044529
0.0361628
0.029328
0.0237527
0.0192117
0.0155185
0.0125191
0.0100867
0.00811674
0.00652354
0.00523674
0.00419878
0.00336263
0.00268989
0.00214931
0.00171546
0.00136768
0.00108923
0.000866541
0.000688659
0.000546726
0.000433603
0.00034354
0.000271914
0.000215011
0.000169852
0.00013405
0.000105695
8.32602e-05
6.55275e-05
5.15248e-05
4.04783e-05
3.17719e-05
2.49165e-05
1.95234e-05
1.52847e-05
1.19561e-05
9.34464e-06
7.29758e-06
5.69432e-06
4.43972e-06
3.45877e-06
2.69241e-06
2.09422e-06
1.62764e-06
1.26404e-06
9.80871e-07
7.60492e-07
5.89129e-07
4.55969e-07
3.52451e-07
2.72105e-07
2.09688e-07
1.61138e-07
1.2339e-07
9.38472e-08
7.06435e-08
5.22249e-08
3.73035e-08
2.498e-08
1.4333e-08
4.69624e-09
33.0771
28.8864
25.1679
21.8773
18.9731
16.4166
14.1721
12.2067
10.4902
8.99494
7.69574
6.56977
5.59639
4.75701
4.03498
3.41538
2.88497
2.43198
2.04601
1.7179
1.4396
1.20408
1.00519
0.837602
0.696686
0.578441
0.47942
0.396663
0.327633
0.270163
0.222407
0.182796
0.150001
0.122897
0.100536
0.0821195
0.0669773
0.0545478
0.0443615
0.0360268
0.0292177
0.0236634
0.0191395
0.0154602
0.0124721
0.0100488
0.00808629
0.00649907
0.00521711
0.00418306
0.00335004
0.00267983
0.00214128
0.00170905
0.00136257
0.00108516
0.000863313
0.000686096
0.000544693
0.000431992
0.000342266
0.000270907
0.000214215
0.000169224
0.000133555
0.000105305
8.2954e-05
6.52869e-05
5.1336e-05
4.03302e-05
3.1656e-05
2.48257e-05
1.94525e-05
1.52292e-05
1.19128e-05
9.31089e-06
7.27129e-06
5.67384e-06
4.42378e-06
3.44638e-06
2.6828e-06
2.08675e-06
1.62188e-06
1.25957e-06
9.77418e-07
7.57805e-07
5.87064e-07
4.54325e-07
3.5123e-07
2.71128e-07
2.08944e-07
1.60572e-07
1.22935e-07
9.3503e-08
7.03992e-08
5.20251e-08
3.72036e-08
2.48801e-08
1.42886e-08
4.67404e-09
32.944
28.7701
25.0666
21.7893
18.8967
16.3505
14.1151
12.1576
10.448
8.95874
7.66477
6.54333
5.57386
4.73787
4.01873
3.40163
2.87336
2.42219
2.03777
1.71098
1.43381
1.19923
1.00114
0.834231
0.693881
0.576112
0.47749
0.395066
0.326314
0.269075
0.221511
0.18206
0.149397
0.122402
0.100131
0.0817891
0.0667079
0.0543284
0.0441831
0.0358819
0.0291002
0.0235683
0.0190626
0.0153981
0.012422
0.0100085
0.00805383
0.006473
0.00519619
0.00416629
0.00333662
0.0026691
0.00213271
0.00170222
0.00135713
0.00108083
0.000859869
0.000683362
0.000542525
0.000430274
0.000340906
0.000269831
0.000213366
0.000168554
0.000133027
0.00010489
8.26269e-05
6.50299e-05
5.11342e-05
4.01719e-05
3.15319e-05
2.47286e-05
1.93765e-05
1.51699e-05
1.18665e-05
9.27476e-06
7.24312e-06
5.65191e-06
4.40671e-06
3.43315e-06
2.67253e-06
2.07879e-06
1.61569e-06
1.25477e-06
9.73688e-07
7.54963e-07
5.84854e-07
4.52616e-07
3.49931e-07
2.70128e-07
2.08134e-07
1.60005e-07
1.2248e-07
9.3181e-08
7.01439e-08
5.18585e-08
3.70592e-08
2.47913e-08
1.42331e-08
4.61853e-09
32.8027
28.6467
24.9591
21.6959
18.8157
16.2804
14.0545
12.1054
10.4032
8.92032
7.6319
6.51527
5.54996
4.71755
4.0015
3.38705
2.86104
2.4118
2.02904
1.70365
1.42766
1.19409
0.996851
0.830653
0.690906
0.573641
0.475442
0.393372
0.324914
0.267921
0.220561
0.181279
0.148756
0.121877
0.099702
0.0814384
0.0664219
0.0540956
0.0439938
0.0357282
0.0289756
0.0234674
0.018981
0.0153322
0.0123689
0.00996565
0.00801939
0.00644533
0.00517398
0.00414849
0.00332238
0.00265771
0.00212362
0.00169496
0.00135135
0.00107623
0.000856212
0.000680457
0.000540221
0.000428448
0.00033946
0.000268689
0.000212463
0.000167842
0.000132466
0.000104447
8.22789e-05
6.47564e-05
5.09195e-05
4.00034e-05
3.13999e-05
2.46252e-05
1.92956e-05
1.51066e-05
1.18171e-05
9.23625e-06
7.21311e-06
5.62855e-06
4.38856e-06
3.41898e-06
2.66154e-06
2.07027e-06
1.60908e-06
1.24964e-06
9.69713e-07
7.5191e-07
5.8249e-07
4.50784e-07
3.48499e-07
2.69063e-07
2.07334e-07
1.59361e-07
1.21991e-07
9.28035e-08
6.98663e-08
5.16587e-08
3.69149e-08
2.47025e-08
1.41775e-08
4.59632e-09
32.6534
28.5163
24.8455
21.5971
18.73
16.2063
13.9905
12.0503
10.3558
8.8797
7.59715
6.4856
5.52469
4.69607
3.98328
3.37162
2.84801
2.40082
2.0198
1.69589
1.42116
1.18865
0.992311
0.82687
0.687759
0.571029
0.473277
0.391581
0.323435
0.266701
0.219557
0.180454
0.148079
0.121323
0.0992481
0.0810677
0.0661196
0.0538494
0.0437936
0.0355656
0.0288437
0.0233606
0.0188946
0.0152624
0.0123126
0.00992037
0.00798296
0.00641606
0.0051505
0.00412967
0.0033073
0.00264566
0.00211399
0.00168729
0.00134523
0.00107136
0.000852341
0.000677383
0.000537782
0.000426516
0.00033793
0.000267478
0.000211507
0.000167087
0.000131871
0.000103979
8.19102e-05
6.44665e-05
5.06918e-05
3.98248e-05
3.12599e-05
2.45156e-05
1.92098e-05
1.50396e-05
1.17648e-05
9.19537e-06
7.18126e-06
5.60372e-06
4.36923e-06
3.40394e-06
2.64985e-06
2.06116e-06
1.60203e-06
1.24417e-06
9.65505e-07
7.48623e-07
5.79936e-07
4.48852e-07
3.46967e-07
2.67897e-07
2.06468e-07
1.58684e-07
1.2147e-07
9.2415e-08
6.95888e-08
5.14366e-08
3.67595e-08
2.46025e-08
1.4122e-08
4.61853e-09
32.496
28.3788
24.7257
21.493
18.6397
16.1281
13.9231
11.9922
10.3059
8.83689
7.56052
6.45434
5.49806
4.67343
3.96408
3.35537
2.83428
2.38925
2.01006
1.68771
1.4143
1.18292
0.987527
0.822884
0.684443
0.568276
0.470995
0.389693
0.321876
0.265415
0.218499
0.179584
0.147365
0.120738
0.0987698
0.080677
0.065801
0.0535899
0.0435826
0.0353943
0.0287048
0.0232481
0.0188037
0.015189
0.0122534
0.00987263
0.00794455
0.0063852
0.00512573
0.00410982
0.00329141
0.00263296
0.00210384
0.00167919
0.00133878
0.00106623
0.000848257
0.00067414
0.000535208
0.000424476
0.000336316
0.000266201
0.000210498
0.000166291
0.000131243
0.000103484
8.15209e-05
6.41604e-05
5.04514e-05
3.96361e-05
3.11119e-05
2.43997e-05
1.91191e-05
1.49686e-05
1.17093e-05
9.15213e-06
7.1475e-06
5.57745e-06
4.34873e-06
3.38807e-06
2.63749e-06
2.05157e-06
1.59458e-06
1.23841e-06
9.6102e-07
7.45159e-07
5.77272e-07
4.46798e-07
3.45413e-07
2.66664e-07
2.05491e-07
1.57951e-07
1.20937e-07
9.20153e-08
6.92668e-08
5.11924e-08
3.66152e-08
2.45026e-08
1.40665e-08
4.58522e-09
32.3305
28.2343
24.5998
21.3835
18.5448
16.046
13.8522
11.9312
10.2534
8.79191
7.52203
6.42148
5.47007
4.64964
3.9439
3.33829
2.81985
2.37708
1.99983
1.67912
1.4071
1.1769
0.982499
0.818694
0.680959
0.565383
0.468598
0.387709
0.320237
0.264064
0.217386
0.17867
0.146615
0.120123
0.098267
0.0802664
0.0654661
0.0533172
0.0433608
0.0352142
0.0285588
0.0231299
0.018708
0.0151117
0.0121911
0.00982245
0.00790418
0.00635276
0.0050997
0.00408895
0.00327471
0.0026196
0.00209317
0.00167068
0.001332
0.00106083
0.000843962
0.000670728
0.000532502
0.000422331
0.000334617
0.000264858
0.000209437
0.000165453
0.000130582
0.000102963
8.11109e-05
6.38381e-05
5.01981e-05
3.94374e-05
3.0956e-05
2.42776e-05
1.90235e-05
1.48939e-05
1.1651e-05
9.10655e-06
7.11194e-06
5.54973e-06
4.32721e-06
3.37126e-06
2.62446e-06
2.04148e-06
1.58673e-06
1.23233e-06
9.56302e-07
7.41485e-07
5.74452e-07
4.44589e-07
3.43736e-07
2.65377e-07
2.04514e-07
1.57196e-07
1.20359e-07
9.15601e-08
6.89226e-08
5.0937e-08
3.64375e-08
2.43805e-08
1.39777e-08
4.55191e-09
32.1571
28.0829
24.4679
21.2688
18.4454
15.96
13.7779
11.8672
10.1984
8.74475
7.48169
6.38703
5.44073
4.6247
3.92274
3.32038
2.80472
2.36433
1.9891
1.67011
1.39956
1.17058
0.977229
0.814303
0.677306
0.56235
0.466084
0.385629
0.318519
0.262648
0.21622
0.177711
0.145829
0.119479
0.0977401
0.079836
0.0651151
0.0530313
0.0431283
0.0350254
0.0284057
0.0230059
0.0186078
0.0150308
0.0121258
0.00976984
0.00786186
0.00631875
0.0050724
0.00406707
0.00325719
0.00260559
0.00208198
0.00166175
0.00132488
0.00105516
0.000839457
0.00066715
0.000529662
0.00042008
0.000332834
0.000263447
0.000208322
0.000164573
0.000129888
0.000102416
8.06806e-05
6.34996e-05
4.99322e-05
3.92286e-05
3.07924e-05
2.41493e-05
1.89232e-05
1.48154e-05
1.15896e-05
9.05863e-06
7.07459e-06
5.52058e-06
4.3045e-06
3.35362e-06
2.61074e-06
2.03081e-06
1.57848e-06
1.22591e-06
9.51328e-07
7.37665e-07
5.71465e-07
4.4228e-07
3.41949e-07
2.64033e-07
2.03471e-07
1.56397e-07
1.19726e-07
9.10938e-08
6.85563e-08
5.06817e-08
3.62044e-08
2.42473e-08
1.39222e-08
4.55191e-09
31.9758
27.9245
24.3299
21.1489
18.3413
15.87
13.7002
11.8003
10.1409
8.69543
7.4395
6.35102
5.41005
4.59862
3.90062
3.30166
2.78891
2.351
1.97788
1.6607
1.39166
1.16398
0.971718
0.809711
0.673486
0.559179
0.463455
0.383454
0.316723
0.261167
0.215001
0.176709
0.145006
0.118805
0.097189
0.0793859
0.064748
0.0527324
0.0428852
0.034828
0.0282456
0.0228763
0.0185029
0.0149461
0.0120575
0.00971481
0.00781759
0.00628317
0.00504385
0.00404418
0.00323886
0.00259093
0.00207027
0.00165241
0.00131743
0.00104923
0.000834744
0.000663405
0.00052669
0.000417724
0.000330969
0.000261972
0.000207156
0.000163652
0.000129161
0.000101844
8.02299e-05
6.31452e-05
4.96537e-05
3.901e-05
3.06209e-05
2.40149e-05
1.88179e-05
1.47331e-05
1.15253e-05
9.00841e-06
7.03539e-06
5.49004e-06
4.28069e-06
3.3351e-06
2.59631e-06
2.01962e-06
1.56977e-06
1.21916e-06
9.46132e-07
7.33602e-07
5.68334e-07
4.39893e-07
3.40072e-07
2.62568e-07
2.02327e-07
1.55542e-07
1.19049e-07
9.05831e-08
6.81899e-08
5.04041e-08
3.60378e-08
2.41251e-08
1.38445e-08
4.4853e-09
31.7865
27.7593
24.1859
21.0237
18.2328
15.776
13.6191
11.7304
10.0809
8.64397
7.39547
6.31343
5.37803
4.57141
3.87754
3.28212
2.7724
2.33709
1.96618
1.65087
1.38343
1.15709
0.965967
0.804919
0.669501
0.555869
0.460713
0.381185
0.314848
0.259621
0.213729
0.175664
0.144148
0.118102
0.0966139
0.0789162
0.0643649
0.0524204
0.0426315
0.034622
0.0280786
0.022741
0.0183935
0.0148577
0.0119862
0.00965739
0.00777138
0.00624604
0.00501405
0.00402029
0.00321974
0.00257563
0.00205805
0.00164265
0.00130966
0.00104305
0.000829822
0.000659495
0.000523587
0.000415264
0.00032902
0.00026043
0.000205937
0.00016269
0.000128402
0.000101246
7.97591e-05
6.27749e-05
4.93627e-05
3.87815e-05
3.04416e-05
2.38745e-05
1.87079e-05
1.4647e-05
1.1458e-05
8.95589e-06
6.99439e-06
5.45809e-06
4.2558e-06
3.31575e-06
2.58126e-06
2.00792e-06
1.56067e-06
1.21212e-06
9.40648e-07
7.29361e-07
5.6507e-07
4.3735e-07
3.38152e-07
2.61025e-07
2.01184e-07
1.54643e-07
1.18394e-07
9.00724e-08
6.77791e-08
5.01044e-08
3.58491e-08
2.39808e-08
1.37557e-08
4.4964e-09
31.5895
27.5872
24.036
20.8934
18.1198
15.6782
13.5347
11.6577
10.0184
8.59038
7.34962
6.27429
5.34468
4.54306
3.8535
3.26177
2.75521
2.3226
1.95399
1.64063
1.37485
1.14992
0.959978
0.799928
0.66535
0.552423
0.457856
0.378822
0.312896
0.258011
0.212403
0.174575
0.143255
0.11737
0.096015
0.078427
0.0639659
0.0520955
0.0423673
0.0344074
0.0279046
0.0226001
0.0182796
0.0147657
0.0119119
0.00959757
0.00772325
0.00620737
0.00498301
0.00399541
0.00319981
0.0025597
0.00204532
0.00163249
0.00130156
0.0010366
0.000824694
0.000655421
0.000520354
0.0004127
0.00032699
0.000258824
0.000204668
0.000161687
0.000127611
0.000100623
7.92682e-05
6.23887e-05
4.90592e-05
3.85432e-05
3.02547e-05
2.3728e-05
1.85932e-05
1.45573e-05
1.13878e-05
8.90107e-06
6.95164e-06
5.42476e-06
4.22985e-06
3.29549e-06
2.56553e-06
1.99569e-06
1.5512e-06
1.20477e-06
9.3493e-07
7.24942e-07
5.61662e-07
4.34697e-07
3.36065e-07
2.59481e-07
1.99984e-07
1.53688e-07
1.17706e-07
8.95395e-08
6.74127e-08
4.98268e-08
3.5616e-08
2.38143e-08
1.3689e-08
4.4631e-09
31.3846
27.4082
23.8801
20.7579
18.0022
15.5765
13.4469
11.5821
9.95342
8.53467
7.30195
6.23359
5.31002
4.5136
3.82851
3.24061
2.73734
2.30753
1.94131
1.62999
1.36593
1.14246
0.953752
0.79474
0.661034
0.54884
0.454887
0.376365
0.310867
0.256338
0.211026
0.173442
0.142326
0.116609
0.0953924
0.0779184
0.0635512
0.0517577
0.0420926
0.0341844
0.0277237
0.0224536
0.0181611
0.01467
0.0118347
0.00953538
0.00767322
0.00616716
0.00495073
0.00396953
0.00317909
0.00254313
0.00203208
0.00162193
0.00129314
0.00102989
0.000819361
0.000651184
0.000516991
0.000410034
0.000324878
0.000257153
0.000203347
0.000160644
0.000126788
9.9974e-05
7.87575e-05
6.19869e-05
4.87434e-05
3.82952e-05
3.00602e-05
2.35755e-05
1.84738e-05
1.44639e-05
1.13148e-05
8.84403e-06
6.9071e-06
5.39001e-06
4.20276e-06
3.27443e-06
2.54914e-06
1.98294e-06
1.54132e-06
1.19709e-06
9.2899e-07
7.20379e-07
5.58065e-07
4.31943e-07
3.33944e-07
2.57849e-07
1.98697e-07
1.52722e-07
1.16951e-07
8.89622e-08
6.69798e-08
4.95048e-08
3.53717e-08
2.36922e-08
1.36002e-08
4.42979e-09
31.172
27.2226
23.7183
20.6173
17.8803
15.471
13.3558
11.5036
9.88599
8.47685
7.25248
6.19136
5.27405
4.48302
3.80257
3.21866
2.7188
2.2919
1.92816
1.61895
1.35668
1.13472
0.947291
0.789356
0.656556
0.545122
0.451805
0.373815
0.308761
0.254602
0.209596
0.172267
0.141362
0.115819
0.0947462
0.0773907
0.0631207
0.0514072
0.0418076
0.0339529
0.0275359
0.0223015
0.0180381
0.0145707
0.0117546
0.00947084
0.00762128
0.00612542
0.00491723
0.00394268
0.00315759
0.00252592
0.00201834
0.00161096
0.0012844
0.00102293
0.000813825
0.000646785
0.000513499
0.000407265
0.000322685
0.000255417
0.000201975
0.000159561
0.000125934
9.93003e-05
7.8227e-05
6.15695e-05
4.84154e-05
3.80377e-05
2.98581e-05
2.34171e-05
1.83497e-05
1.43668e-05
1.12389e-05
8.78473e-06
6.86086e-06
5.35394e-06
4.17465e-06
3.25255e-06
2.53211e-06
1.9697e-06
1.531e-06
1.18909e-06
9.22795e-07
7.15561e-07
5.54345e-07
4.29101e-07
3.31757e-07
2.56117e-07
1.97398e-07
1.51734e-07
1.16174e-07
8.83738e-08
6.65246e-08
4.91718e-08
3.51497e-08
2.35478e-08
1.34781e-08
4.39648e-09
30.9517
27.0302
23.5507
20.4715
17.7539
15.3617
13.2614
11.4223
9.81612
8.41694
7.20122
6.14761
5.23677
4.45134
3.77569
3.19591
2.69958
2.2757
1.91453
1.60751
1.34709
1.1267
0.940596
0.783777
0.651916
0.541269
0.448612
0.371173
0.306579
0.252802
0.208115
0.17105
0.140363
0.115001
0.0940767
0.0768438
0.0626747
0.0510439
0.0415122
0.033713
0.0273414
0.022144
0.0179107
0.0144677
0.0116716
0.00940395
0.00756746
0.00608217
0.00488252
0.00391484
0.0031353
0.0025081
0.0020041
0.0015996
0.00127534
0.00101572
0.000808086
0.000642225
0.00050988
0.000404395
0.000320412
0.000253618
0.000200553
0.000158438
0.000125048
9.86018e-05
7.7677e-05
6.11368e-05
4.80752e-05
3.77705e-05
2.96484e-05
2.32528e-05
1.8221e-05
1.4266e-05
1.11602e-05
8.72319e-06
6.81282e-06
5.31648e-06
4.14545e-06
3.22981e-06
2.51441e-06
1.95594e-06
1.52034e-06
1.1808e-06
9.16389e-07
7.10576e-07
5.50548e-07
4.26104e-07
3.29448e-07
2.54363e-07
1.96054e-07
1.50713e-07
1.15385e-07
8.77853e-08
6.60805e-08
4.88498e-08
3.49387e-08
2.3348e-08
1.34004e-08
4.36318e-09
30.7237
26.8311
23.3772
20.3208
17.6232
15.2486
13.1638
11.3382
9.74383
8.35495
7.14819
6.10233
5.19821
4.41855
3.74789
3.17238
2.6797
2.25894
1.90044
1.59567
1.33717
1.1184
0.933669
0.778005
0.647115
0.537283
0.445308
0.36844
0.304321
0.250941