/*--------------------------------*- C++ -*----------------------------------*\
| =========                 |                                                 |
| \\      /  F ield         | OpenFOAM: The Open Source CFD Toolbox           |
|  \\    /   O peration     | Version:  2406                                  |
|   \\  /    A nd           | Website:  www.openfoam.com                      |
|    \\/     M anipulation  |                                                 |
\*---------------------------------------------------------------------------*/
FoamFile
{
    version     2.0;
    format      ascii;
    arch        "LSB;label=32;scalar=64";
    class       volScalarField;
    location    "25";
    object      gradTy;
}
// * * * * * * * * * * * * * * * * * * * * * * * * * * * * * * * * * * * * * //

dimensions      [0 -1 0 1 0 0 0];

internalField   nonuniform List<scalar> 
20000
(
98.602
88.454
79.2012
70.7831
63.1402
56.2163
49.9571
44.3103
39.2273
34.6617
30.5692
26.9086
23.6412
20.7311
18.1448
15.8511
13.821
12.0282
10.4481
9.05839
7.83877
6.77061
5.83706
5.02284
4.31417
3.69861
3.16504
2.70347
2.305
1.96168
1.66647
1.41314
1.19618
1.01073
0.852514
0.717803
0.603323
0.506222
0.424016
0.354552
0.295965
0.246642
0.205194
0.170429
0.14132
0.116991
0.096694
0.0797896
0.0657355
0.0540712
0.0444069
0.0364133
0.0298125
0.0243711
0.0198926
0.0162128
0.013194
0.0107215
0.00869966
0.00704886
0.00570313
0.00460777
0.00371755
0.00299514
0.00240979
0.00193619
0.00155355
0.00124487
0.000996192
0.000796143
0.000635438
0.000506518
0.000403237
0.00032061
0.000254594
0.00020192
0.000159947
0.000126544
9.99966e-05
7.89234e-05
6.22171e-05
4.89891e-05
3.8528e-05
3.0265e-05
2.37458e-05
1.86081e-05
1.45636e-05
1.13826e-05
8.88295e-06
6.91975e-06
5.37819e-06
4.16711e-06
3.21427e-06
2.46219e-06
1.86503e-06
1.38601e-06
9.95337e-07
6.68432e-07
3.84537e-07
1.25477e-07
98.5776
88.4322
79.1817
70.7656
63.1248
56.2024
49.9446
44.2994
39.2178
34.6532
30.5616
26.9019
23.6354
20.726
18.1404
15.8472
13.8176
12.0252
10.4455
9.05615
7.83683
6.76894
5.83562
5.0216
4.3131
3.6977
3.16426
2.70281
2.30443
1.96119
1.66606
1.4128
1.19589
1.01048
0.852304
0.717626
0.603175
0.506097
0.423912
0.354465
0.295892
0.246581
0.205144
0.170387
0.141285
0.116963
0.0966704
0.0797701
0.0657194
0.054058
0.0443961
0.0364044
0.0298053
0.0243651
0.0198878
0.0162089
0.0131908
0.0107189
0.00869756
0.00704716
0.00570176
0.00460666
0.00371666
0.00299443
0.00240922
0.00193573
0.00155319
0.00124458
0.000995959
0.000795958
0.000635291
0.000506401
0.000403145
0.000320536
0.000254536
0.000201874
0.000159911
0.000126516
9.99743e-05
7.8906e-05
6.22034e-05
4.89784e-05
3.85196e-05
3.02585e-05
2.37407e-05
1.86042e-05
1.45605e-05
1.13803e-05
8.88112e-06
6.91834e-06
5.3771e-06
4.16631e-06
3.21366e-06
2.46173e-06
1.8647e-06
1.38577e-06
9.95171e-07
6.68321e-07
3.8447e-07
1.25444e-07
98.5289
88.3884
79.1427
70.7307
63.0936
56.1747
49.9199
44.2776
39.1984
34.636
30.5465
26.8886
23.6237
20.7158
18.1314
15.8394
13.8108
12.0192
10.4403
9.05167
7.83295
6.76559
5.83274
5.01912
4.31097
3.69588
3.1627
2.70147
2.30329
1.96022
1.66524
1.4121
1.1953
1.00998
0.851884
0.717273
0.602878
0.505848
0.423703
0.35429
0.295746
0.24646
0.205043
0.170303
0.141216
0.116905
0.0966229
0.079731
0.0656872
0.0540315
0.0443743
0.0363866
0.0297907
0.0243532
0.0198781
0.016201
0.0131844
0.0107137
0.00869334
0.00704375
0.005699
0.00460444
0.00371487
0.00299299
0.00240806
0.0019348
0.00155245
0.00124398
0.000995485
0.00079558
0.00063499
0.000506162
0.000402955
0.000320386
0.000254417
0.00020178
0.000159837
0.000126458
9.99284e-05
7.88699e-05
6.21751e-05
4.89562e-05
3.85023e-05
3.02449e-05
2.37301e-05
1.85959e-05
1.45541e-05
1.13753e-05
8.87728e-06
6.91539e-06
5.37481e-06
4.16455e-06
3.21233e-06
2.46073e-06
1.86393e-06
1.38524e-06
9.94793e-07
6.68066e-07
3.84348e-07
1.25389e-07
98.456
88.3229
79.0841
70.6783
63.0468
56.1331
49.883
44.2448
39.1694
34.6104
30.5239
26.8687
23.6062
20.7005
18.118
15.8276
13.8006
12.0103
10.4326
9.04496
7.82714
6.76058
5.82841
5.0154
4.30778
3.69314
3.16036
2.69947
2.30158
1.95877
1.66401
1.41105
1.19441
1.00923
0.851254
0.716742
0.602432
0.505474
0.42339
0.354029
0.295528
0.246278
0.204892
0.170177
0.141112
0.116819
0.0965517
0.0796723
0.0656389
0.0539918
0.0443417
0.0363599
0.0297689
0.0243354
0.0198635
0.0161891
0.0131748
0.0107059
0.00868701
0.00703863
0.00569486
0.0046011
0.00371218
0.00299083
0.00240632
0.00193341
0.00155133
0.00124309
0.000994773
0.000795012
0.000634538
0.000505803
0.00040267
0.00032016
0.000254238
0.000201639
0.000159725
0.00012637
9.9859e-05
7.88154e-05
6.21323e-05
4.89227e-05
3.8476e-05
3.02243e-05
2.3714e-05
1.85834e-05
1.45443e-05
1.13677e-05
8.87143e-06
6.91083e-06
5.37133e-06
4.16184e-06
3.21024e-06
2.45913e-06
1.86274e-06
1.38433e-06
9.94171e-07
6.67677e-07
3.84115e-07
1.25333e-07
98.3589
88.2357
79.0059
70.6085
62.9846
56.0777
49.8338
44.2011
39.1307
34.5762
30.4937
26.8421
23.5829
20.6801
18.1001
15.812
13.7869
11.9985
10.4223
9.03601
7.8194
6.75389
5.82265
5.01045
4.30352
3.68949
3.15724
2.69681
2.29931
1.95684
1.66236
1.40966
1.19323
1.00824
0.850414
0.716035
0.601838
0.504975
0.422972
0.35368
0.295237
0.246035
0.20469
0.17001
0.140973
0.116704
0.0964568
0.079594
0.0655744
0.0539388
0.0442983
0.0363242
0.0297397
0.0243116
0.0198441
0.0161733
0.0131619
0.0106955
0.00867855
0.00703178
0.00568933
0.00459664
0.00370858
0.00298793
0.002404
0.00193154
0.00154984
0.0012419
0.000993819
0.000794252
0.000633932
0.000505321
0.000402287
0.000319857
0.000253998
0.000201449
0.000159575
0.000126251
9.97658e-05
7.8742e-05
6.20747e-05
4.88775e-05
3.84406e-05
3.01966e-05
2.36924e-05
1.85665e-05
1.45312e-05
1.13575e-05
8.86345e-06
6.90467e-06
5.36654e-06
4.15817e-06
3.20742e-06
2.457e-06
1.86114e-06
1.38317e-06
9.93328e-07
6.67122e-07
3.83804e-07
1.25244e-07
98.2373
88.1267
78.9083
70.5212
62.9068
56.0084
49.7722
44.1465
39.0823
34.5334
30.456
26.809
23.5538
20.6545
18.0778
15.7925
13.7699
11.9836
10.4094
9.02484
7.80974
6.74554
5.81545
5.00425
4.2982
3.68493
3.15334
2.69347
2.29647
1.95442
1.66031
1.40792
1.19176
1.00699
0.849364
0.715152
0.601095
0.504352
0.422451
0.353244
0.294873
0.245732
0.204438
0.169801
0.140799
0.116561
0.0963382
0.0794961
0.0654938
0.0538725
0.0442439
0.0362797
0.0297032
0.0242818
0.0198198
0.0161535
0.0131458
0.0106824
0.00866796
0.00702321
0.0056824
0.00459105
0.00370408
0.00298431
0.00240109
0.00192921
0.00154797
0.0012404
0.000992623
0.000793297
0.000633172
0.000504716
0.000401807
0.000319475
0.000253696
0.00020121
0.000159386
0.000126102
9.96483e-05
7.86496e-05
6.2002e-05
4.88204e-05
3.83959e-05
3.01616e-05
2.3665e-05
1.85451e-05
1.45145e-05
1.13445e-05
8.85336e-06
6.89685e-06
5.36046e-06
4.15349e-06
3.20386e-06
2.45426e-06
1.85908e-06
1.38165e-06
9.9224e-07
6.66389e-07
3.83382e-07
1.25111e-07
98.0915
87.996
78.7913
70.4166
62.8134
55.9253
49.6983
44.081
39.0243
34.4822
30.4108
26.7692
23.5188
20.6239
18.051
15.769
13.7495
11.9659
10.3939
9.01145
7.79814
6.73553
5.80682
4.99683
4.29182
3.67946
3.14866
2.68948
2.29306
1.95152
1.65785
1.40583
1.18999
1.0055
0.848105
0.714092
0.600204
0.503605
0.421825
0.352721
0.294436
0.245368
0.204135
0.169549
0.140591
0.116388
0.0961958
0.0793787
0.0653971
0.053793
0.0441786
0.0362262
0.0296595
0.024246
0.0197907
0.0161298
0.0131265
0.0106667
0.00865524
0.00701291
0.00567408
0.00458433
0.00369867
0.00297995
0.00239759
0.0019264
0.00154571
0.0012386
0.000991183
0.000792148
0.000632257
0.000503987
0.000401228
0.000319016
0.000253332
0.000200922
0.000159158
0.000125922
9.95065e-05
7.85379e-05
6.19142e-05
4.87515e-05
3.83418e-05
3.01193e-05
2.36319e-05
1.85193e-05
1.44943e-05
1.13288e-05
8.84114e-06
6.88735e-06
5.35314e-06
4.14784e-06
3.19951e-06
2.45094e-06
1.85656e-06
1.37977e-06
9.90896e-07
6.6549e-07
3.82883e-07
1.24911e-07
97.9215
87.8435
78.6547
70.2946
62.7046
55.8284
49.6122
44.0046
38.9567
34.4225
30.3582
26.7228
23.4781
20.5882
18.0197
15.7417
13.7256
11.9451
10.3759
8.99583
7.78463
6.72386
5.79676
4.98817
4.28439
3.67309
3.1432
2.68482
2.28909
1.94814
1.65498
1.4034
1.18793
1.00376
0.846637
0.712855
0.599165
0.502734
0.421095
0.35211
0.293927
0.244944
0.203782
0.169256
0.140348
0.116187
0.0960297
0.0792416
0.0652842
0.0537002
0.0441024
0.0361637
0.0296084
0.0242043
0.0197566
0.016102
0.013104
0.0106484
0.00864039
0.00700089
0.00566436
0.00457648
0.00369234
0.00297486
0.0023935
0.00192311
0.00154308
0.00123649
0.0009895
0.000790805
0.000631186
0.000503135
0.00040055
0.000318478
0.000252905
0.000200584
0.000158892
0.000125712
9.93403e-05
7.8407e-05
6.18113e-05
4.86706e-05
3.82784e-05
3.00695e-05
2.3593e-05
1.84888e-05
1.44706e-05
1.13103e-05
8.82673e-06
6.87617e-06
5.34447e-06
4.14113e-06
3.19434e-06
2.44702e-06
1.85357e-06
1.37755e-06
9.89309e-07
6.64413e-07
3.82216e-07
1.24711e-07
97.7274
87.6694
78.4988
70.1552
62.5803
55.7177
49.5138
43.9173
38.8795
34.3542
30.298
26.6699
23.4316
20.5474
17.984
15.7105
13.6984
11.9214
10.3553
8.97799
7.76919
6.71052
5.78526
4.97828
4.27589
3.66581
3.13697
2.6795
2.28455
1.94428
1.6517
1.40062
1.18558
1.00177
0.844959
0.711443
0.597979
0.501738
0.420261
0.351413
0.293345
0.244459
0.203379
0.168921
0.140071
0.115958
0.0958399
0.0790851
0.0651553
0.0535942
0.0440154
0.0360924
0.02955
0.0241566
0.0197177
0.0160703
0.0130782
0.0106275
0.00862341
0.00698714
0.00565324
0.00456751
0.00368511
0.00296904
0.00238881
0.00191936
0.00154007
0.00123408
0.000987572
0.000789266
0.000629959
0.000502159
0.000399774
0.000317862
0.000252417
0.000200197
0.000158586
0.00012547
9.91497e-05
7.82568e-05
6.16931e-05
4.85777e-05
3.82054e-05
3.00124e-05
2.35483e-05
1.84539e-05
1.44433e-05
1.1289e-05
8.81016e-06
6.86328e-06
5.33448e-06
4.13343e-06
3.18838e-06
2.44247e-06
1.85019e-06
1.37502e-06
9.87499e-07
6.63192e-07
3.8155e-07
1.24489e-07
97.5092
87.4736
78.3235
69.9986
62.4405
55.5933
49.4033
43.8193
38.7927
34.2775
30.2303
26.6103
23.3792
20.5015
17.9438
15.6754
13.6678
11.8948
10.3322
8.95794
7.75184
6.69554
5.77234
4.96716
4.26634
3.65762
3.12997
2.67351
2.27945
1.93994
1.64801
1.39749
1.18293
0.999533
0.843074
0.709856
0.596644
0.500619
0.419324
0.35063
0.292691
0.243914
0.202926
0.168545
0.139759
0.115699
0.0956264
0.078909
0.0650103
0.0534749
0.0439175
0.0360121
0.0294843
0.0241029
0.0196739
0.0160347
0.0130492
0.0106039
0.0086043
0.00697167
0.00564073
0.0045574
0.00367696
0.00296248
0.00238354
0.00191512
0.00153668
0.00123136
0.000985401
0.000787533
0.000628577
0.000501058
0.000398899
0.000317167
0.000251865
0.000199761
0.00015824
0.000125197
9.89345e-05
7.80873e-05
6.15596e-05
4.84728e-05
3.81231e-05
2.99478e-05
2.34976e-05
1.84143e-05
1.44124e-05
1.12649e-05
8.79141e-06
6.84871e-06
5.32316e-06
4.12468e-06
3.18167e-06
2.43734e-06
1.84627e-06
1.37214e-06
9.85434e-07
6.61815e-07
3.80762e-07
1.24256e-07
97.2669
87.2562
78.1289
69.8246
62.2853
55.4551
49.2805
43.7104
38.6963
34.1923
30.1552
26.5442
23.3211
20.4505
17.8992
15.6365
13.6339
11.8652
10.3065
8.93567
7.73257
6.6789
5.758
4.95481
4.25574
3.64853
3.12219
2.66687
2.27379
1.93512
1.64392
1.39402
1.17999
0.99705
0.84098
0.708093
0.595163
0.499376
0.418283
0.349759
0.291964
0.243309
0.202422
0.168127
0.139412
0.115412
0.0953894
0.0787134
0.0648492
0.0533425
0.0438087
0.035923
0.0294114
0.0240433
0.0196253
0.015995
0.0130169
0.0105777
0.00858306
0.00695447
0.00562682
0.00454618
0.00366791
0.00295519
0.00237768
0.00191042
0.0015329
0.00122834
0.000982986
0.000785605
0.00062704
0.000499834
0.000397925
0.000316394
0.000251252
0.000199275
0.000157856
0.000124893
9.86948e-05
7.78983e-05
6.14109e-05
4.83559e-05
3.80313e-05
2.98758e-05
2.34413e-05
1.83702e-05
1.43779e-05
1.1238e-05
8.77046e-06
6.83243e-06
5.31055e-06
4.1149e-06
3.17419e-06
2.43159e-06
1.84194e-06
1.36893e-06
9.83102e-07
6.60272e-07
3.79863e-07
1.23956e-07
97.0006
87.0173
77.915
69.6335
62.1148
55.3033
49.1456
43.5907
38.5904
34.0987
30.0727
26.4715
23.2573
20.3945
17.8502
15.5936
13.5965
11.8327
10.2783
8.91121
7.7114
6.66061
5.74223
4.94125
4.24409
3.63854
3.11364
2.65957
2.26757
1.92983
1.63942
1.3902
1.17676
0.994322
0.838679
0.706156
0.593535
0.49801
0.417139
0.348803
0.291166
0.242644
0.201869
0.167667
0.139031
0.115097
0.0951288
0.0784984
0.0646721
0.0531969
0.0436892
0.035825
0.0293311
0.0239777
0.0195718
0.0159514
0.0129815
0.0105489
0.00855971
0.00693555
0.00561153
0.00453382
0.00365795
0.00294717
0.00237123
0.00190524
0.00152875
0.00122502
0.000980328
0.000783482
0.000625347
0.000498486
0.000396853
0.000315542
0.000250576
0.000198739
0.000157432
0.000124559
9.84305e-05
7.769e-05
6.12469e-05
4.82269e-05
3.793e-05
2.97964e-05
2.3379e-05
1.83215e-05
1.43399e-05
1.12083e-05
8.74734e-06
6.81442e-06
5.2966e-06
4.10409e-06
3.16586e-06
2.42523e-06
1.83714e-06
1.36535e-06
9.80549e-07
6.58562e-07
3.78897e-07
1.23623e-07
96.7103
86.757
77.6819
69.4251
61.929
55.1379
48.9986
43.4603
38.4749
33.9967
29.9827
26.3923
23.1877
20.3335
17.7968
15.547
13.5558
11.7973
10.2475
8.88454
7.68833
6.64068
5.72505
4.92646
4.23139
3.62766
3.10433
2.65161
2.26078
1.92405
1.63451
1.38604
1.17324
0.991348
0.836171
0.704044
0.59176
0.496521
0.415892
0.34776
0.290296
0.241918
0.201266
0.167166
0.138616
0.114753
0.0948447
0.0782641
0.0644791
0.0530381
0.0435588
0.0357181
0.0292437
0.0239063
0.0195134
0.0159039
0.0129428
0.0105175
0.00853423
0.00691492
0.00559484
0.00452035
0.00364708
0.00293842
0.0023642
0.00189959
0.00152422
0.00122139
0.000977426
0.000781165
0.000623498
0.000497013
0.000395682
0.000314611
0.000249838
0.000198154
0.000156969
0.000124193
9.81417e-05
7.74623e-05
6.10676e-05
4.80859e-05
3.78192e-05
2.97094e-05
2.33109e-05
1.82682e-05
1.42982e-05
1.11758e-05
8.72199e-06
6.79472e-06
5.28129e-06
4.09229e-06
3.15673e-06
2.41825e-06
1.83185e-06
1.36144e-06
9.77762e-07
6.56664e-07
3.77787e-07
1.23268e-07
96.3963
86.4752
77.4296
69.1996
61.7279
54.9588
48.8394
43.3192
38.3499
33.8863
29.8853
26.3066
23.1124
20.2675
17.739
15.4965
13.5118
11.759
10.2143
8.85568
7.66336
6.61911
5.70646
4.91046
4.21765
3.61587
3.09424
2.643
2.25344
1.9178
1.62921
1.38154
1.16943
0.988129
0.833456
0.701759
0.589839
0.494909
0.414542
0.346631
0.289354
0.241134
0.200613
0.166624
0.138166
0.114381
0.0945372
0.0780104
0.0642701
0.0528662
0.0434177
0.0356024
0.029149
0.0238289
0.0194503
0.0158525
0.012901
0.0104835
0.00850665
0.00689258
0.00557677
0.00450576
0.00363531
0.00292894
0.00235658
0.00189347
0.00151931
0.00121746
0.000974282
0.000778653
0.000621495
0.000495418
0.000394412
0.000313603
0.000249038
0.00019752
0.000156467
0.000123796
9.78284e-05
7.72153e-05
6.0873e-05
4.79328e-05
3.7699e-05
2.96151e-05
2.3237e-05
1.82103e-05
1.4253e-05
1.11405e-05
8.69445e-06
6.77332e-06
5.26466e-06
4.07941e-06
3.14684e-06
2.41069e-06
1.82612e-06
1.35723e-06
9.74731e-07
6.54643e-07
3.76621e-07
1.22891e-07
96.0584
86.1721
77.1582
68.9571
61.5115
54.7661
48.6682
43.1673
38.2155
33.7675
29.7805
26.2144
23.0314
20.1964
17.6768
15.4422
13.4645
11.7178
10.1785
8.82464
7.63649
6.59591
5.68646
4.89325
4.20287
3.6032
3.0834
2.63374
2.24554
1.91108
1.6235
1.3767
1.16534
0.984667
0.830536
0.6993
0.587773
0.493175
0.41309
0.345417
0.28834
0.240289
0.19991
0.166041
0.137682
0.113981
0.0942064
0.0777374
0.0640452
0.0526813
0.0432658
0.0354779
0.0290471
0.0237456
0.0193823
0.0157971
0.0128559
0.0104469
0.00847696
0.00686853
0.00555732
0.00449005
0.00362264
0.00291874
0.00234837
0.00188688
0.00151403
0.00121323
0.000970896
0.000775948
0.000619338
0.000493699
0.000393045
0.000312516
0.000248175
0.000196837
0.000155926
0.000123368
9.74906e-05
7.69489e-05
6.06632e-05
4.77678e-05
3.75693e-05
2.95133e-05
2.31572e-05
1.81479e-05
1.42041e-05
1.11024e-05
8.66474e-06
6.75018e-06
5.24671e-06
4.06554e-06
3.1361e-06
2.40248e-06
1.81996e-06
1.35261e-06
9.71423e-07
6.52423e-07
3.75366e-07
1.22502e-07
95.6968
85.8478
76.8677
68.6975
61.28
54.56
48.485
43.0048
38.0717
33.6404
29.6684
26.1157
22.9447
20.1204
17.6103
15.384
13.4138
11.6737
10.1401
8.79142
7.60775
6.57108
5.66505
4.87483
4.18705
3.58964
3.07179
2.62383
2.23709
1.90389
1.61739
1.37152
1.16095
0.980962
0.827411
0.696669
0.585561
0.49132
0.411536
0.344118
0.287256
0.239385
0.199159
0.165416
0.137165
0.113552
0.0938522
0.0774452
0.0638046
0.0524834
0.0431033
0.0353447
0.028938
0.0236564
0.0193096
0.0157378
0.0128077
0.0104077
0.00844517
0.00684278
0.00553649
0.00447322
0.00360907
0.00290781
0.00233958
0.00187982
0.00150837
0.00120869
0.000967268
0.000773051
0.000617026
0.000491857
0.000391579
0.000311352
0.000247251
0.000196104
0.000155346
0.00012291
9.71285e-05
7.66633e-05
6.04382e-05
4.75908e-05
3.74302e-05
2.94041e-05
2.30716e-05
1.80808e-05
1.41517e-05
1.10614e-05
8.63284e-06
6.72533e-06
5.22744e-06
4.05059e-06
3.12461e-06
2.39369e-06
1.81326e-06
1.34763e-06
9.67837e-07
6.50024e-07
3.73968e-07
1.22036e-07
95.3116
85.5022
76.5583
68.421
61.0333
54.3404
48.2899
42.8317
37.9184
33.505
29.549
26.0106
22.8523
20.0394
17.5394
15.3221
13.3598
11.6267
10.0993
8.75604
7.57713
6.54463
5.64225
4.85521
4.17019
3.57519
3.05943
2.61327
2.22809
1.89623
1.61088
1.366
1.15628
0.977014
0.824081
0.693866
0.583205
0.489343
0.40988
0.342734
0.2861
0.238423
0.198358
0.164751
0.136613
0.113096
0.0934749
0.0771339
0.0635481
0.0522725
0.0429301
0.0352027
0.0288217
0.0235614
0.019232
0.0156746
0.0127563
0.010366
0.00841129
0.00681534
0.00551429
0.00445529
0.00359461
0.00289616
0.00233021
0.00187229
0.00150233
0.00120385
0.0009634
0.000769961
0.000614561
0.000489893
0.000390016
0.000310109
0.000246265
0.000195322
0.000154727
0.00012242
9.67421e-05
7.63585e-05
6.01981e-05
4.74018e-05
3.72817e-05
2.92876e-05
2.29802e-05
1.80093e-05
1.40958e-05
1.10177e-05
8.59873e-06
6.69882e-06
5.20681e-06
4.03465e-06
3.11234e-06
2.38427e-06
1.80613e-06
1.34235e-06
9.64051e-07
6.47471e-07
3.72502e-07
1.21558e-07
94.9029
85.1356
76.23
68.1276
60.7716
54.1074
48.0828
42.6481
37.7558
33.3613
29.4223
25.899
22.7543
19.9535
17.4642
15.2564
13.3025
11.5768
10.056
8.71849
7.54463
6.51657
5.61805
4.83439
4.15231
3.55986
3.04631
2.60206
2.21854
1.8881
1.60397
1.36015
1.15132
0.972826
0.820549
0.690891
0.580706
0.487246
0.408124
0.341265
0.284874
0.237401
0.197508
0.164045
0.136028
0.112611
0.0930745
0.0768036
0.063276
0.0520486
0.0427463
0.035052
0.0286984
0.0234606
0.0191497
0.0156076
0.0127017
0.0103216
0.00837532
0.0067862
0.00549073
0.00443626
0.00357926
0.0028838
0.00232026
0.0018643
0.00149592
0.00119872
0.000959293
0.000766679
0.000611942
0.000487807
0.000388356
0.00030879
0.000245218
0.000194492
0.00015407
0.000121901
9.63315e-05
7.60346e-05
5.99429e-05
4.7201e-05
3.71238e-05
2.91636e-05
2.28831e-05
1.79332e-05
1.40362e-05
1.09712e-05
8.56248e-06
6.6706e-06
5.1849e-06
4.01769e-06
3.09925e-06
2.37423e-06
1.79856e-06
1.33673e-06
9.60032e-07
6.44773e-07
3.7097e-07
1.21037e-07
94.4708
84.7479
75.883
67.8174
60.4949
53.861
47.8639
42.4539
37.5839
33.2094
29.2883
25.7811
22.6507
19.8626
17.3846
15.1869
13.2419
11.5241
10.0102
8.67879
7.51028
6.4869
5.59247
4.81238
4.13341
3.54365
3.03244
2.59021
2.20844
1.8795
1.59667
1.35395
1.14608
0.968397
0.816814
0.687746
0.578062
0.485028
0.406266
0.339712
0.283578
0.236321
0.196609
0.163299
0.135409
0.112099
0.0926512
0.0764542
0.0629882
0.0518119
0.0425519
0.0348926
0.0285679
0.0233539
0.0190627
0.0155366
0.012644
0.0102748
0.00833729
0.00675539
0.0054658
0.00441612
0.00356302
0.00287071
0.00230974
0.00185585
0.00148914
0.00119329
0.000954947
0.000763207
0.000609172
0.000485599
0.000386599
0.000307393
0.000244109
0.000193613
0.000153374
0.00012135
9.58969e-05
7.56917e-05
5.96727e-05
4.69884e-05
3.69567e-05
2.90324e-05
2.27801e-05
1.78526e-05
1.39732e-05
1.0922e-05
8.52409e-06
6.6407e-06
5.16168e-06
3.99968e-06
3.08539e-06
2.36364e-06
1.79052e-06
1.33075e-06
9.55724e-07
6.41875e-07
3.69271e-07
1.20504e-07
94.0154
84.3394
75.5171
67.4905
60.2032
53.6013
47.6331
42.2492
37.4027
33.0493
29.1471
25.6568
22.5415
19.7669
17.3008
15.1137
13.1781
11.4686
9.96197
8.63695
7.47408
6.45562
5.56552
4.78918
4.11348
3.52657
3.01782
2.57773
2.19779
1.87044
1.58897
1.34743
1.14056
0.96373
0.812877
0.684432
0.575276
0.482691
0.404308
0.338075
0.282211
0.235182
0.195662
0.162512
0.134757
0.111559
0.0922049
0.076086
0.0626849
0.0515624
0.0423471
0.0347246
0.0284304
0.0232415
0.018971
0.0154619
0.0125832
0.0102253
0.00829719
0.0067229
0.00543952
0.00439489
0.00354589
0.00285692
0.00229864
0.00184694
0.00148199
0.00118756
0.000950364
0.000759545
0.00060625
0.00048327
0.000384746
0.00030592
0.00024294
0.000192686
0.00015264
0.00012077
9.54382e-05
7.53299e-05
5.93876e-05
4.67639e-05
3.67802e-05
2.88939e-05
2.26715e-05
1.77675e-05
1.39067e-05
1.087e-05
8.48352e-06
6.60912e-06
5.13717e-06
3.98069e-06
3.07073e-06
2.35243e-06
1.78204e-06
1.32444e-06
9.51217e-07
6.38822e-07
3.67539e-07
1.19948e-07
93.5367
83.91
75.1327
67.1469
59.8967
53.3285
47.3906
42.0341
37.2123
32.8811
28.9988
25.5262
22.4268
19.6662
17.2128
15.0368
13.111
11.4102
9.91125
8.59298
7.43603
6.42276
5.53718
4.7648
4.09254
3.50862
3.00246
2.56461
2.1866
1.86092
1.58088
1.34057
1.13475
0.958825
0.808739
0.680948
0.572349
0.480234
0.402251
0.336354
0.280775
0.233985
0.194666
0.161685
0.134071
0.110991
0.0917358
0.075699
0.062366
0.0513002
0.0421317
0.0345481
0.0282859
0.0231234
0.0188745
0.0153833
0.0125192
0.0101734
0.00825503
0.00668875
0.00541189
0.00437257
0.00352789
0.00284241
0.00228698
0.00183756
0.00147447
0.00118154
0.000945544
0.000755694
0.000603177
0.000480822
0.000382797
0.000304371
0.00024171
0.000191711
0.000151868
0.000120159
9.49557e-05
7.49492e-05
5.90876e-05
4.65278e-05
3.65946e-05
2.87481e-05
2.25571e-05
1.76779e-05
1.38366e-05
1.08152e-05
8.44084e-06
6.57586e-06
5.11132e-06
3.96068e-06
3.0553e-06
2.34063e-06
1.77309e-06
1.3178e-06
9.46454e-07
6.35647e-07
3.65719e-07
1.19305e-07
93.035
83.4599
74.7297
66.7867
59.5755
53.0424
47.1364
41.8086
37.0127
32.7047
28.8432
25.3893
22.3065
19.5607
17.1204
14.9561
13.0407
11.349
9.85809
8.54689
7.39614
6.38831
5.50748
4.73925
4.07059
3.4898
2.98636
2.55085
2.17487
1.85094
1.57241
1.33338
1.12867
0.953683
0.804403
0.677297
0.569279
0.477659
0.400094
0.334551
0.27927
0.232731
0.193622
0.160819
0.133352
0.110396
0.0912441
0.0752932
0.0620318
0.0510253
0.0419059
0.034363
0.0281343
0.0229995
0.0187734
0.0153009
0.0124522
0.0101189
0.00821083
0.00665294
0.00538292
0.00434917
0.00350901
0.00282721
0.00227474
0.00182773
0.00146658
0.00117522
0.00094049
0.000751656
0.000599954
0.000478253
0.000380753
0.000302746
0.00024042
0.000190688
0.000151058
0.000119518
9.44495e-05
7.45497e-05
5.87728e-05
4.628e-05
3.63998e-05
2.85951e-05
2.24372e-05
1.75839e-05
1.3763e-05
1.07578e-05
8.39601e-06
6.54098e-06
5.08421e-06
3.9397e-06
3.03912e-06
2.32825e-06
1.76372e-06
1.31083e-06
9.41414e-07
6.32294e-07
3.63753e-07
1.18683e-07
92.5104
82.9893
74.3083
66.4101
59.2395
52.7433
46.8706
41.5729
36.804
32.5203
28.6806
25.2461
22.1807
19.4504
17.0239
14.8718
12.9671
11.285
9.8025
8.4987
7.35443
6.35229
5.47643
4.71252
4.04764
3.47012
2.96952
2.53647
2.16261
1.8405
1.56354
1.32586
1.1223
0.948305
0.799867
0.673478
0.56607
0.474966
0.397838
0.332665
0.277696
0.231419
0.192531
0.159912
0.132601
0.109774
0.0907299
0.0748689
0.0616822
0.0507378
0.0416698
0.0341693
0.0279758
0.0228699
0.0186677
0.0152147
0.012382
0.0100619
0.0081646
0.00661548
0.00535262
0.00432469
0.00348926
0.0028113
0.00226194
0.00181745
0.00145833
0.00116861
0.000935202
0.00074743
0.000596582
0.000475566
0.000378613
0.000301046
0.00023907
0.000189618
0.00015021
0.000118847
9.39197e-05
7.41317e-05
5.84433e-05
4.60206e-05
3.61959e-05
2.8435e-05
2.23115e-05
1.74855e-05
1.3686e-05
1.06976e-05
8.34907e-06
6.50443e-06
5.05583e-06
3.9177e-06
3.02216e-06
2.31524e-06
1.75386e-06
1.30352e-06
9.36173e-07
6.28764e-07
3.61755e-07
1.18061e-07
91.9629
82.4981
73.8685
66.0171
58.8889
52.4312
46.5932
41.3268
36.5862
32.3278
28.5108
25.0967
22.0494
19.3353
16.9231
14.7838
12.8904
11.2182
9.74449
8.4484
7.31091
6.31469
5.44402
4.68463
4.02368
3.44959
2.95195
2.52146
2.14981
1.82961
1.55429
1.31802
1.11566
0.942694
0.795134
0.669493
0.56272
0.472156
0.395484
0.330697
0.276053
0.23005
0.191392
0.158966
0.131816
0.109125
0.0901932
0.0744261
0.0613174
0.0504377
0.0414234
0.0339673
0.0278104
0.0227347
0.0185573
0.0151248
0.0123088
0.0100024
0.00811634
0.00657639
0.00532099
0.00429914
0.00346864
0.00279469
0.00224858
0.00180672
0.00144972
0.00116171
0.000929682
0.000743019
0.000593062
0.00047276
0.00037638
0.00029927
0.00023766
0.0001885
0.000149325
0.000118147
9.33665e-05
7.36951e-05
5.80992e-05
4.57498e-05
3.59829e-05
2.82677e-05
2.21803e-05
1.73827e-05
1.36056e-05
1.06348e-05
8.30005e-06
6.46625e-06
5.02616e-06
3.89471e-06
3.00445e-06
2.30166e-06
1.74357e-06
1.29587e-06
9.307e-07
6.25078e-07
3.59623e-07
1.17328e-07
91.3927
81.9866
73.4105
65.6078
58.5238
52.1061
46.3044
41.0706
36.3593
32.1274
28.3341
24.9411
21.9127
19.2154
16.8182
14.6921
12.8105
11.1487
9.68407
8.39602
7.26558
6.27554
5.41026
4.65559
3.99874
3.4282
2.93364
2.50583
2.13649
1.81827
1.54465
1.30985
1.10875
0.93685
0.790205
0.665343
0.559232
0.469229
0.393033
0.328647
0.274342
0.228624
0.190206
0.157981
0.130999
0.108449
0.0896342
0.0739649
0.0609374
0.0501251
0.0411667
0.0337568
0.0276381
0.0225939
0.0184423
0.0150311
0.0122326
0.00994048
0.00806608
0.00653566
0.00528804
0.00427252
0.00344717
0.00277739
0.00223467
0.00179554
0.00144075
0.00115452
0.000923931
0.000738423
0.000589395
0.000469837
0.000374053
0.000297421
0.000236192
0.000187335
0.000148402
0.000117418
9.27899e-05
7.32402e-05
5.77407e-05
4.54675e-05
3.57609e-05
2.80934e-05
2.20436e-05
1.72756e-05
1.35218e-05
1.05693e-05
8.24895e-06
6.42643e-06
4.99523e-06
3.87078e-06
2.98597e-06
2.2875e-06
1.73287e-06
1.28791e-06
9.24971e-07
6.21214e-07
3.57414e-07
1.16618e-07
90.8
81.4549
72.9344
65.1823
58.1442
51.7681
46.004
40.8043
36.1235
31.919
28.1503
24.7793
21.7706
19.0908
16.7091
14.5968
12.7274
11.0763
9.62127
8.34157
7.21846
6.23484
5.37518
4.6254
3.9728
3.40597
2.91462
2.48958
2.12263
1.80648
1.53463
1.30135
1.10156
0.930775
0.785081
0.661028
0.555606
0.466186
0.390484
0.326516
0.272563
0.227141
0.188972
0.156957
0.13015
0.107745
0.0890531
0.0734854
0.0605424
0.0498002
0.0408999
0.033538
0.0274589
0.0224474
0.0183228
0.0149337
0.0121533
0.00987607
0.00801382
0.00649332
0.00525379
0.00424485
0.00342485
0.0027594
0.0022202
0.00178391
0.00143143
0.00114705
0.00091795
0.000733644
0.000585581
0.000466797
0.000371634
0.000295497
0.000234664
0.000186124
0.000147443
0.000116659
9.21903e-05
7.2767e-05
5.73677e-05
4.51739e-05
3.553e-05
2.7912e-05
2.19013e-05
1.71641e-05
1.34346e-05
1.05011e-05
8.19576e-06
6.38501e-06
4.96303e-06
3.84583e-06
2.96674e-06
2.27279e-06
1.72173e-06
1.27962e-06
9.19009e-07
6.17217e-07
3.55105e-07
1.15885e-07
90.1849
80.9031
72.4403
64.7407
57.7503
51.4174
45.6924
40.5278
35.8788
31.7028
27.9596
24.6115
21.6231
18.9615
16.5959
14.4979
12.6412
11.0013
9.55609
8.28506
7.16956
6.19261
5.33876
4.59406
3.94589
3.38289
2.89487
2.47271
2.10825
1.79424
1.52424
1.29254
1.09409
0.92447
0.779763
0.656551
0.551842
0.463029
0.387839
0.324304
0.270717
0.225603
0.187693
0.155894
0.129269
0.107016
0.08845
0.0729877
0.0601324
0.049463
0.0406229
0.0333109
0.027273
0.0222955
0.0181988
0.0148326
0.0120711
0.00980922
0.00795958
0.00644937
0.00521823
0.00421612
0.00340167
0.00274073
0.00220517
0.00177185
0.00142174
0.00113929
0.000911743
0.000728683
0.000581621
0.000463641
0.000369122
0.0002935
0.000233078
0.000184866
0.000146447
0.000115871
9.15678e-05
7.22756e-05
5.69804e-05
4.48689e-05
3.52903e-05
2.77237e-05
2.17536e-05
1.70484e-05
1.3344e-05
1.04304e-05
8.14053e-06
6.34202e-06
4.9296e-06
3.81992e-06
2.94678e-06
2.25748e-06
1.71015e-06
1.27103e-06
9.12825e-07
6.1311e-07
3.52718e-07
1.15097e-07
89.5475
80.3313
71.9283
64.2831
57.3422
51.054
45.3695
40.2414
35.6252
31.4787
27.762
24.4375
21.4703
18.8275
16.4786
14.3955
12.5518
10.9236
9.48855
8.2265
7.11889
6.14884
5.30103
4.56159
3.918
3.35898
2.87442
2.45524
2.09335
1.78156
1.51347
1.2834
1.08636
0.917937
0.774252
0.651911
0.547943
0.459757
0.385099
0.322012
0.268804
0.224009
0.186366
0.154792
0.128355
0.10626
0.0878251
0.072472
0.0597076
0.0491135
0.0403359
0.0330756
0.0270804
0.022138
0.0180702
0.0147278
0.0119858
0.00973994
0.00790336
0.00640383
0.00518138
0.00418635
0.00337765
0.00272139
0.00218961
0.00175934
0.00141171
0.00113125
0.000905309
0.000723542
0.000577518
0.000460371
0.000366518
0.00029143
0.000231435
0.000183563
0.000145414
0.000115054
9.09224e-05
7.17663e-05
5.65789e-05
4.45529e-05
3.50417e-05
2.75285e-05
2.16005e-05
1.69284e-05
1.32501e-05
1.0357e-05
8.08327e-06
6.29741e-06
4.89494e-06
3.79308e-06
2.92604e-06
2.24162e-06
1.69812e-06
1.26212e-06
9.0643e-07
6.08791e-07
3.50253e-07
1.14297e-07
88.888
79.7397
71.3986
63.8097
56.9199
50.6781
45.0353
39.945
35.3629
31.2469
27.5575
24.2576
21.3122
18.6888
16.3573
14.2895
12.4594
10.8431
9.41867
8.16592
7.06647
6.10356
5.26199
4.528
3.88915
3.33425
2.85325
2.43715
2.07794
1.76844
1.50232
1.27395
1.07836
0.911177
0.768551
0.64711
0.543908
0.456371
0.382263
0.319641
0.266824
0.222359
0.184994
0.153652
0.12741
0.105477
0.0871785
0.0719385
0.059268
0.048752
0.040039
0.0328321
0.026881
0.021975
0.0179372
0.0146194
0.0118976
0.00966826
0.0078452
0.0063567
0.00514326
0.00415555
0.0033528
0.00270136
0.0021735
0.0017464
0.00140132
0.00112293
0.00089865
0.000718221
0.000573271
0.000456986
0.000363823
0.000289287
0.000229734
0.000182214
0.000144346
0.000114208
9.02544e-05
7.12392e-05
5.61634e-05
4.42257e-05
3.47845e-05
2.73265e-05
2.1442e-05
1.68042e-05
1.31529e-05
1.0281e-05
8.02399e-06
6.25123e-06
4.85908e-06
3.76527e-06
2.90461e-06
2.2252e-06
1.68568e-06
1.25284e-06
8.99814e-07
6.04339e-07
3.47677e-07
1.13454e-07
88.2066
79.1284
70.8513
63.3206
56.4836
50.2896
44.6901
39.6388
35.0918
31.0074
27.3463
24.0716
21.1488
18.5456
16.2319
14.1799
12.3639
10.76
9.34647
8.10332
7.01229
6.05677
5.22166
4.49329
3.85934
3.30869
2.83138
2.41847
2.06201
1.75488
1.4908
1.26418
1.0701
0.904192
0.762659
0.64215
0.539738
0.452873
0.379333
0.317191
0.264779
0.220655
0.183576
0.152475
0.126434
0.104669
0.0865103
0.0713871
0.0588138
0.0483783
0.0397322
0.0325805
0.026675
0.0218066
0.0177998
0.0145074
0.0118064
0.00959418
0.00778509
0.00630801
0.00510385
0.00412371
0.00332712
0.00268067