/*--------------------------------*- C++ -*----------------------------------*\
| =========                 |                                                 |
| \\      /  F ield         | OpenFOAM: The Open Source CFD Toolbox           |
|  \\    /   O peration     | Version:  2406                                  |
|   \\  /    A nd           | Website:  www.openfoam.com                      |
|    \\/     M anipulation  |                                                 |
\*---------------------------------------------------------------------------*/
FoamFile
{
    version     2.0;
    format      ascii;
    arch        "LSB;label=32;scalar=64";
    class       volScalarField;
    location    "25";
    object      T;
}
// * * * * * * * * * * * * * * * * * * * * * * * * * * * * * * * * * * * * * //

dimensions      [0 0 0 1 0 0 0];

internalField   nonuniform List<scalar> 
20000
(
300.247
300.221
300.198
300.177
300.158
300.141
300.125
300.111
300.098
300.087
300.076
300.067
300.059
300.052
300.045
300.04
300.035
300.03
300.026
300.023
300.02
300.017
300.015
300.013
300.011
300.009
300.008
300.007
300.006
300.005
300.004
300.004
300.003
300.003
300.002
300.002
300.002
300.001
300.001
300.001
300.001
300.001
300.001
300
300
300
300
300
300
300
300
300
300
300
300
300
300
300
300
300
300
300
300
300
300
300
300
300
300
300
300
300
300
300
300
300
300
300
300
300
300
300
300
300
300
300
300
300
300
300
300
300
300
300
300
300
300
300
300
300
300.739
300.663
300.594
300.531
300.474
300.422
300.375
300.332
300.294
300.26
300.229
300.202
300.177
300.155
300.136
300.119
300.104
300.09
300.078
300.068
300.059
300.051
300.044
300.038
300.032
300.028
300.024
300.02
300.017
300.015
300.012
300.011
300.009
300.008
300.006
300.005
300.005
300.004
300.003
300.003
300.002
300.002
300.002
300.001
300.001
300.001
300.001
300.001
300
300
300
300
300
300
300
300
300
300
300
300
300
300
300
300
300
300
300
300
300
300
300
300
300
300
300
300
300
300
300
300
300
300
300
300
300
300
300
300
300
300
300
300
300
300
300
300
300
300
300
300
301.232
301.105
300.99
300.885
300.789
300.703
300.624
300.554
300.49
300.433
300.382
300.336
300.295
300.259
300.227
300.198
300.173
300.15
300.131
300.113
300.098
300.085
300.073
300.063
300.054
300.046
300.04
300.034
300.029
300.025
300.021
300.018
300.015
300.013
300.011
300.009
300.008
300.006
300.005
300.004
300.004
300.003
300.003
300.002
300.002
300.001
300.001
300.001
300.001
300.001
300.001
300
300
300
300
300
300
300
300
300
300
300
300
300
300
300
300
300
300
300
300
300
300
300
300
300
300
300
300
300
300
300
300
300
300
300
300
300
300
300
300
300
300
300
300
300
300
300
300
300
301.725
301.547
301.385
301.238
301.104
300.983
300.874
300.775
300.686
300.606
300.535
300.471
300.414
300.363
300.317
300.277
300.242
300.21
300.183
300.158
300.137
300.118
300.102
300.088
300.075
300.065
300.055
300.047
300.04
300.034
300.029
300.025
300.021
300.018
300.015
300.013
300.011
300.009
300.007
300.006
300.005
300.004
300.004
300.003
300.002
300.002
300.002
300.001
300.001
300.001
300.001
300.001
300.001
300
300
300
300
300
300
300
300
300
300
300
300
300
300
300
300
300
300
300
300
300
300
300
300
300
300
300
300
300
300
300
300
300
300
300
300
300
300
300
300
300
300
300
300
300
300
300
302.217
301.989
301.781
301.591
301.42
301.264
301.123
300.996
300.882
300.779
300.687
300.605
300.532
300.466
300.408
300.356
300.311
300.27
300.235
300.204
300.176
300.152
300.131
300.113
300.097
300.083
300.071
300.061
300.052
300.044
300.037
300.032
300.027
300.023
300.019
300.016
300.014
300.011
300.01
300.008
300.007
300.006
300.005
300.004
300.003
300.003
300.002
300.002
300.001
300.001
300.001
300.001
300.001
300.001
300
300
300
300
300
300
300
300
300
300
300
300
300
300
300
300
300
300
300
300
300
300
300
300
300
300
300
300
300
300
300
300
300
300
300
300
300
300
300
300
300
300
300
300
300
300
302.708
302.43
302.175
301.944
301.734
301.544
301.372
301.217
301.077
300.952
300.84
300.739
300.649
300.569
300.498
300.435
300.38
300.33
300.287
300.249
300.215
300.186
300.16
300.138
300.119
300.102
300.087
300.074
300.063
300.054
300.046
300.039
300.033
300.028
300.023
300.02
300.017
300.014
300.012
300.01
300.008
300.007
300.006
300.005
300.004
300.003
300.003
300.002
300.002
300.001
300.001
300.001
300.001
300.001
300.001
300
300
300
300
300
300
300
300
300
300
300
300
300
300
300
300
300
300
300
300
300
300
300
300
300
300
300
300
300
300
300
300
300
300
300
300
300
300
300
300
300
300
300
300
300
303.199
302.87
302.57
302.297
302.049
301.824
301.621
301.438
301.273
301.125
300.992
300.873
300.767
300.673
300.589
300.514
300.448
300.39
300.339
300.294
300.254
300.22
300.189
300.163
300.14
300.12
300.103
300.088
300.075
300.064
300.054
300.046
300.039
300.033
300.028
300.023
300.02
300.016
300.014
300.012
300.01
300.008
300.007
300.006
300.005
300.004
300.003
300.003
300.002
300.002
300.001
300.001
300.001
300.001
300.001
300.001
300
300
300
300
300
300
300
300
300
300
300
300
300
300
300
300
300
300
300
300
300
300
300
300
300
300
300
300
300
300
300
300
300
300
300
300
300
300
300
300
300
300
300
300
303.689
303.31
302.963
302.648
302.362
302.103
301.869
301.658
301.468
301.297
301.144
301.007
300.885
300.776
300.679
300.593
300.517
300.45
300.391
300.339
300.293
300.253
300.218
300.188
300.161
300.138
300.118
300.101
300.086
300.073
300.062
300.053
300.045
300.038
300.032
300.027
300.023
300.019
300.016
300.013
300.011
300.009
300.008
300.006
300.005
300.004
300.004
300.003
300.002
300.002
300.002
300.001
300.001
300.001
300.001
300.001
300
300
300
300
300
300
300
300
300
300
300
300
300
300
300
300
300
300
300
300
300
300
300
300
300
300
300
300
300
300
300
300
300
300
300
300
300
300
300
300
300
300
300
300
304.178
303.748
303.356
303
302.676
302.382
302.117
301.878
301.662
301.469
301.295
301.14
301.002
300.879
300.769
300.672
300.586
300.51
300.443
300.384
300.332
300.287
300.247
300.213
300.183
300.157
300.134
300.115
300.098
300.083
300.071
300.06
300.051
300.043
300.036
300.03
300.026
300.021
300.018
300.015
300.013
300.01
300.009
300.007
300.006
300.005
300.004
300.003
300.003
300.002
300.002
300.002
300.001
300.001
300.001
300.001
300.001
300
300
300
300
300
300
300
300
300
300
300
300
300
300
300
300
300
300
300
300
300
300
300
300
300
300
300
300
300
300
300
300
300
300
300
300
300
300
300
300
300
300
300
304.667
304.186
303.748
303.35
302.988
302.661
302.364
302.097
301.857
301.64
301.447
301.274
301.119
300.981
300.859
300.75
300.654
300.569
300.494
300.429
300.371
300.32
300.276
300.238
300.204
300.175
300.15
300.128
300.109
300.093
300.079
300.067
300.057
300.048
300.04
300.034
300.029
300.024
300.02
300.017
300.014
300.012
300.01
300.008
300.007
300.006
300.005
300.004
300.003
300.003
300.002
300.002
300.001
300.001
300.001
300.001
300.001
300.001
300
300
300
300
300
300
300
300
300
300
300
300
300
300
300
300
300
300
300
300
300
300
300
300
300
300
300
300
300
300
300
300
300
300
300
300
300
300
300
300
300
300
305.154
304.623
304.14
303.7
303.3
302.938
302.611
302.316
302.05
301.812
301.598
301.406
301.236
301.084
300.948
300.828
300.722
300.629
300.546
300.473
300.41
300.354
300.305
300.263
300.225
300.193
300.165
300.141
300.12
300.103
300.087
300.074
300.063
300.053
300.045
300.038
300.032
300.026
300.022
300.019
300.015
300.013
300.011
300.009
300.007
300.006
300.005
300.004
300.003
300.003
300.002
300.002
300.002
300.001
300.001
300.001
300.001
300.001
300
300
300
300
300
300
300
300
300
300
300
300
300
300
300
300
300
300
300
300
300
300
300
300
300
300
300
300
300
300
300
300
300
300
300
300
300
300
300
300
300
300
305.639
305.059
304.53
304.048
303.611
303.215
302.857
302.534
302.243
301.982
301.748
301.539
301.352
301.186
301.038
300.907
300.79
300.688
300.598
300.518
300.448
300.387
300.334
300.287
300.247
300.212
300.181
300.155
300.132
300.112
300.095
300.081
300.068
300.058
300.049
300.041
300.035
300.029
300.024
300.02
300.017
300.014
300.012
300.01
300.008
300.007
300.006
300.005
300.004
300.003
300.003
300.002
300.002
300.001
300.001
300.001
300.001
300.001
300
300
300
300
300
300
300
300
300
300
300
300
300
300
300
300
300
300
300
300
300
300
300
300
300
300
300
300
300
300
300
300
300
300
300
300
300
300
300
300
300
300
306.124
305.493
304.919
304.396
303.921
303.491
303.103
302.752
302.436
302.153
301.898
301.671
301.468
301.287
301.127
300.984
300.858
300.747
300.649
300.563
300.487
300.42
300.363
300.312
300.268
300.23
300.197
300.168
300.143
300.122
300.103
300.088
300.074
300.063
300.053
300.045
300.037
300.031
300.026
300.022
300.018
300.015
300.013
300.011
300.009
300.007
300.006
300.005
300.004
300.003
300.003
300.002
300.002
300.002
300.001
300.001
300.001
300.001
300.001
300
300
300
300
300
300
300
300
300
300
300
300
300
300
300
300
300
300
300
300
300
300
300
300
300
300
300
300
300
300
300
300
300
300
300
300
300
300
300
300
300
306.606
305.926
305.306
304.742
304.23
303.766
303.347
302.969
302.628
302.322
302.048
301.803
301.584
301.389
301.216
301.062
300.926
300.806
300.7
300.607
300.525
300.454
300.391
300.337
300.289
300.248
300.212
300.181
300.154
300.131
300.112
300.095
300.08
300.068
300.057
300.048
300.04
300.034
300.028
300.024
300.02
300.017
300.014
300.011
300.009
300.008
300.006
300.005
300.004
300.004
300.003
300.002
300.002
300.002
300.001
300.001
300.001
300.001
300.001
300
300
300
300
300
300
300
300
300
300
300
300
300
300
300
300
300
300
300
300
300
300
300
300
300
300
300
300
300
300
300
300
300
300
300
300
300
300
300
300
300
307.088
306.358
305.693
305.088
304.539
304.041
303.591
303.185
302.82
302.491
302.197
301.934
301.699
301.49
301.304
301.139
300.993
300.865
300.751
300.651
300.563
300.487
300.42
300.361
300.31
300.266
300.228
300.194
300.166
300.141
300.12
300.102
300.086
300.073
300.061
300.052
300.043
300.036
300.03
300.025
300.021
300.018
300.015
300.012
300.01
300.008
300.007
300.006
300.005
300.004
300.003
300.003
300.002
300.002
300.001
300.001
300.001
300.001
300.001
300.001
300
300
300
300
300
300
300
300
300
300
300
300
300
300
300
300
300
300
300
300
300
300
300
300
300
300
300
300
300
300
300
300
300
300
300
300
300
300
300
300
307.567
306.788
306.078
305.432
304.846
304.314
303.834
303.4
303.01
302.66
302.346
302.065
301.814
301.591
301.392
301.216
301.061
300.923
300.802
300.695
300.602
300.52
300.448
300.385
300.331
300.284
300.243
300.207
300.177
300.151
300.128
300.108
300.092
300.078
300.065
300.055
300.046
300.039
300.033
300.027
300.023
300.019
300.016
300.013
300.011
300.009
300.007
300.006
300.005
300.004
300.003
300.003
300.002
300.002
300.002
300.001
300.001
300.001
300.001
300.001
300
300
300
300
300
300
300
300
300
300
300
300
300
300
300
300
300
300
300
300
300
300
300
300
300
300
300
300
300
300
300
300
300
300
300
300
300
300
300
300
308.044
307.217
306.462
305.775
305.151
304.586
304.076
303.615
303.2
302.828
302.494
302.195
301.929
301.691
301.48
301.293
301.128
300.981
300.852
300.739
300.64
300.552
300.476
300.41
300.352
300.302
300.258
300.221
300.188
300.16
300.136
300.115
300.098
300.082
300.07
300.059
300.049
300.041
300.035
300.029
300.024
300.02
300.017
300.014
300.012
300.01
300.008
300.007
300.005
300.004
300.004
300.003
300.002
300.002
300.002
300.001
300.001
300.001
300.001
300.001
300
300
300
300
300
300
300
300
300
300
300
300
300
300
300
300
300
300
300
300
300
300
300
300
300
300
300
300
300
300
300
300
300
300
300
300
300
300
300
300
308.52
307.643
306.844
306.116
305.456
304.858
304.317
303.829
303.39
302.995
302.641
302.325
302.043
301.791
301.568
301.37
301.194
301.039
300.903
300.783
300.677
300.585
300.504
300.434
300.373
300.32
300.273
300.234
300.199
300.17
300.144
300.122
300.103
300.087
300.074
300.062
300.052
300.044
300.037
300.031
300.026
300.021
300.018
300.015
300.012
300.01
300.008
300.007
300.006
300.005
300.004
300.003
300.003
300.002
300.002
300.001
300.001
300.001
300.001
300.001
300
300
300
300
300
300
300
300
300
300
300
300
300
300
300
300
300
300
300
300
300
300
300
300
300
300
300
300
300
300
300
300
300
300
300
300
300
300
300
300
308.994
308.068
307.224
306.456
305.759
305.128
304.557
304.042
303.578
303.161
302.788
302.454
302.156
301.891
301.655
301.446
301.261
301.097
300.953
300.826
300.715
300.618
300.532
300.458
300.393
300.337
300.289
300.247
300.21
300.179
300.152
300.129
300.109
300.092
300.078
300.065
300.055
300.046
300.039
300.032
300.027
300.022
300.019
300.016
300.013
300.011
300.009
300.007
300.006
300.005
300.004
300.003
300.003
300.002
300.002
300.001
300.001
300.001
300.001
300.001
300.001
300
300
300
300
300
300
300
300
300
300
300
300
300
300
300
300
300
300
300
300
300
300
300
300
300
300
300
300
300
300
300
300
300
300
300
300
300
300
300
309.465
308.491
307.602
306.794
306.061
305.396
304.795
304.253
303.765
303.327
302.934
302.583
302.269
301.99
301.742
301.522
301.327
301.155
301.003
300.87
300.752
300.65
300.56
300.482
300.414
300.355
300.304
300.26
300.221
300.188
300.16
300.136
300.115
300.097
300.082
300.069
300.058
300.049
300.041
300.034
300.028
300.024
300.02
300.016
300.014
300.011
300.009
300.008
300.006
300.005
300.004
300.003
300.003
300.002
300.002
300.002
300.001
300.001
300.001
300.001
300.001
300
300
300
300
300
300
300
300
300
300
300
300
300
300
300
300
300
300
300
300
300
300
300
300
300
300
300
300
300
300
300
300
300
300
300
300
300
300
300
309.934
308.911
307.979
307.131
306.361
305.664
305.033
304.464
303.952
303.492
303.08
302.711
302.382
302.089
301.828
301.597
301.392
301.212
301.053
300.913
300.79
300.682
300.588
300.506
300.435
300.373
300.319
300.272
300.232
300.198
300.168
300.142
300.121
300.102
300.086
300.072
300.061
300.051
300.043
300.036
300.03
300.025
300.021
300.017
300.014
300.012
300.01
300.008
300.007
300.005
300.004
300.004
300.003
300.002
300.002
300.002
300.001
300.001
300.001
300.001
300.001
300
300
300
300
300
300
300
300
300
300
300
300
300
300
300
300
300
300
300
300
300
300
300
300
300
300
300
300
300
300
300
300
300
300
300
300
300
300
300
310.4
309.33
308.354
307.466
306.66
305.929
305.269
304.674
304.138
303.656
303.224
302.838
302.494
302.187
301.914
301.672
301.458
301.269
301.102
300.955
300.827
300.714
300.616
300.53
300.455
300.39
300.334
300.285
300.243
300.207
300.176
300.149
300.126
300.107
300.09
300.076
300.064
300.053
300.045
300.037
300.031
300.026
300.022
300.018
300.015
300.012
300.01
300.008
300.007
300.006
300.005
300.004
300.003
300.003
300.002
300.002
300.001
300.001
300.001
300.001
300.001
300
300
300
300
300
300
300
300
300
300
300
300
300
300
300
300
300
300
300
300
300
300
300
300
300
300
300
300
300
300
300
300
300
300
300
300
300
300
300
310.864
309.746
308.726
307.799
306.957
306.194
305.504
304.882
304.322
303.819
303.368
302.965
302.605
302.284
301.999
301.746
301.523
301.325
301.151
300.998
300.864
300.746
300.643
300.553
300.475
300.408
300.349
300.298
300.254
300.216
300.184
300.156
300.132
300.111
300.094
300.079
300.066
300.056
300.047
300.039
300.033
300.027
300.023
300.019
300.016
300.013
300.011
300.009
300.007
300.006
300.005
300.004
300.003
300.003
300.002
300.002
300.001
300.001
300.001
300.001
300.001
300.001
300
300
300
300
300
300
300
300
300
300
300
300
300
300
300
300
300
300
300
300
300
300
300
300
300
300
300
300
300
300
300
300
300
300
300
300
300
300
311.325
310.16
309.097
308.13
307.252
306.457
305.738
305.089
304.506
303.981
303.511
303.091
302.715
302.381
302.084
301.821
301.587
301.382
301.2
301.04
300.9
300.778
300.67
300.577
300.496
300.425
300.364
300.311
300.265
300.225
300.191
300.162
300.137
300.116
300.098
300.082
300.069
300.058
300.049
300.041
300.034
300.028
300.024
300.02
300.016
300.013
300.011
300.009
300.008
300.006
300.005
300.004
300.003
300.003
300.002
300.002
300.002
300.001
300.001
300.001
300.001
300.001
300
300
300
300
300
300
300
300
300
300
300
300
300
300
300
300
300
300
300
300
300
300
300
300
300
300
300
300
300
300
300
300
300
300
300
300
300
300
311.784
310.571
309.465
308.459
307.546
306.718
305.97
305.295
304.688
304.142
303.653
303.216
302.825
302.478
302.168
301.894
301.652
301.437
301.249
301.083
300.937
300.809
300.698
300.6
300.516
300.442
300.378
300.323
300.275
300.234
300.199
300.169
300.143
300.121
300.102
300.086
300.072
300.06
300.051
300.042
300.035
300.029
300.025
300.02
300.017
300.014
300.012
300.01
300.008
300.006
300.005
300.004
300.004
300.003
300.002
300.002
300.002
300.001
300.001
300.001
300.001
300.001
300
300
300
300
300
300
300
300
300
300
300
300
300
300
300
300
300
300
300
300
300
300
300
300
300
300
300
300
300
300
300
300
300
300
300
300
300
300
312.239
310.979
309.831
308.786
307.837
306.978
306.201
305.5
304.869
304.302
303.794
303.34
302.935
302.573
302.252
301.968
301.716
301.493
301.297
301.124
300.973
300.84
300.725
300.623
300.536
300.459
300.393
300.336
300.286
300.243
300.207
300.175
300.148
300.125
300.106
300.089
300.075
300.063
300.053
300.044
300.037
300.031
300.025
300.021
300.018
300.015
300.012
300.01
300.008
300.007
300.006
300.005
300.004
300.003
300.002
300.002
300.002
300.001
300.001
300.001
300.001
300.001
300
300
300
300
300
300
300
300
300
300
300
300
300
300
300
300
300
300
300
300
300
300
300
300
300
300
300
300
300
300
300
300
300
300
300
300
300
300
312.692
311.385
310.194
309.111
308.127
307.236
306.43
305.703
305.049
304.462
303.935
303.464
303.043
302.668
302.336
302.04
301.779
301.548
301.345
301.166
301.009
300.871
300.751
300.647
300.555
300.476
300.407
300.348
300.297
300.253
300.215
300.182
300.154
300.13
300.11
300.092
300.078
300.065
300.055
300.046
300.038
300.032
300.026
300.022
300.018
300.015
300.012
300.01
300.008
300.007
300.006
300.005
300.004
300.003
300.003
300.002
300.002
300.001
300.001
300.001
300.001
300.001
300
300
300
300
300
300
300
300
300
300
300
300
300
300
300
300
300
300
300
300
300
300
300
300
300
300
300
300
300
300
300
300
300
300
300
300
300
300
313.141
311.789
310.555
309.433
308.415
307.492
306.658
305.905
305.228
304.619
304.074
303.586
303.151
302.763
302.418
302.113
301.842
301.603
301.392
301.207
301.045
300.902
300.778
300.669
300.575
300.493
300.422
300.36
300.307
300.261
300.222
300.188
300.159
300.135
300.114
300.096
300.08
300.067
300.057
300.047
300.039
300.033
300.027
300.023
300.019
300.016
300.013
300.011
300.009
300.007
300.006
300.005
300.004
300.003
300.003
300.002
300.002
300.001
300.001
300.001
300.001
300.001
300
300
300
300
300
300
300
300
300
300
300
300
300
300
300
300
300
300
300
300
300
300
300
300
300
300
300
300
300
300
300
300
300
300
300
300
300
300
313.587
312.189
310.914
309.754
308.701
307.746
306.884
306.106
305.405
304.776
304.212
303.708
303.258
302.857
302.5
302.184
301.904
301.657
301.44
301.248
301.08
300.933
300.804
300.692
300.594
300.51
300.436
300.373
300.318
300.27
300.23
300.195
300.165
300.139
300.117
300.099
300.083
300.07
300.058
300.049
300.041
300.034
300.028
300.023
300.019
300.016
300.013
300.011
300.009
300.007
300.006
300.005
300.004
300.003
300.003
300.002
300.002
300.001
300.001
300.001
300.001
300.001
300.001
300
300
300
300
300
300
300
300
300
300
300
300
300
300
300
300
300
300
300
300
300
300
300
300
300
300
300
300
300
300
300
300
300
300
300
300
300
314.03
312.586
311.269
310.072
308.984
307.999
307.108
306.305
305.582
304.932
304.35
303.829
303.364
302.95
302.582
302.255
301.967
301.711
301.487
301.289
301.115
300.963
300.831
300.715
300.614
300.526
300.45
300.385
300.328
300.279
300.237
300.201
300.17
300.144
300.121
300.102
300.086
300.072
300.06
300.05
300.042
300.035
300.029
300.024
300.02
300.017
300.014
300.011
300.009
300.008
300.006
300.005
300.004
300.003
300.003
300.002
300.002
300.002
300.001
300.001
300.001
300.001
300.001
300
300
300
300
300
300
300
300
300
300
300
300
300
300
300
300
300
300
300
300
300
300
300
300
300
300
300
300
300
300
300
300
300
300
300
300
300
314.469
312.98
311.622
310.387
309.265
308.249
307.331
306.502
305.756
305.086
304.486
303.949
303.469
303.042
302.663
302.326
302.028
301.765
301.533
301.329
301.15
300.994
300.857
300.737
300.633
300.543
300.464
300.397
300.338
300.288
300.245
300.207
300.176
300.148
300.125
300.105
300.089
300.074
300.062
300.052
300.043
300.036
300.03
300.025
300.021
300.017
300.014
300.012
300.01
300.008
300.007
300.005
300.004
300.004
300.003
300.002
300.002
300.002
300.001
300.001
300.001
300.001
300.001
300
300
300
300
300
300
300
300
300
300
300
300
300
300
300
300
300
300
300
300
300
300
300
300
300
300
300
300
300
300
300
300
300
300
300
300
300
314.905
313.371
311.972
310.7
309.544
308.498
307.552
306.698
305.93
305.24
304.621
304.068
303.574
303.134
302.743
302.396
302.089
301.818
301.579
301.369
301.185
301.023
300.882
300.759
300.652
300.559
300.478
300.409
300.348
300.297
300.252
300.214
300.181
300.153
300.129
300.109
300.091
300.077
300.064
300.054
300.045
300.037
300.031
300.026
300.021
300.018
300.015
300.012
300.01
300.008
300.007
300.006
300.005
300.004
300.003
300.002
300.002
300.002
300.001
300.001
300.001
300.001
300.001
300
300
300
300
300
300
300
300
300
300
300
300
300
300
300
300
300
300
300
300
300
300
300
300
300
300
300
300
300
300
300
300
300
300
300
300
300
315.337
313.758
312.319
311.01
309.821
308.744
307.771
306.892
306.102
305.391
304.755
304.185
303.677
303.225
302.822
302.466
302.15
301.871
301.625
301.409
301.219
301.053
300.908
300.781
300.671
300.575
300.492
300.421
300.359
300.305
300.259
300.22
300.186
300.157
300.133
300.112
300.094
300.079
300.066
300.055
300.046
300.038
300.032
300.027
300.022
300.018
300.015
300.012
300.01
300.008
300.007
300.006
300.005
300.004
300.003
300.003
300.002
300.002
300.001
300.001
300.001
300.001
300.001
300
300
300
300
300
300
300
300
300
300
300
300
300
300
300
300
300
300
300
300
300
300
300
300
300
300
300
300
300
300
300
300
300
300
300
300
300
315.765
314.143
312.663
311.317
310.095
308.988
307.987
307.085
306.272
305.542
304.888
304.302
303.78
303.315
302.901
302.534
302.21
301.923
301.671
301.448
301.253
301.083
300.933
300.803
300.69
300.591
300.506
300.432
300.369
300.314
300.266
300.226
300.191
300.162
300.136
300.115
300.096
300.081
300.068
300.057
300.047
300.039
300.033
300.027
300.023
300.019
300.015
300.013
300.011
300.009
300.007
300.006
300.005
300.004
300.003
300.003
300.002
300.002
300.001
300.001
300.001
300.001
300.001
300
300
300
300
300
300
300
300
300
300
300
300
300
300
300
300
300
300
300
300
300
300
300
300
300
300
300
300
300
300
300
300
300
300
300
300
300
316.19
314.523
313.004
311.622
310.367
309.23
308.203
307.275
306.441
305.691
305.019
304.418
303.882
303.404
302.979
302.603
302.269
301.975
301.715
301.487
301.287
301.112
300.958
300.825
300.708
300.607
300.52
300.444
300.378
300.322
300.274
300.232
300.196
300.166
300.14
300.118
300.099
300.083
300.07
300.058
300.049
300.04
300.034
300.028
300.023
300.019
300.016
300.013
300.011
300.009
300.007
300.006
300.005
300.004
300.003
300.003
300.002
300.002
300.001
300.001
300.001
300.001
300.001
300
300
300
300
300
300
300
300
300
300
300
300
300
300
300
300
300
300
300
300
300
300
300
300
300
300
300
300
300
300
300
300
300
300
300
300
300
316.61
314.901
313.342
311.924
310.636
309.47
308.416
307.464
306.608
305.839
305.15
304.533
303.982
303.492
303.057
302.67
302.328
302.026
301.76
301.526
301.32
301.141
300.983
300.846
300.727
300.623
300.533
300.455
300.388
300.33
300.281
300.238
300.202
300.17
300.144
300.121
300.102
300.085
300.071
300.06
300.05
300.042
300.035
300.029
300.024
300.02
300.016
300.013
300.011
300.009
300.007
300.006
300.005
300.004
300.003
300.003
300.002
300.002
300.001
300.001
300.001
300.001
300.001
300.001
300
300
300
300
300
300
300
300
300
300
300
300
300
300
300
300
300
300
300
300
300
300
300
300
300
300
300
300
300
300
300
300
300
300
300
300
317.026
315.274
313.676
312.223
310.903
309.707
308.626
307.651
306.774
305.985
305.279
304.646
304.082
303.58
303.133
302.737
302.387
302.077
301.804
301.564
301.354
301.169
301.008
300.867
300.745
300.639
300.547
300.467
300.398
300.339
300.288
300.244
300.207
300.175
300.147
300.124
300.104
300.087
300.073
300.061
300.051
300.043
300.035
300.029
300.024
300.02
300.017
300.014
300.011
300.009
300.008
300.006
300.005
300.004
300.003
300.003
300.002
300.002
300.002
300.001
300.001
300.001
300.001
300.001
300
300
300
300
300
300
300
300
300
300
300
300
300
300
300
300
300
300
300
300
300
300
300
300
300
300
300
300
300
300
300
300
300
300
300
300
317.438
315.644
314.007
312.518
311.167
309.942
308.835
307.837
306.938
306.13
305.406
304.759
304.181
303.666
303.209
302.803
302.444
302.127
301.848
301.602
301.386
301.197
301.032
300.888
300.763
300.654
300.56
300.478
300.408
300.347
300.295
300.25
300.212
300.179
300.151
300.127
300.107
300.09
300.075
300.063
300.052
300.044
300.036
300.03
300.025
300.021
300.017
300.014
300.012
300.01
300.008
300.006
300.005
300.004
300.004
300.003
300.002
300.002
300.002
300.001
300.001
300.001
300.001
300.001
300
300
300
300
300
300
300
300
300
300
300
300
300
300
300
300
300
300
300
300
300
300
300
300
300
300
300
300
300
300
300
300
300
300
300
300
317.846
316.009
314.335
312.811
311.428
310.175
309.042
308.02
307.1
306.273
305.533
304.87
304.279
303.752
303.284
302.869
302.501
302.177
301.891
301.639
301.419
301.225
301.056
300.909
300.781
300.669
300.573
300.489
300.417
300.355
300.302
300.256
300.217
300.183
300.154
300.13
300.109
300.092
300.077
300.064
300.054
300.045
300.037
300.031
300.026
300.021
300.018
300.014
300.012
300.01
300.008
300.007
300.005
300.004
300.004
300.003
300.002
300.002
300.002
300.001
300.001
300.001
300.001
300.001
300
300
300
300
300
300
300
300
300
300
300
300
300
300
300
300
300
300
300
300
300
300
300
300
300
300
300
300
300
300
300
300
300
300
300
300
318.25
316.371
314.659
313.101
311.686
310.405
309.246
308.201
307.26
306.415
305.658
304.98
304.376
303.837
303.358
302.934
302.558
302.226
301.934
301.677
301.451
301.253
301.08
300.93
300.798
300.685
300.586
300.5
300.427
300.363
300.308
300.262
300.221
300.187
300.158
300.133
300.112
300.094
300.078
300.066
300.055
300.046
300.038
300.032
300.026
300.022
300.018
300.015
300.012
300.01
300.008
300.007
300.006
300.005
300.004
300.003
300.002
300.002
300.002
300.001
300.001
300.001
300.001
300.001
300
300
300
300
300
300
300
300
300
300
300
300
300
300
300
300
300
300
300
300
300
300
300
300
300
300
300
300
300
300
300
300
300
300
300
300
318.648
316.729
314.979
313.387
311.942
310.632
309.448
308.38
307.419
306.555
305.781
305.089
304.471
303.921
303.432
302.998
302.614
302.275
301.976
301.713
301.483
301.281
301.104
300.95
300.816
300.7
300.599
300.511
300.436
300.371
300.315
300.267
300.226
300.191
300.161
300.136
300.114
300.096
300.08
300.067
300.056
300.047
300.039
300.032
300.027
300.022
300.018
300.015
300.012
300.01
300.008
300.007
300.006
300.005
300.004
300.003
300.002
300.002
300.002
300.001
300.001
300.001
300.001
300.001
300
300
300
300
300
300
300
300
300
300
300
300
300
300
300
300
300
300
300
300
300
300
300
300
300
300
300
300
300
300
300
300
300
300
300
300
319.043
317.083
315.296
313.67
312.194
310.857
309.648
308.558
307.576
306.694
305.904
305.197
304.566
304.004
303.504
303.061
302.669
302.323
302.018
301.749
301.514
301.308
301.127
300.97
300.833
300.714
300.611
300.522
300.445
300.379
300.322
300.273
300.231
300.195
300.165
300.139
300.117
300.098
300.082
300.068
300.057
300.048
300.04
300.033
300.027
300.023
300.019
300.015
300.013
300.01
300.009
300.007
300.006
300.005
300.004
300.003
300.003
300.002
300.002
300.001
300.001
300.001
300.001
300.001
300
300
300
300
300
300
300
300
300
300
300
300
300
300
300
300
300
300
300
300
300
300
300
300
300
300
300
300
300
300
300
300
300
300
300
300
319.432
317.432
315.609
313.95
312.444
311.079
309.845
308.733
307.731
306.831
306.024
305.303
304.659
304.086
303.576
303.124
302.724
302.37
302.059
301.785
301.545
301.334
301.15
300.99
300.85
300.729
300.624
300.533
300.454
300.387
300.328
300.279
300.236
300.199
300.168
300.141
300.119
300.1
300.084
300.07
300.058
300.049
300.04
300.034
300.028
300.023
300.019
300.016
300.013
300.011
300.009
300.007
300.006
300.005
300.004
300.003
300.003
300.002
300.002
300.001
300.001
300.001
300.001
300.001
300
300
300
300
300
300
300
300
300
300
300
300
300
300
300
300
300
300
300
300
300
300
300
300
300
300
300
300
300
300
300
300
300
300
300
300
319.817
317.777
315.918
314.226
312.69
311.298
310.04
308.906
307.884
306.966
306.144
305.408
304.751
304.167
303.647
303.186
302.778
302.417
302.1
301.821
301.575
301.361
301.173
301.009
300.867
300.743
300.636
300.543
300.463
300.394
300.335
300.284
300.24
300.203
300.171
300.144
300.121
300.102
300.085
300.071
300.059
300.05
300.041
300.034
300.028
300.024
300.019
300.016
300.013
300.011
300.009
300.007
300.006
300.005
300.004
300.003
300.003
300.002
300.002
300.001
300.001
300.001
300.001
300.001
300
300
300
300
300
300
300
300
300
300
300
300
300
300
300
300
300
300
300
300
300
300
300
300
300
300
300
300
300
300
300
300
300
300
300
300
320.197
318.118
316.223
314.499
312.933
311.515
310.233
309.076
308.035
307.1
306.262
305.512
304.843
304.246
303.717
303.247
302.831
302.464
302.14
301.855
301.606
301.387
301.196
301.029
300.884
300.758
300.648
300.554
300.472
300.402
300.341
300.289
300.245
300.207
300.175
300.147
300.124
300.104
300.087
300.073
300.061
300.051
300.042
300.035
300.029
300.024
300.02
300.016
300.013
300.011
300.009
300.007
300.006
300.005
300.004
300.003
300.003
300.002
300.002
300.001
300.001
300.001
300.001
300.001
300
300
300
300
300
300
300
300
300
300
300
300
300
300
300
300
300
300
300
300
300
300
300
300
300
300
300
300
300
300
300
300
300
300
300
300
320.572
318.455
316.524
314.768
313.173
311.729
310.423
309.245
308.184
307.232
306.378
305.614
304.932
304.325
303.786
303.307
302.884
302.509
302.18
301.89
301.635
301.413
301.218
301.048
300.9
300.772
300.66
300.564
300.481
300.409
300.348
300.295
300.25
300.211
300.178
300.15
300.126
300.106
300.088
300.074
300.062
300.051
300.043
300.036
300.029
300.024
300.02
300.017
300.014
300.011
300.009
300.008
300.006
300.005
300.004
300.003
300.003
300.002
300.002
300.001
300.001
300.001
300.001
300.001
300.001
300
300
300
300
300
300