/*--------------------------------*- C++ -*----------------------------------*\
| =========                 |                                                 |
| \\      /  F ield         | OpenFOAM: The Open Source CFD Toolbox           |
|  \\    /   O peration     | Version:  2406                                  |
|   \\  /    A nd           | Website:  www.openfoam.com                      |
|    \\/     M anipulation  |                                                 |
\*---------------------------------------------------------------------------*/
FoamFile
{
    version     2.0;
    format      ascii;
    arch        "LSB;label=32;scalar=64";
    class       volScalarField;
    location    "150";
    object      T;
}
// * * * * * * * * * * * * * * * * * * * * * * * * * * * * * * * * * * * * * //

dimensions      [0 0 0 1 0 0 0];

internalField   nonuniform List<scalar> 
20000
(
299.654
299.692
299.728
299.762
299.794
299.825
299.854
299.881
299.907
299.931
299.954
299.975
299.995
300.014
300.031
300.047
300.062
300.076
300.088
300.1
300.11
300.12
300.128
300.136
300.143
300.149
300.154
300.159
300.162
300.166
300.168
300.17
300.172
300.173
300.173
300.173
300.173
300.172
300.171
300.17
300.168
300.167
300.165
300.162
300.16
300.157
300.154
300.151
300.148
300.145
300.142
300.138
300.135
300.131
300.128
300.124
300.121
300.117
300.114
300.11
300.106
300.103
300.099
300.096
300.092
300.089
300.086
300.082
300.079
300.076
300.073
300.07
300.067
300.064
300.061
300.058
300.055
300.052
300.049
300.047
300.044
300.041
300.039
300.036
300.034
300.032
300.029
300.027
300.025
300.022
300.02
300.018
300.016
300.014
300.011
300.009
300.007
300.005
300.003
300.001
298.963
299.076
299.183
299.285
299.382
299.474
299.561
299.643
299.721
299.794
299.862
299.926
299.986
300.042
300.094
300.142
300.187
300.228
300.265
300.3
300.331
300.359
300.385
300.408
300.428
300.446
300.462
300.476
300.487
300.497
300.504
300.51
300.515
300.518
300.52
300.52
300.519
300.517
300.514
300.51
300.505
300.5
300.493
300.487
300.479
300.471
300.462
300.454
300.444
300.435
300.425
300.415
300.404
300.394
300.383
300.373
300.362
300.351
300.341
300.33
300.319
300.309
300.298
300.288
300.277
300.267
300.257
300.247
300.237
300.228
300.218
300.209
300.2
300.191
300.182
300.173
300.165
300.156
300.148
300.14
300.132
300.124
300.117
300.109
300.102
300.095
300.088
300.081
300.074
300.067
300.06
300.054
300.047
300.041
300.034
300.028
300.022
300.016
300.009
300.003
298.272
298.46
298.638
298.808
298.97
299.123
299.268
299.405
299.535
299.656
299.77
299.877
299.977
300.07
300.157
300.237
300.311
300.379
300.442
300.499
300.552
300.599
300.642
300.68
300.714
300.744
300.77
300.792
300.812
300.828
300.841
300.851
300.858
300.863
300.866
300.866
300.865
300.862
300.857
300.85
300.842
300.833
300.822
300.811
300.798
300.785
300.771
300.756
300.74
300.724
300.708
300.691
300.674
300.657
300.639
300.621
300.603
300.586
300.568
300.55
300.532
300.514
300.497
300.48
300.462
300.445
300.429
300.412
300.396
300.379
300.364
300.348
300.333
300.318
300.303
300.288
300.274
300.26
300.247
300.233
300.22
300.207
300.195
300.182
300.17
300.158
300.146
300.134
300.123
300.112
300.101
300.09
300.079
300.068
300.057
300.047
300.036
300.026
300.016
300.005
297.582
297.844
298.094
298.332
298.558
298.773
298.976
299.168
299.349
299.519
299.678
299.828
299.968
300.098
300.219
300.331
300.435
300.531
300.619
300.699
300.772
300.838
300.898
300.952
300.999
301.041
301.078
301.109
301.136
301.158
301.176
301.191
301.201
301.208
301.212
301.213
301.211
301.206
301.199
301.19
301.179
301.166
301.151
301.135
301.117
301.099
301.079
301.058
301.036
301.014
300.991
300.967
300.943
300.919
300.894
300.87
300.845
300.82
300.795
300.77
300.745
300.72
300.696
300.671
300.647
300.623
300.6
300.577
300.554
300.531
300.509
300.487
300.466
300.445
300.424
300.404
300.384
300.364
300.345
300.326
300.308
300.29
300.272
300.255
300.238
300.221
300.204
300.188
300.172
300.156
300.141
300.126
300.11
300.095
300.08
300.066
300.051
300.036
300.022
300.007
296.892
297.229
297.551
297.857
298.147
298.423
298.684
298.93
299.163
299.381
299.587
299.779
299.958
300.126
300.282
300.426
300.56
300.682
300.795
300.899
300.992
301.078
301.154
301.223
301.284
301.338
301.385
301.426
301.46
301.489
301.512
301.53
301.544
301.553
301.558
301.559
301.556
301.55
301.541
301.529
301.515
301.498
301.479
301.459
301.436
301.412
301.386
301.36
301.332
301.303
301.273
301.243
301.212
301.181
301.15
301.118
301.086
301.053
301.021
300.989
300.957
300.926
300.894
300.863
300.832
300.801
300.771
300.741
300.712
300.683
300.654
300.626
300.599
300.572
300.545
300.519
300.493
300.468
300.444
300.42
300.396
300.373
300.35
300.328
300.306
300.284
300.263
300.242
300.221
300.201
300.181
300.161
300.142
300.122
300.103
300.084
300.065
300.047
300.028
300.009
296.203
296.615
297.007
297.381
297.736
298.073
298.392
298.693
298.977
299.244
299.495
299.73
299.949
300.154
300.344
300.521
300.684
300.834
300.972
301.098
301.213
301.317
301.41
301.494
301.569
301.635
301.692
301.742
301.784
301.819
301.847
301.87
301.886
301.897
301.903
301.904
301.901
301.894
301.883
301.868
301.851
301.83
301.807
301.782
301.754
301.725
301.694
301.661
301.627
301.592
301.556
301.519
301.481
301.443
301.404
301.365
301.326
301.287
301.248
301.209
301.17
301.131
301.092
301.054
301.016
300.979
300.942
300.905
300.869
300.834
300.799
300.765
300.731
300.698
300.666
300.634
300.603
300.572
300.542
300.513
300.484
300.455
300.428
300.4
300.373
300.347
300.321
300.296
300.27
300.246
300.221
300.197
300.173
300.15
300.126
300.103
300.08
300.057
300.034
300.011
295.514
296.001
296.465
296.907
297.326
297.724
298.101
298.456
298.792
299.107
299.403
299.681
299.94
300.182
300.407
300.615
300.807
300.985
301.148
301.297
301.432
301.555
301.666
301.765
301.853
301.931
301.999
302.057
302.107
302.149
302.182
302.208
302.228
302.241
302.248
302.249
302.245
302.237
302.224
302.207
302.186
302.162
302.135
302.105
302.072
302.038
302.001
301.962
301.922
301.88
301.838
301.794
301.75
301.705
301.659
301.613
301.567
301.52
301.474
301.428
301.382
301.336
301.29
301.245
301.2
301.156
301.113
301.069
301.027
300.985
300.944
300.904
300.864
300.825
300.787
300.749
300.712
300.676
300.64
300.606
300.571
300.538
300.505
300.473
300.441
300.41
300.379
300.349
300.319
300.29
300.261
300.233
300.205
300.177
300.149
300.122
300.094
300.067
300.04
300.013
294.827
295.388
295.924
296.433
296.917
297.375
297.81
298.22
298.606
298.97
299.312
299.632
299.931
300.21
300.469
300.709
300.931
301.136
301.324
301.495
301.652
301.793
301.921
302.035
302.137
302.227
302.305
302.373
302.43
302.478
302.516
302.547
302.569
302.584
302.592
302.594
302.589
302.58
302.565
302.545
302.521
302.493
302.462
302.427
302.39
302.35
302.307
302.263
302.216
302.169
302.119
302.069
302.018
301.966
301.913
301.86
301.807
301.753
301.7
301.646
301.593
301.54
301.488
301.436
301.384
301.333
301.283
301.233
301.184
301.136
301.089
301.042
300.996
300.951
300.907
300.864
300.821
300.779
300.738
300.698
300.659
300.62
300.582
300.545
300.509
300.473
300.437
300.403
300.368
300.335
300.301
300.268
300.236
300.204
300.172
300.14
300.109
300.078
300.047
300.016
294.141
294.777
295.383
295.96
296.508
297.027
297.519
297.984
298.422
298.834
299.221
299.583
299.922
300.237
300.531
300.803
301.055
301.286
301.499
301.694
301.871
302.031
302.176
302.305
302.42
302.522
302.611
302.687
302.752
302.806
302.85
302.884
302.91
302.927
302.936
302.938
302.933
302.922
302.905
302.883
302.855
302.824
302.788
302.749
302.707
302.661
302.613
302.563
302.51
302.456
302.4
302.343
302.285
302.226
302.167
302.107
302.046
301.986
301.925
301.865
301.804
301.745
301.685
301.626
301.568
301.51
301.453
301.397
301.341
301.287
301.233
301.18
301.128
301.077
301.027
300.978
300.93
300.883
300.836
300.791
300.746
300.703
300.66
300.617
300.576
300.535
300.495
300.456
300.417
300.379
300.341
300.304
300.267
300.231
300.195
300.159
300.123
300.088
300.053
300.018
293.457
294.167
294.844
295.488
296.1
296.68
297.229
297.748
298.237
298.698
299.13
299.534
299.913
300.265
300.593
300.897
301.178
301.437
301.674
301.891
302.089
302.268
302.43
302.575
302.703
302.817
302.916
303.001
303.074
303.134
303.183
303.221
303.25
303.268
303.279
303.281
303.275
303.263
303.244
303.219
303.189
303.154
303.114
303.07
303.023
302.972
302.918
302.862
302.804
302.743
302.681
302.617
302.552
302.486
302.42
302.353
302.285
302.218
302.15
302.082
302.015
301.948
301.882
301.816
301.751
301.686
301.623
301.56
301.498
301.437
301.377
301.318
301.26
301.203
301.147
301.093
301.039
300.986
300.934
300.883
300.833
300.785
300.737
300.69
300.643
300.598
300.553
300.509
300.466
300.423
300.381
300.34
300.298
300.258
300.218
300.178
300.138
300.098
300.059
300.02
292.774
293.558
294.306
295.017
295.693
296.334
296.94
297.513
298.053
298.562
299.039
299.486
299.903
300.293
300.655
300.99
301.301
301.586
301.849
302.089
302.307
302.505
302.684
302.843
302.985
303.111
303.22
303.314
303.394
303.461
303.515
303.557
303.589
303.61
303.621
303.623
303.617
303.603
303.583
303.555
303.522
303.483
303.439
303.391
303.338
303.282
303.223
303.161
303.096
303.029
302.96
302.89
302.818
302.746
302.672
302.598
302.524
302.449
302.374
302.3
302.226
302.152
302.078
302.006
301.934
301.862
301.792
301.723
301.654
301.587
301.521
301.456
301.392
301.329
301.267
301.207
301.147
301.089
301.032
300.975
300.92
300.866
300.813
300.761
300.71
300.66
300.611
300.562
300.514
300.467
300.421
300.375
300.33
300.285
300.24
300.196
300.152
300.109
300.065
300.022
292.093
292.951
293.769
294.547
295.287
295.988
296.652
297.279
297.87
298.426
298.948
299.437
299.894
300.32
300.717
301.084
301.423
301.736
302.023
302.286
302.525
302.741
302.936
303.111
303.267
303.404
303.523
303.627
303.714
303.787
303.846
303.893
303.927
303.95
303.962
303.965
303.958
303.943
303.92
303.89
303.854
303.811
303.763
303.71
303.653
303.592
303.527
303.459
303.388
303.315
303.239
303.163
303.084
303.005
302.924
302.843
302.762
302.68
302.598
302.517
302.435
302.354
302.274
302.195
302.116
302.038
301.961
301.885
301.81
301.737
301.664
301.593
301.523
301.454
301.387
301.32
301.255
301.191
301.129
301.067
301.007
300.948
300.89
300.833
300.777
300.722
300.668
300.615
300.563
300.511
300.461
300.41
300.361
300.312
300.263
300.215
300.167
300.119
300.071
300.024
291.414
292.346
293.234
294.079
294.882
295.644
296.364
297.045
297.687
298.291
298.858
299.389
299.885
300.348
300.778
301.177
301.546
301.885
302.197
302.482
302.742
302.977
303.189
303.378
303.547
303.696
303.826
303.938
304.033
304.112
304.177
304.227
304.264
304.289
304.302
304.305
304.298
304.282
304.257
304.224
304.185
304.139
304.086
304.029
303.967
303.9
303.83
303.756
303.679
303.599
303.518
303.434
303.349
303.263
303.175
303.087
302.999
302.91
302.821
302.733
302.644
302.557
302.469
302.383
302.298
302.213
302.129
302.047
301.966
301.886
301.807
301.73
301.654
301.579
301.506
301.434
301.363
301.294
301.226
301.159
301.094
301.03
300.967
300.905
300.844
300.784
300.726
300.668
300.611
300.555
300.5
300.446
300.392
300.338
300.285
300.233
300.181
300.129
300.077
300.026
290.737
291.742
292.7
293.612
294.479
295.3
296.078
296.812
297.505
298.156
298.768
299.341
299.876
300.375
300.839
301.27
301.667
302.034
302.37
302.678
302.958
303.211
303.44
303.645
303.827
303.987
304.128
304.248
304.351
304.437
304.506
304.56
304.6
304.627
304.642
304.645
304.637
304.619
304.593
304.557
304.515
304.465
304.409
304.347
304.28
304.208
304.132
304.052
303.969
303.883
303.795
303.705
303.613
303.52
303.426
303.331
303.235
303.139
303.044
302.948
302.853
302.758
302.664
302.571
302.479
302.387
302.297
302.208
302.121
302.034
301.95
301.866
301.784
301.703
301.624
301.547
301.47
301.396
301.322
301.25
301.18
301.111
301.043
300.976
300.911
300.846
300.783
300.721
300.66
300.599
300.54
300.481
300.423
300.365
300.308
300.251
300.195
300.139
300.083
300.028
290.063
291.141
292.169
293.147
294.077
294.958
295.792
296.58
297.323
298.022
298.678
299.293
299.867
300.403
300.901
301.362
301.789
302.182
302.543
302.873
303.173
303.445
303.691
303.91
304.106
304.278
304.428
304.558
304.668
304.76
304.834
304.892
304.935
304.964
304.98
304.983
304.975
304.956
304.927
304.889
304.843
304.79
304.73
304.663
304.591
304.514
304.433
304.347
304.258
304.166
304.071
303.975
303.876
303.776
303.675
303.573
303.471
303.368
303.265
303.163
303.061
302.959
302.858
302.758
302.659
302.561
302.465
302.369
302.275
302.183
302.092
302.002
301.914
301.827
301.743
301.659
301.578
301.497
301.419
301.342
301.266
301.192
301.119
301.047
300.977
300.908
300.84
300.773
300.708
300.643
300.579
300.516
300.453
300.392
300.33
300.27
300.209
300.149
300.089
300.03
289.39
290.542
291.639
292.684
293.676
294.617
295.507
296.349
297.142
297.888
298.589
299.245
299.858
300.43
300.961
301.454
301.91
302.329
302.715
303.067
303.388
303.678
303.94
304.175
304.383
304.567
304.728
304.866
304.984
305.082
305.161
305.223
305.269
305.3
305.316
305.32
305.311
305.291
305.26
305.22
305.171
305.114
305.05
304.979
304.902
304.819
304.732
304.641
304.546
304.448
304.347
304.244
304.138
304.032
303.924
303.815
303.706
303.596
303.486
303.377
303.268
303.159
303.052
302.945
302.839
302.735
302.631
302.53
302.429
302.33
302.233
302.137
302.043
301.951
301.86
301.772
301.684
301.599
301.515
301.432
301.351
301.272
301.194
301.118
301.043
300.969
300.897
300.826
300.755
300.686
300.618
300.551
300.484
300.418
300.353
300.288
300.223
300.159
300.096
300.032
288.721
289.945
291.111
292.222
293.277
294.277
295.224
296.118
296.961
297.755
298.5
299.197
299.849
300.457
301.022
301.546
302.03
302.476
302.886
303.261
303.602
303.91
304.189
304.438
304.66
304.855
305.026
305.173
305.298
305.402
305.487
305.553
305.602
305.634
305.652
305.656
305.646
305.625
305.592
305.55
305.497
305.437
305.368
305.293
305.211
305.124
305.031
304.934
304.833
304.729
304.621
304.511
304.4
304.286
304.171
304.056
303.939
303.823
303.706
303.59
303.474
303.359
303.244
303.131
303.018
302.907
302.797
302.689
302.582
302.477
302.374
302.272
302.172
302.074
301.978
301.883
301.791
301.7
301.61
301.523
301.437
301.353
301.27
301.189
301.109
301.031
300.954
300.878
300.803
300.73
300.657
300.585
300.515
300.444
300.375
300.306
300.238
300.169
300.102
300.034
288.054
289.35
290.586
291.762
292.879
293.939
294.941
295.889
296.782
297.622
298.411
299.15
299.84
300.484
301.083
301.637
302.15
302.623
303.057
303.453
303.814
304.142
304.437
304.701
304.935
305.142
305.323
305.479
305.612
305.722
305.811
305.881
305.933
305.967
305.986
305.99
305.98
305.957
305.923
305.878
305.822
305.758
305.686
305.606
305.519
305.426
305.328
305.226
305.119
305.008
304.894
304.778
304.66
304.539
304.418
304.295
304.172
304.049
303.925
303.802
303.679
303.557
303.436
303.316
303.197
303.079
302.963
302.848
302.735
302.624
302.514
302.407
302.301
302.197
302.095
301.995
301.896
301.8
301.705
301.613
301.522
301.432
301.345
301.259
301.174
301.091
301.01
300.93
300.851
300.773
300.696
300.62
300.545
300.471
300.397
300.324
300.252
300.179
300.108
300.036
287.39
288.758
290.063
291.304
292.484
293.602
294.66
295.66
296.603
297.49
298.323
299.103
299.831
300.511
301.143
301.728
302.27
302.769
303.226
303.645
304.026
304.372
304.683
304.962
305.21
305.428
305.619
305.784
305.923
306.04
306.134
306.208
306.263
306.299
306.319
306.323
306.312
306.288
306.252
306.204
306.146
306.078
306.002
305.917
305.826
305.728
305.625
305.516
305.403
305.286
305.166
305.044
304.919
304.792
304.663
304.534
304.404
304.274
304.144
304.013
303.884
303.755
303.627
303.5
303.374
303.25
303.127
303.006
302.887
302.77
302.654
302.54
302.429
302.319
302.211
302.106
302.002
301.9
301.8
301.702
301.606
301.512
301.42
301.329
301.24
301.152
301.066
300.981
300.898
300.816
300.735
300.654
300.575
300.497
300.419
300.342
300.266
300.189
300.114
300.038
286.729
288.169
289.542
290.849
292.09
293.267
294.381
295.433
296.425
297.358
298.235
299.056
299.823
300.538
301.203
301.819
302.389
302.914
303.396
303.836
304.237
304.601
304.928
305.222
305.483
305.713
305.913
306.087
306.234
306.356
306.456
306.533
306.591
306.629
306.65
306.654
306.643
306.618
306.58
306.529
306.468
306.397
306.316
306.227
306.131
306.028
305.919
305.805
305.686
305.563
305.437
305.308
305.176
305.043
304.908
304.772
304.635
304.498
304.361
304.224
304.087
303.952
303.817
303.683
303.551
303.42
303.291
303.164
303.038
302.915
302.793
302.673
302.556
302.44
302.327
302.216
302.107
302
301.895
301.792
301.69
301.591
301.494
301.398
301.305
301.212
301.122
301.033
300.945
300.858
300.773
300.689
300.605
300.523
300.441
300.36
300.28
300.199
300.12
300.04
286.072
287.583
289.024
290.395
291.698
292.933
294.102
295.207
296.248
297.227
298.147
299.009
299.814
300.564
301.262
301.909
302.507
303.058
303.564
304.026
304.447
304.829
305.173
305.481
305.754
305.996
306.206
306.388
306.543
306.671
306.775
306.857
306.917
306.958
306.979
306.984
306.972
306.946
306.906
306.853
306.788
306.714
306.629
306.536
306.435
306.327
306.213
306.093
305.968
305.839
305.706
305.571
305.433
305.293
305.151
305.008
304.865
304.721
304.577
304.433
304.29
304.147
304.006
303.866
303.727
303.59
303.454
303.321
303.189
303.059
302.931
302.806
302.683
302.561
302.442
302.326
302.211
302.099
301.988
301.88
301.774
301.67
301.568
301.468
301.369
301.273
301.177
301.084
300.992
300.901
300.811
300.723
300.635
300.549
300.463
300.378
300.293
300.209
300.125
300.042
285.418
287
288.509
289.944
291.308
292.601
293.825
294.981
296.072
297.097
298.06
298.962
299.805
300.591
301.321
301.999
302.625
303.202
303.731
304.215
304.656
305.056
305.416
305.738
306.025
306.277
306.498
306.688
306.85
306.984
307.094
307.179
307.242
307.284
307.307
307.312
307.3
307.272
307.23
307.175
307.107
307.029
306.94
306.843
306.737
306.624
306.504
306.379
306.248
306.113
305.974
305.832
305.688
305.541
305.393
305.243
305.093
304.942
304.792
304.641
304.491
304.342
304.194
304.047
303.902
303.758
303.617
303.477
303.339
303.203
303.069
302.938
302.809
302.682
302.557
302.435
302.315
302.197
302.082
301.969
301.858
301.749
301.642
301.537
301.434
301.332
301.233
301.135
301.038
300.943
300.849
300.757
300.665
300.575
300.485
300.396
300.307
300.219
300.131
300.044
284.767
286.42
287.996
289.496
290.92
292.271
293.55
294.758
295.896
296.968
297.974
298.916
299.796
300.617
301.38
302.088
302.742
303.344
303.898
304.403
304.864
305.281
305.657
305.994
306.293
306.557
306.788
306.987
307.155
307.296
307.41
307.499
307.565
307.609
307.633
307.638
307.625
307.596
307.552
307.495
307.424
307.342
307.25
307.148
307.038
306.919
306.794
306.663
306.527
306.386
306.241
306.093
305.942
305.788
305.633
305.477
305.32
305.163
305.005
304.848
304.692
304.536
304.381
304.228
304.076
303.926
303.778
303.632
303.488
303.346
303.206
303.069
302.934
302.801
302.671
302.543
302.418
302.295
302.175
302.056
301.94
301.827
301.715
301.605
301.498
301.392
301.288
301.185
301.085
300.985
300.887
300.791
300.695
300.6
300.506
300.413
300.321
300.229
300.137
300.046
284.121
285.844
287.486
289.05
290.535
291.943
293.276
294.535
295.722
296.839
297.888
298.87
299.788
300.643
301.439
302.177
302.858
303.486
304.063
304.59
305.07
305.505
305.897
306.248
306.56
306.836
307.076
307.283
307.459
307.606
307.725
307.818
307.886
307.932
307.957
307.962
307.949
307.919
307.873
307.813
307.739
307.654
307.558
307.452
307.336
307.213
307.083
306.946
306.804
306.657
306.506
306.351
306.194
306.034
305.873
305.71
305.546
305.382
305.218
305.054
304.891
304.728
304.567
304.407
304.249
304.093
303.938
303.786
303.636
303.488
303.342
303.199
303.058
302.92
302.785
302.651
302.521
302.393
302.267
302.144
302.023
301.904
301.788
301.673
301.561
301.451
301.342
301.236
301.131
301.027
300.925
300.824
300.724
300.626
300.528
300.431
300.334
300.239
300.143
300.048
283.478
285.271
286.98
288.606
290.152
291.617
293.004
294.314
295.549
296.711
297.802
298.824
299.779
300.669
301.497
302.265
302.974
303.628
304.227
304.776
305.276
305.728
306.136
306.501
306.826
307.112
307.362
307.578
307.761
307.914
308.037
308.134
308.206
308.253
308.279
308.284
308.271
308.239
308.192
308.129
308.053
307.964
307.864
307.753
307.633
307.505
307.369
307.227
307.079
306.926
306.769
306.608
306.445
306.278
306.11
305.941
305.771
305.6
305.429
305.259
305.089
304.92
304.752
304.586
304.421
304.258
304.098
303.939
303.783
303.629
303.477
303.328
303.182
303.038
302.897
302.759
302.623
302.489
302.359
302.23
302.105
301.981
301.86
301.741
301.624
301.51
301.397
301.286
301.176
301.069
300.962
300.857
300.754
300.651
300.549
300.448
300.348
300.248
300.149
300.05
282.839
284.701
286.477
288.166
289.771
291.293
292.733
294.094
295.377
296.584
297.717
298.779
299.771
300.695
301.555
302.352
303.089
303.768
304.391
304.961
305.479
305.95
306.373
306.752
307.09
307.387
307.647
307.871
308.061
308.219
308.348
308.448
308.523
308.572
308.599
308.605
308.59
308.558
308.508
308.443
308.364
308.272
308.168
308.053
307.928
307.795
307.654
307.507
307.353
307.194
307.031
306.864
306.694
306.521
306.346
306.17
305.994
305.816
305.639
305.462
305.285
305.11
304.936
304.763
304.592
304.423
304.256
304.091
303.929
303.769
303.612
303.457
303.305
303.156
303.009
302.865
302.724
302.586
302.45
302.317
302.186
302.058
301.932
301.808
301.687
301.568
301.451
301.335
301.222
301.11
301
300.891
300.783
300.676
300.571
300.466
300.361
300.258
300.155
300.051
282.205
284.136
285.977
287.728
289.393
290.971
292.465
293.876
295.206
296.458
297.633
298.733
299.762
300.721
301.613
302.439
303.203
303.907
304.553
305.144
305.682
306.169
306.609
307.002
307.352
307.66
307.93
308.162
308.359
308.523
308.657
308.761
308.838
308.889
308.917
308.923
308.908
308.874
308.823
308.755
308.673
308.578
308.47
308.351
308.221
308.083
307.937
307.784
307.625
307.46
307.291
307.118
306.941
306.762
306.581
306.399
306.215
306.031
305.847
305.664
305.481
305.299
305.118
304.939
304.762
304.587
304.413
304.243
304.074
303.909
303.745
303.585
303.427
303.272
303.12
302.971
302.825
302.681
302.54
302.402
302.267
302.134
302.003
301.875
301.749
301.626
301.504
301.385
301.267
301.151
301.037
300.924
300.812
300.701
300.592
300.483
300.375
300.267
300.16
300.053
281.575
283.574
285.48
287.294
289.017
290.651
292.198
293.659
295.036
296.332
297.549
298.689
299.754
300.747
301.67
302.526
303.317
304.045
304.714
305.326
305.883
306.388
306.843
307.25
307.612
307.932
308.21
308.451
308.655
308.825
308.963
309.071
309.151
309.204
309.233
309.239
309.223
309.188
309.135
309.065
308.98
308.881
308.77
308.646
308.513
308.37
308.218
308.06
307.895
307.724
307.549
307.37
307.187
307.002
306.814
306.625
306.435
306.245
306.054
305.864
305.675
305.487
305.299
305.114
304.93
304.749
304.57
304.393
304.219
304.047
303.878
303.712
303.549
303.388
303.231
303.076
302.925
302.776
302.63
302.487
302.347
302.209
302.074
301.942
301.811
301.683
301.558
301.434
301.312
301.192
301.073
300.956
300.841
300.726
300.613
300.5
300.388
300.277
300.166
300.055
280.949
283.016
284.987
286.863
288.644
290.334
291.933
293.444
294.868
296.208
297.466
298.644
299.745
300.772
301.726
302.611
303.429
304.183
304.874
305.507
306.083
306.605
307.075
307.496
307.871
308.201
308.489
308.738
308.949
309.125
309.267
309.379
309.461
309.516
309.546
309.552
309.536
309.5
309.445
309.373
309.285
309.183
309.067
308.94
308.802
308.654
308.497
308.333
308.163
307.986
307.805
307.62
307.431
307.239
307.045
306.85
306.654
306.457
306.26
306.063
305.868
305.673
305.479
305.288
305.098
304.91
304.725
304.542
304.362
304.184
304.01
303.838
303.669
303.503
303.341
303.181
303.024
302.871
302.72
302.572
302.427
302.284
302.145
302.008
301.873
301.741
301.61
301.482
301.356
301.232
301.11
300.989
300.869
300.751
300.633
300.517
300.401
300.286
300.172
300.057
280.329
282.463
284.498
286.435
288.274
290.019
291.67
293.23
294.701
296.084
297.383
298.6
299.737
300.797
301.783
302.696
303.541
304.319
305.033
305.686
306.281
306.82
307.306
307.74
308.127
308.468
308.766
309.022
309.24
309.422
309.569
309.685
309.77
309.827
309.857
309.864
309.847
309.81
309.753
309.679
309.588
309.482
309.363
309.231
309.088
308.936
308.774
308.605
308.429
308.247
308.06
307.868
307.673
307.475
307.275
307.073
306.871
306.667
306.464
306.261
306.059
305.858
305.658
305.46
305.264
305.07
304.879
304.69
304.504
304.321
304.14
303.963
303.789
303.618
303.45
303.285
303.123
302.964
302.808
302.656
302.506
302.359
302.215
302.073
301.934
301.797
301.663
301.531
301.401
301.272
301.146
301.021
300.897
300.775
300.654
300.534
300.414
300.296
300.177
300.059
279.713
281.914
284.012
286.01
287.907
289.706
291.409
293.018
294.535
295.962
297.301
298.556
299.729
300.822
301.838
302.781
303.652
304.454
305.191
305.865
306.478
307.034
307.534
307.983
308.382
308.733
309.04
309.305
309.53
309.717
309.869
309.988
310.076
310.134
310.166
310.172
310.156
310.117
310.059
309.982
309.888
309.779
309.656
309.52
309.373
309.216
309.049
308.874
308.693
308.505
308.312
308.114
307.913
307.709
307.503
307.295
307.086
306.876
306.666
306.457
306.248
306.041
305.835
305.631
305.429
305.229
305.032
304.837
304.645
304.456
304.27
304.087
303.907
303.731
303.558
303.387
303.221
303.057
302.896
302.739
302.584
302.433
302.284
302.138
301.994
301.854
301.715
301.579
301.444
301.312
301.182
301.053
300.925
300.799
300.674
300.55
300.427
300.305
300.183
300.061
279.102
281.369
283.531
285.588
287.543
289.396
291.151
292.808
294.37
295.84
297.22
298.513
299.721
300.847
301.894
302.865
303.762
304.588
305.347
306.041
306.673
307.245
307.761
308.223
308.634
308.996
309.312
309.585
309.817
310.01
310.166
310.289
310.379
310.439
310.472
310.479
310.461
310.422
310.361
310.282
310.186
310.073
309.947
309.807
309.655
309.493
309.322
309.142
308.955
308.761
308.562
308.359
308.152
307.941
307.729
307.514
307.299
307.083
306.867
306.651
306.437
306.223
306.011
305.801
305.592
305.386
305.183
304.983
304.785
304.59
304.399
304.21
304.025
303.843
303.665
303.489
303.318
303.149
302.984
302.821
302.662
302.506
302.353
302.202
302.055
301.909
301.767
301.626
301.488
301.352
301.217
301.085
300.953
300.823
300.695
300.567
300.44
300.314
300.188
300.063
278.496
280.829
283.054
285.171
287.182
289.089
290.894
292.599
294.207
295.719
297.139
298.47
299.713
300.871
301.949
302.948
303.871
304.721
305.502
306.216
306.866
307.455
307.986
308.462
308.884
309.257
309.582
309.863
310.101
310.3
310.461
310.587
310.68
310.742
310.776
310.782
310.765
310.724
310.662
310.58
310.481
310.365
310.235
310.091
309.935
309.768
309.592
309.407
309.214
309.015
308.81
308.601
308.388
308.172
307.953
307.732
307.511
307.288
307.066
306.844
306.623
306.403
306.185
305.969
305.754
305.543
305.333
305.127
304.924
304.723
304.526
304.332
304.142
303.955
303.771
303.591
303.414
303.24
303.07
302.903
302.739
302.579
302.421
302.266
302.114
301.965
301.818
301.673
301.531
301.391
301.253
301.116
300.981
300.847
300.715
300.584
300.453
300.323
300.194
300.065
277.895
280.294
282.58
284.757
286.824
288.784
290.64
292.393
294.045
295.6
297.059
298.427
299.705
300.896
302.003
303.03
303.979
304.853
305.656
306.39
307.058
307.664
308.209
308.698
309.132
309.516
309.85
310.138
310.383
310.587
310.753
310.882
310.978
311.042
311.077
311.084
311.065
311.023
310.959
310.876
310.774
310.655
310.521
310.373
310.213
310.041
309.86
309.669
309.471
309.267
309.056
308.841
308.622
308.4
308.175
307.948
307.72
307.492
307.263
307.035
306.808
306.582
306.358
306.135
305.915
305.697
305.482
305.27
305.061
304.855
304.652
304.453
304.257
304.065
303.876
303.691
303.509
303.331
303.156
302.984
302.816
302.651
302.489
302.329
302.173
302.02
301.869
301.72
301.574
301.43
301.288
301.147
301.008
300.871
300.735
300.6
300.466
300.332
300.199
300.066
277.3
279.763
282.112
284.346
286.469
288.482
290.388
292.188
293.885
295.481
296.98
298.384
299.697
300.92
302.057
303.111
304.086
304.984
305.808
306.562
307.248
307.87
308.43
308.932
309.378
309.772
310.115
310.411
310.663
310.872
311.042
311.175
311.274
311.339
311.375
311.382
311.363
311.32
311.254
311.169
311.064
310.942
310.804
310.652
310.487
310.311
310.125
309.93
309.726
309.516
309.3
309.079
308.854
308.626
308.395
308.162
307.928
307.694
307.459
307.225
306.991
306.759
306.529
306.3
306.074
305.851
305.63
305.412
305.197
304.986
304.778
304.573
304.372
304.174
303.981
303.79
303.603
303.42
303.241
303.064
302.892
302.722
302.556
302.392
302.232
302.074
301.919
301.766
301.616
301.468
301.322
301.178
301.036
300.894
300.755
300.616
300.478
300.341
300.204
300.068
276.711
279.238
281.647
283.94
286.118
288.183
290.138
291.985
293.726
295.364
296.902
298.342
299.689
300.944
302.11
303.192
304.192
305.113
305.959
306.732
307.436
308.074
308.649
309.164
309.622
310.025
310.378
310.682
310.94
311.155
311.329
311.466
311.566
311.634
311.67
311.677
311.658
311.614
311.547
311.459
311.351
311.226
311.085
310.929
310.76
310.579
310.388
310.187
309.979
309.763
309.542
309.315
309.084
308.85
308.613
308.374
308.134
307.893
307.653
307.412
307.173
306.935
306.698
306.464
306.232
306.003
305.776
305.553
305.332
305.115
304.902
304.692
304.485
304.283
304.084
303.889
303.697
303.509
303.325
303.144
302.967
302.793
302.622
302.454
302.29
302.128
301.969
301.812
301.658
301.506
301.357
301.209
301.062
300.918
300.774
300.632
300.491
300.35
300.21
300.07
276.127
278.717
281.187
283.537
285.77
287.887
289.891
291.784
293.569
295.248
296.824
298.301
299.681
300.967
302.163
303.272
304.297
305.241
306.108
306.901
307.623
308.277
308.866
309.394
309.863
310.277
310.638
310.949
311.214
311.434
311.613
311.753
311.856
311.925
311.963
311.97
311.95
311.905
311.836
311.746
311.635
311.507
311.362
311.203
311.029
310.844
310.648
310.443
310.229
310.008
309.781
309.548
309.312
309.072
308.829
308.584
308.338
308.091
307.844
307.598
307.353
307.109
306.866
306.626
306.388
306.153
305.921
305.692
305.466
305.243
305.025
304.809
304.598
304.39
304.186
303.986
303.79
303.597
303.408
303.223
303.041
302.863
302.688
302.516
302.347
302.181
302.018
301.858
301.7