/*--------------------------------*- C++ -*----------------------------------*\
| =========                 |                                                 |
| \\      /  F ield         | OpenFOAM: The Open Source CFD Toolbox           |
|  \\    /   O peration     | Version:  2406                                  |
|   \\  /    A nd           | Website:  www.openfoam.com                      |
|    \\/     M anipulation  |                                                 |
\*---------------------------------------------------------------------------*/
FoamFile
{
    version     2.0;
    format      ascii;
    arch        "LSB;label=32;scalar=64";
    class       volScalarField;
    location    "200";
    object      T;
}
// * * * * * * * * * * * * * * * * * * * * * * * * * * * * * * * * * * * * * //

dimensions      [0 0 0 1 0 0 0];

internalField   nonuniform List<scalar> 
20000
(
299.566
299.567
299.57
299.573
299.577
299.583
299.589
299.596
299.603
299.611
299.62
299.629
299.638
299.648
299.658
299.669
299.679
299.69
299.701
299.712
299.723
299.734
299.745
299.756
299.767
299.778
299.789
299.799
299.81
299.82
299.83
299.84
299.85
299.859
299.868
299.877
299.886
299.894
299.903
299.911
299.918
299.926
299.933
299.94
299.946
299.952
299.958
299.964
299.97
299.975
299.98
299.984
299.989
299.993
299.997
300
300.004
300.007
300.01
300.013
300.015
300.017
300.019
300.021
300.023
300.024
300.026
300.027
300.028
300.028
300.029
300.029
300.03
300.03
300.03
300.03
300.029
300.029
300.029
300.028
300.027
300.026
300.025
300.024
300.023
300.022
300.021
300.02
300.018
300.017
300.015
300.014
300.012
300.011
300.009
300.008
300.006
300.004
300.003
300.001
298.698
298.702
298.709
298.719
298.733
298.748
298.767
298.787
298.81
298.834
298.86
298.887
298.915
298.945
298.975
299.006
299.038
299.07
299.103
299.136
299.169
299.202
299.236
299.269
299.301
299.334
299.366
299.398
299.429
299.46
299.49
299.52
299.549
299.577
299.605
299.632
299.658
299.683
299.708
299.732
299.755
299.777
299.798
299.819
299.838
299.857
299.875
299.892
299.909
299.924
299.939
299.953
299.966
299.979
299.99
300.001
300.011
300.021
300.03
300.038
300.045
300.052
300.058
300.064
300.069
300.073
300.077
300.08
300.083
300.085
300.087
300.088
300.089
300.089
300.089
300.089
300.088
300.087
300.085
300.084
300.082
300.079
300.076
300.073
300.07
300.067
300.063
300.059
300.055
300.051
300.046
300.042
300.037
300.033
300.028
300.023
300.018
300.013
300.008
300.003
297.831
297.837
297.849
297.866
297.888
297.914
297.945
297.979
298.016
298.057
298.1
298.145
298.192
298.242
298.292
298.344
298.397
298.451
298.506
298.56
298.616
298.671
298.726
298.781
298.836
298.89
298.944
298.997
299.049
299.1
299.15
299.2
299.248
299.295
299.342
299.386
299.43
299.472
299.513
299.553
299.591
299.628
299.664
299.698
299.731
299.762
299.792
299.821
299.848
299.874
299.898
299.922
299.944
299.964
299.984
300.002
300.019
300.035
300.049
300.063
300.075
300.087
300.097
300.106
300.114
300.122
300.128
300.134
300.138
300.142
300.145
300.147
300.148
300.149
300.149
300.148
300.147
300.145
300.142
300.139
300.136
300.132
300.127
300.122
300.117
300.111
300.105
300.099
300.092
300.085
300.077
300.07
300.062
300.054
300.046
300.038
300.03
300.021
300.013
300.004
296.964
296.972
296.989
297.013
297.044
297.081
297.123
297.171
297.224
297.28
297.34
297.404
297.47
297.539
297.61
297.683
297.757
297.832
297.908
297.985
298.062
298.14
298.217
298.294
298.37
298.446
298.521
298.595
298.669
298.74
298.811
298.88
298.948
299.014
299.078
299.141
299.202
299.261
299.319
299.374
299.428
299.479
299.529
299.577
299.623
299.667
299.709
299.749
299.787
299.823
299.858
299.89
299.921
299.95
299.977
300.003
300.027
300.049
300.069
300.088
300.106
300.121
300.136
300.149
300.16
300.17
300.179
300.187
300.193
300.199
300.203
300.206
300.208
300.208
300.208
300.207
300.206
300.203
300.199
300.195
300.19
300.184
300.178
300.171
300.164
300.156
300.147
300.138
300.128
300.119
300.108
300.098
300.087
300.076
300.065
300.053
300.041
300.03
300.018
300.006
296.098
296.109
296.13
296.161
296.201
296.248
296.303
296.364
296.431
296.504
296.581
296.663
296.748
296.837
296.928
297.021
297.117
297.214
297.312
297.41
297.51
297.609
297.708
297.807
297.906
298.003
298.1
298.195
298.289
298.381
298.472
298.561
298.648
298.733
298.815
298.896
298.974
299.051
299.124
299.196
299.264
299.331
299.395
299.456
299.515
299.572
299.626
299.677
299.726
299.773
299.817
299.859
299.899
299.936
299.971
300.004
300.034
300.063
300.089
300.113
300.136
300.156
300.174
300.191
300.206
300.219
300.23
300.24
300.248
300.255
300.26
300.264
300.267
300.268
300.268
300.267
300.264
300.261
300.256
300.251
300.244
300.237
300.229
300.22
300.21
300.2
300.189
300.177
300.165
300.152
300.139
300.126
300.112
300.098
300.083
300.068
300.053
300.038
300.023
300.008
295.232
295.246
295.272
295.31
295.358
295.416
295.483
295.558
295.64
295.729
295.823
295.923
296.027
296.135
296.247
296.361
296.477
296.596
296.715
296.836
296.957
297.079
297.2
297.321
297.441
297.56
297.678
297.795
297.909
298.022
298.133
298.241
298.348
298.452
298.553
298.651
298.747
298.84
298.93
299.017
299.101
299.183
299.261
299.336
299.408
299.477
299.543
299.606
299.666
299.723
299.777
299.828
299.876
299.922
299.965
300.005
300.042
300.077
300.109
300.138
300.166
300.191
300.213
300.233
300.252
300.268
300.282
300.294
300.304
300.312
300.318
300.323
300.326
300.327
300.327
300.326
300.323
300.319
300.313
300.306
300.299
300.29
300.28
300.269
300.257
300.244
300.231
300.217
300.202
300.186
300.17
300.154
300.137
300.119
300.101
300.083
300.065
300.047
300.028
300.009
294.368
294.384
294.415
294.46
294.517
294.585
294.664
294.753
294.85
294.955
295.066
295.184
295.307
295.435
295.566
295.701
295.839
295.979
296.12
296.263
296.406
296.549
296.693
296.835
296.977
297.118
297.257
297.395
297.53
297.664
297.795
297.923
298.048
298.171
298.29
298.407
298.52
298.63
298.736
298.839
298.939
299.034
299.127
299.215
299.3
299.382
299.46
299.534
299.605
299.672
299.736
299.797
299.854
299.908
299.958
300.005
300.049
300.09
300.128
300.164
300.196
300.225
300.252
300.276
300.297
300.316
300.333
300.347
300.359
300.368
300.376
300.381
300.385
300.387
300.387
300.385
300.381
300.376
300.37
300.362
300.353
300.342
300.33
300.317
300.303
300.288
300.273
300.256
300.238
300.22
300.201
300.181
300.161
300.141
300.12
300.098
300.077
300.055
300.033
300.011
293.506
293.524
293.56
293.611
293.677
293.756
293.847
293.949
294.061
294.182
294.311
294.447
294.588
294.736
294.887
295.043
295.202
295.363
295.526
295.69
295.855
296.021
296.186
296.351
296.514
296.677
296.837
296.996
297.152
297.306
297.457
297.605
297.749
297.891
298.029
298.163
298.293
298.42
298.543
298.661
298.776
298.886
298.993
299.095
299.193
299.287
299.377
299.463
299.545
299.622
299.696
299.766
299.831
299.893
299.952
300.006
300.057
300.104
300.148
300.189
300.226
300.26
300.29
300.318
300.343
300.364
300.383
300.4
300.414
300.425
300.433
300.44
300.444
300.446
300.446
300.444
300.44
300.434
300.427
300.417
300.407
300.394
300.381
300.366
300.35
300.333
300.314
300.295
300.275
300.254
300.232
300.209
300.186
300.162
300.138
300.114
300.089
300.063
300.038
300.013
292.645
292.666
292.706
292.764
292.839
292.928
293.031
293.147
293.274
293.411
293.556
293.71
293.871
294.038
294.209
294.386
294.565
294.748
294.933
295.119
295.306
295.493
295.68
295.867
296.052
296.236
296.418
296.597
296.774
296.949
297.119
297.287
297.451
297.611
297.767
297.919
298.067
298.21
298.349
298.484
298.614
298.739
298.859
298.975
299.086
299.193
299.295
299.392
299.484
299.572
299.656
299.735
299.809
299.879
299.945
300.007
300.065
300.118
300.168
300.214
300.256
300.294
300.329
300.36
300.388
300.413
300.434
300.453
300.468
300.481
300.491
300.498
300.503
300.505
300.505
300.503
300.498
300.492
300.483
300.473
300.461
300.447
300.431
300.415
300.396
300.377
300.356
300.334
300.311
300.287
300.262
300.237
300.211
300.184
300.156
300.129
300.1
300.072
300.043
300.014
291.785
291.809
291.854
291.919
292.002
292.102
292.217
292.346
292.488
292.641
292.804
292.975
293.155
293.341
293.533
293.73
293.931
294.134
294.341
294.549
294.757
294.967
295.176
295.384
295.591
295.796
295.999
296.2
296.398
296.592
296.783
296.97
297.153
297.332
297.506
297.676
297.841
298.001
298.157
298.307
298.452
298.591
298.726
298.855
298.98
299.099
299.212
299.321
299.424
299.522
299.615
299.704
299.787
299.865
299.939
300.008
300.072
300.132
300.187
300.239
300.285
300.328
300.367
300.402
300.433
300.461
300.485
300.506
300.523
300.537
300.548
300.556
300.562
300.564
300.564
300.561
300.556
300.549
300.54
300.528
300.514
300.499
300.482
300.463
300.443
300.421
300.398
300.373
300.347
300.321
300.293
300.265
300.235
300.205
300.175
300.144
300.112
300.08
300.048
300.016
290.928
290.954
291.004
291.075
291.167
291.278
291.405
291.548
291.704
291.873
292.053
292.242
292.441
292.646
292.858
293.075
293.297
293.522
293.75
293.98
294.21
294.441
294.672
294.902
295.131
295.358
295.582
295.803
296.022
296.236
296.447
296.654
296.856
297.054
297.246
297.434
297.616
297.793
297.964
298.13
298.29
298.444
298.593
298.736
298.873
299.004
299.13
299.25
299.364
299.472
299.575
299.673
299.765
299.851
299.932
300.009
300.08
300.146
300.207
300.263
300.315
300.363
300.406
300.444
300.479
300.509
300.536
300.558
300.578
300.593
300.605
300.614
300.62
300.623
300.623
300.62
300.614
300.606
300.596
300.583
300.568
300.551
300.532
300.511
300.489
300.465
300.439
300.412
300.384
300.354
300.324
300.292
300.26
300.227
300.193
300.159
300.124
300.089
300.053
300.018
290.073
290.101
290.156
290.234
290.335
290.456
290.595
290.751
290.922
291.107
291.304
291.511
291.728
291.953
292.185
292.423
292.665
292.912
293.161
293.412
293.665
293.918
294.17
294.422
294.672
294.92
295.166
295.408
295.647
295.882
296.112
296.339
296.56
296.776
296.987
297.192
297.391
297.585
297.772
297.954
298.129
298.298
298.461
298.617
298.767
298.911
299.048
299.179
299.304
299.423
299.535
299.642
299.742
299.837
299.926
300.009
300.087
300.159
300.226
300.288
300.345
300.397
300.444
300.486
300.524
300.557
300.586
300.611
300.632
300.649
300.663
300.672
300.679
300.682
300.682
300.678
300.672
300.663
300.652
300.638
300.622
300.603
300.582
300.559
300.535
300.508
300.48
300.451
300.42
300.388
300.354
300.32
300.284
300.248
300.211
300.174
300.135
300.097
300.058
300.019
289.221
289.251
289.31
289.396
289.505
289.636
289.787
289.957
290.143
290.343
290.557
290.782
291.018
291.262
291.514
291.772
292.036
292.303
292.574
292.847
293.121
293.395
293.67
293.943
294.214
294.484
294.75
295.014
295.273
295.528
295.779
296.024
296.264
296.499
296.728
296.951
297.167
297.377
297.581
297.778
297.968
298.152
298.328
298.498
298.661
298.817
298.966
299.109
299.244
299.373
299.495
299.611
299.72
299.823
299.92
300.01
300.095
300.173
300.246
300.313
300.375
300.431
300.482
300.528
300.569
300.605
300.637
300.664
300.686
300.705
300.719
300.73
300.737
300.74
300.74
300.737
300.73
300.72
300.708
300.693
300.675
300.655
300.632
300.608
300.581
300.552
300.522
300.49
300.456
300.421
300.385
300.347
300.309
300.269
300.229
300.188
300.147
300.105
300.063
300.021
288.371
288.404
288.468
288.559
288.677
288.819
288.982
289.165
289.365
289.582
289.812
290.055
290.31
290.573
290.845
291.123
291.408
291.696
291.988
292.283
292.578
292.875
293.17
293.465
293.758
294.049
294.336
294.62
294.9
295.175
295.446
295.711
295.97
296.223
296.47
296.71
296.944
297.171
297.39
297.603
297.808
298.006
298.197
298.38
298.555
298.724
298.885
299.038
299.185
299.324
299.456
299.58
299.698
299.809
299.913
300.011
300.102
300.187
300.265
300.338
300.404
300.465
300.52
300.569
300.614
300.653
300.687
300.716
300.74
300.76
300.776
300.788
300.795
300.799
300.798
300.795
300.788
300.777
300.764
300.747
300.728
300.706
300.682
300.655
300.627
300.596
300.563
300.528
300.492
300.454
300.415
300.375
300.333
300.291
300.247
300.203
300.159
300.114
300.068
300.023
287.524
287.559
287.628
287.726
287.853
288.005
288.18
288.376
288.591
288.823
289.07
289.331
289.604
289.887
290.178
290.477
290.782
291.091
291.405
291.72
292.038
292.356
292.673
292.989
293.304
293.615
293.924
294.229
294.529
294.824
295.114
295.398
295.676
295.948
296.213
296.471
296.721
296.964
297.2
297.428
297.648
297.861
298.065
298.262
298.45
298.631
298.804
298.968
299.125
299.274
299.416
299.55
299.676
299.795
299.907
300.012
300.11
300.2
300.285
300.362
300.434
300.499
300.558
300.611
300.658
300.7
300.737
300.768
300.794
300.816
300.833
300.845
300.853
300.857
300.857
300.853
300.845
300.834
300.819
300.802
300.781
300.758
300.732
300.703
300.672
300.639
300.604
300.567
300.528
300.487
300.445
300.402
300.357
300.312
300.265
300.218
300.17
300.122
300.073
300.024
286.68
286.718
286.791
286.896
287.031
287.193
287.38
287.589
287.819
288.067
288.331
288.609
288.901
289.202
289.514
289.833
290.158
290.489
290.823
291.16
291.499
291.838
292.177
292.515
292.851
293.184
293.513
293.838
294.159
294.474
294.784
295.087
295.384
295.674
295.956
296.232
296.499
296.759
297.011
297.254
297.489
297.716
297.934
298.144
298.345
298.538
298.723
298.899
299.066
299.225
299.376
299.519
299.654
299.781
299.901
300.013
300.117
300.214
300.304
300.387
300.463
300.532
300.595
300.652
300.703
300.748
300.787
300.82
300.848
300.871
300.889
300.902
300.911
300.915
300.915
300.91
300.902
300.89
300.875
300.856
300.834
300.809
300.781
300.751
300.718
300.682
300.645
300.605
300.563
300.52
300.475
300.429
300.382
300.333
300.283
300.233
300.182
300.13
300.078
300.026
285.839
285.879
285.957
286.069
286.213
286.385
286.584
286.806
287.05
287.314
287.595
287.891
288.2
288.521
288.852
289.191
289.537
289.889
290.244
290.603
290.963
291.323
291.684
292.043
292.4
292.753
293.104
293.449
293.79
294.125
294.454
294.777
295.092
295.401
295.701
295.994
296.278
296.555
296.822
297.081
297.331
297.572
297.804
298.027
298.241
298.446
298.642
298.829
299.007
299.176
299.337
299.489
299.633
299.768
299.895
300.013
300.124
300.227
300.323
300.411
300.492
300.566
300.633
300.693
300.747
300.795
300.836
300.872
300.902
300.926
300.945
300.959
300.968
300.972
300.972
300.968
300.959
300.946
300.93
300.91
300.887
300.86
300.831
300.798
300.763
300.725
300.685
300.643
300.599
300.553
300.505
300.456
300.406
300.354
300.301
300.248
300.193
300.138
300.083
300.028
285.002
285.045
285.127
285.245
285.397
285.58
285.791
286.026
286.285
286.564
286.861
287.175
287.502
287.842
288.193
288.552
288.919
289.291
289.667
290.047
290.428
290.81
291.192
291.572
291.95
292.325
292.696
293.062
293.423
293.778
294.126
294.468
294.802
295.129
295.447
295.757
296.058
296.351
296.634
296.908
297.173
297.428
297.674
297.91
298.137
298.354
298.562
298.76
298.948
299.128
299.298
299.459
299.611
299.754
299.888
300.014
300.132
300.241
300.342
300.436
300.521
300.599
300.67
300.734
300.791
300.842
300.886
300.923
300.955
300.981
301.001
301.016
301.025
301.03
301.03
301.025
301.016
301.002
300.985
300.964
300.939
300.911
300.88
300.845
300.808
300.768
300.726
300.681
300.634
300.586
300.535
300.483
300.43
300.375
300.319
300.262
300.205
300.147
300.088
300.029
284.168
284.214
284.3
284.426
284.586
284.779
285.001
285.25
285.523
285.817
286.131
286.462
286.808
287.167
287.537
287.916
288.303
288.696
289.093
289.494
289.896
290.3
290.703
291.104
291.503
291.899
292.29
292.677
293.057
293.432
293.8
294.161
294.513
294.858
295.194
295.521
295.839
296.148
296.447
296.737
297.016
297.285
297.545
297.794
298.033
298.263
298.482
298.691
298.89
299.079
299.259
299.429
299.589
299.74
299.882
300.015
300.139
300.254
300.361
300.46
300.55
300.633
300.708
300.775
300.835
300.888
300.935
300.975
301.008
301.035
301.057
301.072
301.082
301.087
301.087
301.082
301.072
301.058
301.04
301.017
300.991
300.962
300.929
300.892
300.853
300.811
300.766
300.719
300.67
300.618
300.565
300.51
300.453
300.396
300.337
300.277
300.216
300.155
300.093
300.031
283.339
283.386
283.478
283.609
283.778
283.981
284.215
284.477
284.764
285.074
285.404
285.753
286.117
286.494
286.884
287.283
287.69
288.103
288.522
288.943
289.367
289.791
290.215
290.638
291.058
291.474
291.886
292.293
292.694
293.088
293.475
293.855
294.226
294.589
294.942
295.287
295.621
295.946
296.261
296.566
296.86
297.143
297.416
297.679
297.93
298.172
298.402
298.622
298.832
299.031
299.22
299.399
299.568
299.727
299.876
300.016
300.146
300.268
300.38
300.484
300.579
300.666
300.745
300.816
300.879
300.935
300.984
301.026
301.061
301.09
301.112
301.128
301.139
301.144
301.144
301.139
301.128
301.114
301.094
301.071
301.043
301.012
300.977
300.939
300.898
300.853
300.806
300.757
300.705
300.651
300.594
300.537
300.477
300.416
300.354
300.291
300.227
300.163
300.098
300.033
282.514
282.563
282.659
282.797
282.975
283.188
283.433
283.708
284.009
284.335
284.681
285.047
285.429
285.825
286.234
286.653
287.08
287.514
287.953
288.396
288.84
289.286
289.731
290.174
290.615
291.052
291.484
291.911
292.332
292.746
293.152
293.55
293.94
294.321
294.692
295.053
295.405
295.745
296.076
296.395
296.704
297.002
297.288
297.564
297.828
298.081
298.323
298.554
298.774
298.983
299.181
299.369
299.546
299.713
299.87
300.017
300.154
300.281
300.399
300.508
300.608
300.699
300.782
300.856
300.923
300.981
301.033
301.076
301.113
301.143
301.167
301.184
301.195
301.201
301.201
301.195
301.184
301.169
301.148
301.124
301.095
301.062
301.026
300.986
300.942
300.896
300.846
300.794
300.74
300.683
300.624
300.563
300.501
300.437
300.372
300.306
300.239
300.171
300.103
300.034
281.692
281.745
281.845
281.99
282.175
282.398
282.655
282.943
283.258
283.599
283.962
284.345
284.745
285.16
285.587
286.026
286.473
286.928
287.387
287.851
288.316
288.783
289.248
289.713
290.174
290.631
291.084
291.531
291.972
292.405
292.83
293.247
293.655
294.054
294.443
294.821
295.189
295.546
295.892
296.226
296.549
296.861
297.161
297.449
297.726
297.991
298.244
298.486
298.716
298.935
299.143
299.339
299.525
299.7
299.864
300.017
300.161
300.294
300.418
300.532
300.636
300.732
300.818
300.896
300.966
301.027
301.081
301.127
301.166
301.197
301.222
301.24
301.252
301.257
301.257
301.251
301.24
301.224
301.202
301.177
301.146
301.112
301.074
301.032
300.986
300.938
300.886
300.831
300.774
300.715
300.653
300.59
300.524
300.458
300.389
300.32
300.25
300.179
300.108
300.036
280.876
280.93
281.035
281.186
281.38
281.613
281.881
282.182
282.512
282.867
283.247
283.646
284.064
284.498
284.945
285.403
285.87
286.345
286.825
287.309
287.795
288.282
288.769
289.254
289.736
290.214
290.686
291.153
291.614
292.066
292.511
292.946
293.372
293.789
294.195
294.59
294.974
295.347
295.708
296.058
296.395
296.721
297.034
297.335
297.624
297.901
298.166
298.419
298.659
298.888
299.105
299.31
299.504
299.686
299.858
300.018
300.168
300.307
300.436
300.555
300.665
300.764
300.855
300.936
301.009
301.073
301.129
301.177
301.218
301.251
301.276
301.295
301.307
301.313
301.313
301.307
301.295
301.278
301.256
301.229
301.198
301.162
301.122
301.078
301.03
300.979
300.925
300.869
300.809
300.747
300.682
300.616
300.548
300.478
300.407
300.334
300.261
300.187
300.112
300.038
280.064
280.121
280.23
280.388
280.59
280.832
281.112
281.425
281.769
282.14
282.535
282.952
283.388
283.84
284.305
284.783
285.27
285.765
286.265
286.77
287.277
287.785
288.292
288.798
289.3
289.798
290.291
290.778
291.257
291.729
292.193
292.647
293.091
293.525
293.948
294.36
294.761
295.149
295.526
295.89
296.242
296.582
296.908
297.222
297.524
297.812
298.088
298.351
298.602
298.841
299.067
299.281
299.483
299.673
299.852
300.019
300.175
300.32
300.455
300.579
300.693
300.797
300.891
300.976
301.052
301.119
301.177
301.227
301.269
301.304
301.331
301.35
301.363
301.369
301.369
301.362
301.35
301.332
301.309
301.281
301.248
301.211
301.169
301.124
301.074
301.021
300.965
300.905
300.843
300.778
300.711
300.642
300.571
300.498
300.424
300.349
300.272
300.195
300.117
300.039
279.257
279.316
279.43
279.594
279.804
280.056
280.348
280.674
281.031
281.417
281.828
282.262
282.715
283.185
283.67
284.167
284.674
285.189
285.709
286.234
286.762
287.29
287.818
288.344
288.867
289.385
289.898
290.404
290.904
291.395
291.877
292.349
292.811
293.263
293.703
294.132
294.549
294.953
295.345
295.724
296.09
296.443
296.783
297.11
297.423
297.724
298.011
298.285
298.546
298.794
299.029
299.252
299.462
299.66
299.846
300.02
300.182
300.333
300.473
300.602
300.721
300.829
300.927
301.016
301.094
301.164
301.225
301.277
301.321
301.356
301.384
301.405
301.418
301.424
301.424
301.418
301.405
301.386
301.362
301.333
301.299
301.26
301.217
301.169
301.118
301.062
301.004
300.942
300.877
300.81
300.74
300.668
300.594
300.518
300.441
300.363
300.283
300.203
300.122
300.041
278.455
278.516
278.635
278.805
279.023
279.286
279.588
279.927
280.298
280.699
281.126
281.576
282.047
282.535
283.039
283.555
284.081
284.616
285.157
285.702
286.25
286.799
287.347
287.894
288.436
288.975
289.508
290.034
290.552
291.062
291.563
292.053
292.533
293.002
293.46
293.905
294.338
294.758
295.165
295.559
295.939
296.306
296.659
296.998
297.324
297.636
297.934
298.218
298.489
298.747
298.991
299.223
299.441
299.647
299.84
300.02
300.189
300.346
300.492
300.626
300.749
300.861
300.963
301.055
301.137
301.209
301.272
301.326
301.372
301.409
301.438
301.459
301.473
301.48
301.479
301.472
301.459
301.44
301.415
301.385
301.349
301.309
301.264
301.214
301.161
301.103
301.043
300.978
300.911
300.841
300.769
300.694
300.617
300.538
300.458
300.377
300.294
300.211
300.127
300.042
277.659
277.722
277.845
278.021
278.248
278.52
278.833
279.184
279.57
279.985
280.428
280.895
281.383
281.89
282.412
282.947
283.493
284.047
284.608
285.174
285.742
286.311
286.879
287.446
288.009
288.567
289.12
289.665
290.203
290.731
291.251
291.76
292.257
292.744
293.218
293.68
294.129
294.564
294.986
295.395
295.789
296.169
296.535
296.887
297.225
297.548
297.857
298.153
298.434
298.701
298.954
299.194
299.42
299.633
299.834
300.021
300.196
300.359
300.51
300.649
300.776
300.893
300.999
301.094
301.179
301.254
301.319
301.375
301.423
301.461
301.491
301.513
301.527
301.534
301.534
301.527
301.513
301.493
301.467
301.436
301.399
301.357
301.31
301.259
301.204
301.144
301.081
301.015
300.945
300.872
300.797
300.72
300.64
300.558
300.475
300.391
300.305
300.218
300.131
300.044
276.868
276.933
277.06
277.243
277.478
277.759
278.084
278.447
278.846
279.277
279.735
280.219
280.724
281.249
281.789
282.343
282.908
283.483
284.063
284.649
285.237
285.826
286.415
287.001
287.584
288.162
288.734
289.299
289.856
290.403
290.941
291.468
291.983
292.487
292.978
293.456
293.921
294.372
294.809
295.232
295.64
296.034
296.413
296.777
297.127
297.461
297.782
298.087
298.378
298.655
298.917
299.165
299.4
299.621
299.828
300.022
300.203
300.372
300.528
300.672
300.804
300.925
301.034
301.133
301.221
301.298
301.366
301.424
301.473
301.513
301.544
301.567
301.581
301.589
301.588
301.581
301.567
301.546
301.519
301.487
301.449
301.405
301.357
301.304
301.246
301.185
301.119
301.051
300.978
300.903
300.825
300.745
300.663
300.578
300.492
300.404
300.316
300.226
300.136
300.045
276.082
276.15
276.281
276.471
276.713
277.004
277.34
277.716
278.128
278.573
279.047
279.547
280.07
280.612
281.171
281.744
282.328
282.922
283.522
284.128
284.736
285.345
285.954
286.56
287.163
287.761
288.352
288.936
289.511
290.078
290.633
291.178
291.711
292.232
292.74
293.234
293.714
294.181
294.633
295.07
295.492
295.899
296.291
296.668
297.029
297.375
297.706
298.022
298.323
298.609
298.88
299.137
299.379
299.608
299.822
300.023
300.21
300.384
300.546
300.695
300.831
300.956
301.069
301.171
301.262
301.342
301.412
301.472
301.523
301.564
301.596
301.62
301.635
301.642
301.642
301.635
301.62
301.599
301.571
301.537
301.498
301.453
301.403
301.348
301.289
301.225
301.157
301.086
301.012
300.934
300.853
300.77
300.685
300.598
300.509
300.418
300.326
300.234
300.141
300.047
275.303
275.373
275.509
275.704
275.954
276.255
276.601
276.99
277.415
277.875
278.365
278.881
279.42
279.98
280.557
281.149
281.752
282.365
282.985
283.61
284.238
284.868
285.496
286.122
286.745
287.362
287.972
288.575
289.17
289.754
290.328
290.891
291.441
291.979
292.503
293.013
293.51
293.991
294.458
294.909
295.345
295.765
296.17
296.559
296.932
297.29
297.632
297.958
298.268
298.564
298.844
299.109
299.359
299.595
299.816
300.023
300.217
300.397
300.563
300.717
300.858
300.987
301.104
301.209
301.303
301.386
301.458
301.52
301.573
301.615
301.648
301.673
301.688
301.696
301.696
301.688
301.673
301.651
301.622
301.587
301.547
301.5
301.449
301.392
301.331
301.265
301.195
301.122
301.045
300.964
300.881
300.795
300.707
300.617
300.525
300.432
300.337
300.241
300.145
300.048
274.53
274.602
274.742
274.943
275.201
275.511
275.869
276.269
276.708
277.182
277.687
278.22
278.776
279.353
279.948
280.559
281.181
281.813
282.453
283.097
283.745
284.394
285.042
285.688
286.329
286.966
287.596
288.218
288.83
289.433
290.025
290.605
291.173
291.727
292.268
292.795
293.306
293.803
294.284
294.75
295.199
295.633
296.05
296.451
296.836
297.205
297.557
297.894
298.214
298.519
298.808
299.081
299.339
299.582
299.81
300.024
300.224
300.409
300.581
300.74
300.885
301.018
301.139
301.247
301.344
301.429
301.504
301.568
301.622
301.666
301.7
301.725
301.741
301.749
301.749
301.741
301.725
301.702
301.673
301.637
301.595
301.547
301.494
301.436
301.372
301.305
301.233
301.157
301.077
300.995
300.909
300.82
300.73
300.637
300.542
300.445
300.348
300.249
300.15
300.05
273.762
273.837
273.981
274.188
274.454
274.774
275.142
275.554
276.007
276.495
277.015
277.564
278.137
278.732
279.345
279.973
280.614
281.265
281.924
282.588
283.255
283.924
284.591
285.257
285.918
286.573
287.222
287.863
288.494
289.115
289.725
290.322
290.907
291.478
292.035
292.578
293.105
293.616
294.112
294.591
295.055
295.501
295.931
296.344
296.741
297.121
297.484
297.83
298.16
298.474
298.772
299.053
299.319
299.57
299.805
300.025
300.23
300.421
300.599
300.762
300.912
301.049
301.173
301.285
301.384
301.472
301.549
301.615
301.671
301.716
301.751
301.777
301.794
301.802
301.801
301.793
301.777
301.754
301.723
301.686
301.643
301.594
301.539
301.479
301.414
301.344
301.27
301.192
301.11
301.025
300.936
300.845
300.751
300.656
300.558
300.459
300.358
300.257
300.154
300.051
273.002
273.079
273.227
273.44
273.714
274.043
274.421
274.846
275.311
275.814
276.349
276.913
277.503
278.115
278.746
279.393
280.052
280.722
281.4
282.084
282.77
283.458
284.145
284.829
285.51
286.184
286.852
287.511
288.161
288.8
289.427
290.042
290.644
291.231
291.804
292.362
292.905
293.431
293.941
294.435
294.911
295.371
295.813
296.238
296.646
297.037
297.411
297.767
298.107
298.43
298.736
299.026
299.299
299.557
299.799
300.026
300.237
300.434
300.616
300.784
300.938
301.079
301.207
301.322
301.424
301.515
301.594
301.662
301.719
301.765
301.802
301.828
301.846
301.854
301.854
301.845
301.828
301.804
301.773
301.735
301.691
301.64
301.583
301.522
301.455
301.383
301.307
301.226
301.142
301.054
300.963
300.87
300.773
300.675
300.574
300.472
300.369
300.264
300.159
300.053
272.248
272.327
272.479
272.699
272.98
273.318
273.707
274.143
274.622
275.138
275.688
276.269
276.875
277.504
278.152
278.817
279.495
280.184
280.881
281.583
282.289
282.996
283.702
284.406
285.105
285.798
286.485
287.162
287.83
288.487
289.132
289.764
290.382
290.986
291.576
292.149
292.707
293.248
293.772
294.279
294.769
295.242
295.696
296.133
296.553
296.955
297.339
297.705
298.054
298.386
298.701
298.999
299.28
299.545
299.793
300.026
300.244
300.446
300.633
300.806
300.964
301.109
301.24
301.359
301.464
301.557
301.639
301.708
301.767
301.815
301.852
301.88
301.897
301.906
301.905
301.897
301.88
301.855
301.823
301.784
301.738
301.686
301.628
301.564
301.495
301.421
301.343
301.26
301.174
301.084
300.99
300.894
300.795
300.694
300.59
300.485
300.379
300.271
300.163
300.054
271.501
271.582
271.738
271.964
272.253
272.599
272.999
273.447
273.939
274.469
275.034
275.63
276.252
276.898
277.564
278.247
278.943
279.651
280.366
281.087
281.812
282.538
283.263
283.986
284.704
285.416
286.121
286.817
287.502
288.177
288.839
289.488
290.123
290.744
291.349
291.938
292.51
293.066
293.604
294.125
294.628
295.113
295.58
296.029
296.46
296.873
297.267
297.643
298.002
298.343
298.666
298.972
299.261
299.532
299.788
300.027
300.25
300.458
300.65
300.828
300.99
301.139
301.274
301.395
301.504
301.599
301.683
301.754
301.815
301.864
301.902
301.93
301.948
301.957
301.957
301.948
301.93
301.905
301.872
301.832
301.785
301.731
301.672
301.606
301.535
301.46
301.379
301.294
301.205
301.113
301.017
300.918
300.816
300.712
300.606
300.498
300.389
300.279
300.168
300.056
270.761
270.844
271.005
271.236
271.532
271.888
272.298
272.758
273.262
273.806
274.386
274.997
275.636
276.299
276.982
277.682
278.397
279.122
279.856
280.596
281.34
282.085
282.829
283.57
284.307
285.037
285.76
286.474
287.178
287.87
288.549
289.215
289.867
290.503
291.124
291.729
292.316
292.886
293.438
293.973
294.489
294.987
295.466
295.926
296.368
296.791
297.196
297.582
297.95
298.3
298.631
298.945
299.241
299.52
299.782
300.028
300.257
300.47
300.667
300.849
301.016
301.169
301.307
301.432
301.543
301.641
301.727
301.8
301.862
301.912
301.951
301.98
301.999
302.008
302.007
301.998
301.98
301.954
301.92
301.879
301.831
301.776
301.715
301.648
301.575
301.498
301.415
301.328
301.237
301.142
301.043
300.942
300.837
300.731
300.622
300.511
300.399
300.286
300.172
300.057
270.028
270.114
270.278
270.515
270.819
271.183
271.604
272.075
272.592
273.15
273.744
274.37
275.025
275.704
276.405
277.123
277.855
278.599
279.352
280.11
280.872
281.636
282.398
283.158
283.914
284.662
285.404
286.135
286.857
287.566
288.262
288.945
289.613
290.265
290.902
291.521
292.123
292.708
293.274
293.822
294.351
294.861
295.352
295.824
296.277
296.711
297.126
297.522
297.899
298.257
298.597
298.919
299.222
299.508
299.777
300.028
300.263
300.481
300.684
300.87
301.042
301.198
301.34
301.467
301.581
301.682
301.77
301.845
301.908
301.96
302
302.03
302.049
302.058
302.058
302.048
302.03
302.003
301.969
301.926
301.877
301.821
301.758
301.689
301.615