/*--------------------------------*- C++ -*----------------------------------*\
| =========                 |                                                 |
| \\      /  F ield         | OpenFOAM: The Open Source CFD Toolbox           |
|  \\    /   O peration     | Version:  2406                                  |
|   \\  /    A nd           | Website:  www.openfoam.com                      |
|    \\/     M anipulation  |                                                 |
\*---------------------------------------------------------------------------*/
FoamFile
{
    version     2.0;
    format      ascii;
    arch        "LSB;label=32;scalar=64";
    class       volScalarField;
    location    "45";
    object      gradTx;
}
// * * * * * * * * * * * * * * * * * * * * * * * * * * * * * * * * * * * * * //

dimensions      [0 -1 0 1 0 0 0];

internalField   nonuniform List<scalar> 
20000
(
-7.59939
-7.28703
-6.981
-6.68165
-6.38945
-6.10486
-5.82803
-5.55839
-5.29679
-5.0438
-4.79875
-4.56154
-4.3325
-4.1118
-3.8993
-3.69482
-3.49822
-3.30944
-3.12839
-2.95498
-2.78906
-2.63046
-2.479
-2.33449
-2.19675
-2.06557
-1.94077
-1.82216
-1.70952
-1.60266
-1.50137
-1.40546
-1.31471
-1.22893
-1.14792
-1.07146
-0.999385
-0.931485
-0.867576
-0.807475
-0.751003
-0.697983
-0.648248
-0.601631
-0.557973
-0.517119
-0.478921
-0.443234
-0.40992
-0.378846
-0.349885
-0.322914
-0.297817
-0.274481
-0.2528
-0.232672
-0.214
-0.196693
-0.180664
-0.165828
-0.152108
-0.13943
-0.127724
-0.116923
-0.106965
-0.0977913
-0.0893465
-0.0815789
-0.0744396
-0.067883
-0.0618662
-0.0563494
-0.0512951
-0.0466684
-0.0424369
-0.0385702
-0.0350402
-0.0318208
-0.0288878
-0.0262187
-0.0237927
-0.0215908
-0.0195952
-0.0177898
-0.0161596
-0.014691
-0.0133717
-0.0121902
-0.0111363
-0.0102008
-0.00937533
-0.00865257
-0.00802595
-0.00748977
-0.00703911
-0.0066698
-0.00637841
-0.00616222
-0.00601921
-0.00594802
-22.7963
-21.8593
-20.9412
-20.0434
-19.1671
-18.313
-17.482
-16.6739
-15.8895
-15.1302
-14.3948
-13.6834
-12.9965
-12.3345
-11.697
-11.0835
-10.4938
-9.92746
-9.38439
-8.86422
-8.36651
-7.89075
-7.4364
-7.00291
-6.5897
-6.19621
-5.82184
-5.46602
-5.12813
-4.80758
-4.50375
-4.21603
-3.94382
-3.68649
-3.44346
-3.21413
-2.99791
-2.79422
-2.60251
-2.42223
-2.25282
-2.09378
-1.94458
-1.80474
-1.67378
-1.55123
-1.43664
-1.32959
-1.22966
-1.13645
-1.04957
-0.968663
-0.893377
-0.823375
-0.758337
-0.697958
-0.641948
-0.590032
-0.541946
-0.497443
-0.456287
-0.418257
-0.38314
-0.35074
-0.320869
-0.29335
-0.268018
-0.244717
-0.2233
-0.203632
-0.185583
-0.169034
-0.153873
-0.139994
-0.1273
-0.115701
-0.105112
-0.0954546
-0.0866562
-0.0786495
-0.0713723
-0.064767
-0.0587808
-0.0533649
-0.0484748
-0.0440695
-0.0401117
-0.0365675
-0.0334061
-0.0305998
-0.0281237
-0.0259556
-0.0240759
-0.0224675
-0.0211156
-0.0200077
-0.0191336
-0.0184851
-0.0180561
-0.0178426
-37.9873
-36.4258
-34.8964
-33.4003
-31.9402
-30.5166
-29.1316
-27.7853
-26.4785
-25.2127
-23.9871
-22.8017
-21.6574
-20.5543
-19.4918
-18.4695
-17.4867
-16.543
-15.6381
-14.7713
-13.9419
-13.1491
-12.392
-11.6696
-10.981
-10.3253
-9.70147
-9.10853
-8.54548
-8.01131
-7.50502
-7.02557
-6.57195
-6.14314
-5.73816
-5.356
-4.99569
-4.65627
-4.33681
-4.03638
-3.75409
-3.48906
-3.24044
-3.00741
-2.78918
-2.58496
-2.39401
-2.21562
-2.04909
-1.89376
-1.74899
-1.61417
-1.48872
-1.37207
-1.26369
-1.16307
-1.06974
-0.983224
-0.903095
-0.828935
-0.760354
-0.69698
-0.638462
-0.584471
-0.534693
-0.488836
-0.446622
-0.407794
-0.372106
-0.339331
-0.309255
-0.281677
-0.256412
-0.233284
-0.212132
-0.192803
-0.175158
-0.159065
-0.144403
-0.131061
-0.118934
-0.107927
-0.0979519
-0.0889269
-0.0807781
-0.0734371
-0.0668419
-0.0609358
-0.0556677
-0.0509913
-0.0468651
-0.0432522
-0.0401199
-0.0374396
-0.0351869
-0.0333408
-0.0318842
-0.0308035
-0.0300886
-0.0297328
-53.1691
-50.9833
-48.8427
-46.7489
-44.7051
-42.7128
-40.7742
-38.8899
-37.0609
-35.289
-33.5735
-31.9146
-30.313
-28.769
-27.2818
-25.8508
-24.4752
-23.1544
-21.8879
-20.6747
-19.5139
-18.4042
-17.3445
-16.3334
-15.3696
-14.4519
-13.5787
-12.7488
-11.9607
-11.2131
-10.5044
-9.83336
-9.19845
-8.59828
-8.03144
-7.49655
-6.99224
-6.51717
-6.07004
-5.64954
-5.25442
-4.88347
-4.5355
-4.20934
-3.90388
-3.61805
-3.35079
-3.10111
-2.86802
-2.65062
-2.44799
-2.25928
-2.08369
-1.92042
-1.76872
-1.6279
-1.49726
-1.37617
-1.26402
-1.16022
-1.06423
-0.975531
-0.893627
-0.818057
-0.748386
-0.684201
-0.625117
-0.57077
-0.52082
-0.474946
-0.43285
-0.394251
-0.358888
-0.326518
-0.296911
-0.269858
-0.24516
-0.222636
-0.202115
-0.18344
-0.166467
-0.151061
-0.137099
-0.124467
-0.113061
-0.102787
-0.0935555
-0.0852891
-0.0779156
-0.0713702
-0.065595
-0.0605381
-0.056154
-0.0524026
-0.0492495
-0.0466656
-0.0446268
-0.0431143
-0.0421137
-0.0416157
-68.3382
-65.5285
-62.7768
-60.0859
-57.4591
-54.8985
-52.4068
-49.9849
-47.6341
-45.3566
-43.1516
-41.0195
-38.9611
-36.9766
-35.0651
-33.2258
-31.4577
-29.7602
-28.1323
-26.5731
-25.0811
-23.6548
-22.2928
-20.9932
-19.7545
-18.5748
-17.4526
-16.3859
-15.373
-14.4121
-13.5012
-12.6387
-11.8227
-11.0513
-10.3227
-9.63525
-8.98707
-8.37647
-7.80176
-7.2613
-6.75346
-6.27669
-5.82943
-5.41023
-5.01763
-4.65025
-4.30674
-3.98582
-3.68625
-3.40681
-3.14638
-2.90384
-2.67815
-2.4683
-2.27333
-2.09232
-1.92442
-1.76878
-1.62463
-1.49122
-1.36785
-1.25384
-1.14857
-1.05144
-0.961893
-0.879398
-0.803458
-0.733606
-0.669405
-0.610444
-0.556338
-0.506728
-0.461276
-0.41967
-0.381618
-0.346846
-0.315103
-0.286152
-0.259776
-0.235774
-0.213958
-0.194157
-0.176212
-0.159976
-0.145317
-0.132111
-0.120246
-0.109621
-0.100144
-0.0917315
-0.0843087
-0.0778091
-0.0721742
-0.0673526
-0.0632999
-0.0599789
-0.0573585
-0.0554145
-0.0541284
-0.0534884
-83.4905
-80.0577
-76.6956
-73.4081
-70.1989
-67.0706
-64.0264
-61.0675
-58.1956
-55.4129
-52.7191
-50.1144
-47.5997
-45.1751
-42.8397
-40.5925
-38.4324
-36.3585
-34.3698
-32.4648
-30.642
-28.8996
-27.2355
-25.6478
-24.1344
-22.6932
-21.3222
-20.019
-18.7815
-17.6075
-16.4947
-15.441
-14.444
-13.5016
-12.6115
-11.7716
-10.9797
-10.2337
-9.53157
-8.87127
-8.25084
-7.66835
-7.12193
-6.60978
-6.13013
-5.6813
-5.26163
-4.86956
-4.50356
-4.16217
-3.84399
-3.54768
-3.27194
-3.01557
-2.77737
-2.55623
-2.3511
-2.16096
-1.98485
-1.82186
-1.67113
-1.53184
-1.40323
-1.28457
-1.17516
-1.07438
-0.9816
-0.896261
-0.817826
-0.745792
-0.679689
-0.619079
-0.56355
-0.512719
-0.46623
-0.423749
-0.384967
-0.349597
-0.317374
-0.28805
-0.261397
-0.237206
-0.215282
-0.195446
-0.177536
-0.161402
-0.146907
-0.133927
-0.122348
-0.11207
-0.103002
-0.095061
-0.0881767
-0.082286
-0.0773348
-0.0732774
-0.0700761
-0.067701
-0.0661298
-0.0653479
-98.622
-94.5671
-90.5956
-86.7123
-82.9214
-79.2261
-75.6302
-72.135
-68.7426
-65.4557
-62.2736
-59.1969
-56.2265
-53.3624
-50.6037
-47.9492
-45.3976
-42.9479
-40.5988
-38.3486
-36.1955
-34.1372
-32.1715
-30.2961
-28.5084
-26.806
-25.1865
-23.6471
-22.1853
-20.7986
-19.4842
-18.2394
-17.0618
-15.9485
-14.8971
-13.905
-12.9696
-12.0884
-11.259
-10.4791
-9.74618
-9.05812
-8.41267
-7.8077
-7.24112
-6.71094
-6.21522
-5.75209
-5.31976
-4.9165
-4.54065
-4.19064
-3.86493
-3.56209
-3.28072
-3.01951
-2.7772
-2.5526
-2.34457
-2.15204
-1.97399
-1.80947
-1.65755
-1.51738
-1.38814
-1.26909
-1.1595
-1.05869
-0.966044
-0.880955
-0.802873
-0.731278
-0.665685
-0.605642
-0.550727
-0.500547
-0.454736
-0.412957
-0.374893
-0.340254
-0.308771
-0.280196
-0.254298
-0.230868
-0.209712
-0.190654
-0.173532
-0.158199
-0.144522
-0.132381
-0.121669
-0.112289
-0.104157
-0.0971991
-0.0913506
-0.0865579
-0.0827763
-0.0799708
-0.0781149
-0.0771913
-113.729
-109.053
-104.473
-99.995
-95.6234
-91.3621
-87.2153
-83.1847
-79.2728
-75.4822
-71.8128
-68.2648
-64.8394
-61.5365
-58.3552
-55.2941
-52.3517
-49.5268
-46.8178
-44.223
-41.74
-39.3664
-37.0996
-34.9369
-32.8754
-30.9122
-29.0446
-27.2694
-25.5837
-23.9845
-22.4688
-21.0334
-19.6753
-18.3916
-17.1791
-16.035
-14.9563
-13.9401
-12.9837
-12.0843
-11.2391
-10.4457
-9.70134
-9.00369
-8.35033
-7.73894
-7.16728
-6.63321
-6.13465
-5.66962
-5.2362
-4.83257
-4.45697
-4.10774
-3.78327
-3.48205
-3.20262
-2.94361
-2.70372
-2.4817
-2.27637
-2.08664
-1.91145
-1.74981
-1.60078
-1.46349
-1.33711
-1.22087
-1.11402
-1.0159
-0.925858
-0.843296
-0.767656
-0.698415
-0.635088
-0.577221
-0.524394
-0.476214
-0.43232
-0.392375
-0.35607
-0.323117
-0.293252
-0.266233
-0.241836
-0.219859
-0.200114
-0.182432
-0.16666
-0.15266
-0.140307
-0.12949
-0.120112
-0.112088
-0.105344
-0.099817
-0.0954562
-0.0922209
-0.0900808
-0.0890156
-128.808
-123.512
-118.325
-113.253
-108.302
-103.476
-98.7789
-94.2139
-89.7833
-85.4902
-81.3342
-77.3159
-73.4363
-69.6955
-66.0924
-62.6253
-59.2928
-56.0934
-53.0253
-50.0864
-47.2742
-44.5859
-42.0186
-39.5691
-37.2342
-35.0108
-32.8955
-30.8849
-28.9758
-27.1646
-25.4478
-23.8221
-22.284
-20.83
-19.4568
-18.161
-16.9393
-15.7884
-14.7052
-13.6865
-12.7293
-11.8306
-10.9876
-10.1975
-9.45748
-8.76502
-8.11757
-7.51268
-6.94802
-6.42133
-5.93045
-5.4733
-5.04791
-4.65237
-4.28488
-3.94372
-3.62724
-3.3339
-3.06219
-2.81074
-2.57819
-2.3633
-2.16488
-1.98181
-1.81303
-1.65753
-1.5144
-1.38274
-1.26173
-1.1506
-1.04861
-0.955106
-0.869437
-0.791016
-0.719293
-0.653754
-0.593922
-0.539354
-0.48964
-0.444399
-0.40328
-0.365958
-0.332133
-0.301532
-0.273901
-0.249009
-0.226646
-0.20662
-0.188757
-0.172901
-0.15891
-0.146659
-0.136038
-0.12695
-0.119311
-0.113052
-0.108113
-0.104448
-0.102024
-0.100818
-143.855
-137.941
-132.148
-126.483
-120.953
-115.563
-110.318
-105.22
-100.272
-95.4771
-90.8356
-86.3479
-82.0151
-77.8373
-73.8132
-69.9411
-66.2193
-62.6461
-59.2197
-55.9375
-52.7968
-49.7944
-46.9272
-44.1915
-41.5839
-39.1007
-36.7383
-34.4929
-32.3607
-30.3379
-28.4206
-26.605
-24.8872
-23.2634
-21.7297
-20.2826
-18.9181
-17.6328
-16.423
-15.2853
-14.2163
-13.2127
-12.2712
-11.3887
-10.5623
-9.78894
-9.06585
-8.39031
-7.75968
-7.17147
-6.62324
-6.11269
-5.6376
-5.19585
-4.78544
-4.40442
-4.05097
-3.72336
-3.41992
-3.13908
-2.87937
-2.63938
-2.41778
-2.21332
-2.02482
-1.85117
-1.69131
-1.54427
-1.40912
-1.28501
-1.17111
-1.06668
-0.971004
-0.883422
-0.80332
-0.730124
-0.663303
-0.602361
-0.546839
-0.496313
-0.450391
-0.408709
-0.370933
-0.336757
-0.305898
-0.278098
-0.253123
-0.230757
-0.210808
-0.193099
-0.177473
-0.163791
-0.15193
-0.14178
-0.133249
-0.126258
-0.120742
-0.11665
-0.113943
-0.112596
-158.867
-152.335
-145.938
-139.682
-133.575
-127.623
-121.83
-116.2
-110.735
-105.44
-100.315
-95.3585
-90.5736
-85.9598
-81.5157
-77.2396
-73.1294
-69.1834
-65.3994
-61.7747
-58.3063
-54.9907
-51.8242
-48.803
-45.9233
-43.181
-40.572
-38.0923
-35.7376
-33.5037
-31.3864
-29.3813
-27.4842
-25.691
-23.9973
-22.3991
-20.8923
-19.4728
-18.1368
-16.8804
-15.6998
-14.5914
-13.5517
-12.5772
-11.6645
-10.8104
-10.0119
-9.26586
-8.56943
-7.91983
-7.31439
-6.75057
-6.2259
-5.73806
-5.28481
-4.86403
-4.47371
-4.1119
-3.77679
-3.46666
-3.17985
-2.91481
-2.67009
-2.44429
-2.23612
-2.04434
-1.8678
-1.70542
-1.55617
-1.4191
-1.29332
-1.17799
-1.07233
-0.97561
-0.887149
-0.806315
-0.732521
-0.665219
-0.603904
-0.548105
-0.49739
-0.451359
-0.409641
-0.371898
-0.337819
-0.307119
-0.279537
-0.254838
-0.232806
-0.213249
-0.195993
-0.180884
-0.167784
-0.156575
-0.147154
-0.139434
-0.133342
-0.128823
-0.125833
-0.124345
-173.84
-166.692
-159.692
-152.846
-146.164
-139.651
-133.312
-127.151
-121.172
-115.378
-109.769
-104.346
-99.1098
-94.0611
-89.1982
-84.519
-80.0215
-75.7037
-71.5631
-67.5968
-63.8014
-60.1733
-56.7084
-53.4025
-50.2513
-47.2506
-44.3958
-41.6823
-39.1057
-36.6613
-34.3444
-32.1504
-30.0745
-28.1122
-26.2589
-24.5101
-22.8613
-21.308
-19.8461
-18.4713
-17.1794
-15.9666
-14.8289
-13.7625
-12.7638
-11.8293
-10.9555
-10.1391
-9.37706
-8.66624
-8.00374
-7.38678
-6.81266
-6.27884
-5.78288
-5.32245
-4.89533
-4.49943
-4.13274
-3.79337
-3.47953
-3.18952
-2.92173
-2.67466
-2.44686
-2.23701
-2.04383
-1.86615
-1.70283
-1.55285
-1.41521
-1.28901
-1.17339
-1.06756
-0.970759
-0.882307
-0.801558
-0.727913
-0.660819
-0.599762
-0.544268
-0.493897
-0.448248
-0.406948
-0.369657
-0.336064
-0.305882
-0.278855
-0.254747
-0.233347
-0.214465
-0.197931
-0.183597
-0.171332
-0.161023
-0.152575
-0.145909
-0.140964
-0.137693
-0.136065
-188.769
-181.008
-173.406
-165.973
-158.717
-151.644
-144.761
-138.071
-131.578
-125.287
-119.196
-113.307
-107.622
-102.139
-96.8587
-91.7776
-86.8939
-82.2053
-77.709
-73.4021
-69.2809
-65.3411
-61.5786
-57.9888
-54.567
-51.3085
-48.2085
-45.2621
-42.4642
-39.8098
-37.294
-34.9115
-32.6574
-30.5266
-28.5141
-26.6151
-24.8246
-23.138
-21.5505
-20.0576
-18.6548
-17.3379
-16.1024
-14.9445
-13.86
-12.8452
-11.8964
-11.0099
-10.1824
-9.41051
-8.69112
-8.02117
-7.39775
-6.81808
-6.27953
-5.77955
-5.31575
-4.88585
-4.48767
-4.11916
-3.77836
-3.46344
-3.17266
-2.90436
-2.657
-2.42913
-2.21936
-2.02641
-1.84907
-1.68621
-1.53675
-1.39972
-1.27417
-1.15924
-1.05413
-0.958081
-0.870397
-0.790428
-0.717571
-0.651271
-0.59101
-0.536314
-0.486745
-0.441898
-0.401404
-0.364925
-0.332152
-0.302804
-0.276626
-0.253388
-0.232884
-0.21493
-0.199365
-0.186046
-0.174852
-0.165678
-0.15844
-0.15307
-0.149518
-0.14775
-203.652
-195.279
-187.078
-179.059
-171.231
-163.6
-156.174
-148.957
-141.952
-135.164
-128.594
-122.24
-116.107
-110.192
-104.495
-99.0136
-93.7449
-88.6866
-83.8359
-79.1894
-74.7432
-70.4928
-66.4336
-62.5608
-58.8692
-55.3538
-52.0094
-48.8307
-45.8122
-42.9486
-40.2343
-37.664
-35.2322
-32.9334
-30.7622
-28.7135
-26.7819
-24.9623
-23.2496
-21.639
-20.1256
-18.7048
-17.372
-16.1227
-14.9528
-13.8579
-12.8343
-11.8779
-10.9852
-10.1525
-9.37635
-8.65358
-7.981
-7.35564
-6.77462
-6.23523
-5.73486
-5.27106
-4.84149
-4.44392
-4.07626
-3.73651
-3.4228
-3.13335
-2.86649
-2.62065
-2.39434
-2.18618
-1.99486
-1.81915
-1.65792
-1.51007
-1.37463
-1.25064
-1.13724
-1.03362
-0.939022
-0.852747
-0.774147
-0.702619
-0.637607
-0.578599
-0.525121
-0.476738
-0.433052
-0.393697
-0.35834
-0.326678
-0.298436
-0.273365
-0.251245
-0.231876
-0.215084
-0.200715
-0.188638
-0.178741
-0.170932
-0.165139
-0.161307
-0.159399
-218.485
-209.502
-200.704
-192.101
-183.702
-175.516
-167.549
-159.806
-152.291
-145.009
-137.96
-131.144
-124.563
-118.218
-112.106
-106.225
-100.573
-95.146
-89.942
-84.9571
-80.187
-75.6271
-71.2723
-67.1173
-63.1569
-59.3855
-55.7975
-52.3872
-49.1489
-46.0767
-43.1647
-40.4072
-37.7983
-35.332
-33.0028
-30.8048
-28.7325
-26.7804
-24.943
-23.2151
-21.5915
-20.0672
-18.6373
-17.297
-16.0418
-14.8673
-13.7691
-12.7431
-11.7853
-10.8919
-10.0593
-9.28385
-8.56229
-7.89138
-7.26804
-6.68936
-6.15255
-5.65497
-5.19411
-4.76759
-4.37315
-4.00865
-3.67209
-3.36156
-3.07527
-2.81152
-2.56873
-2.34541
-2.14015
-1.95165
-1.77867
-1.62006
-1.47475
-1.34173
-1.22007
-1.1089
-1.00741
-0.914857
-0.830531
-0.753794
-0.684047
-0.620741
-0.563368
-0.511461
-0.464593
-0.422372
-0.38444
-0.350471
-0.320172
-0.293276
-0.269544
-0.248765
-0.230749
-0.215334
-0.202377
-0.19176
-0.183382
-0.177167
-0.173056
-0.171009
-233.264
-223.673
-214.28
-205.095
-196.128
-187.388
-178.883
-170.616
-162.593
-154.818
-147.291
-140.015
-132.989
-126.214
-119.689
-113.41
-107.376
-101.582
-96.0259
-90.7039
-85.6111
-80.7427
-76.0933
-71.6573
-67.429
-63.4025
-59.5718
-55.9308
-52.4734
-49.1934
-46.0845
-43.1405
-40.355
-37.722
-35.2352
-32.8885
-30.676
-28.5919
-26.6302
-24.7854
-23.052
-21.4246
-19.8979
-18.467
-17.1269
-15.8729
-14.7004
-13.605
-12.5825
-11.6287
-10.7397
-9.91183
-9.14147
-8.42517
-7.75967
-7.14185
-6.56873
-6.03749
-5.54546
-5.09008
-4.66896
-4.27981
-3.92048
-3.58895
-3.28329
-3.0017
-2.74249
-2.50406
-2.28492
-2.08367
-1.89898
-1.72964
-1.5745
-1.43249
-1.3026
-1.18391
-1.07556
-0.97674
-0.886711
-0.804782
-0.730318
-0.66273
-0.601476
-0.546058
-0.49602
-0.450943
-0.410444
-0.374178
-0.34183
-0.313114
-0.287777
-0.265592
-0.246358
-0.2299
-0.216067
-0.204731
-0.195787
-0.189151
-0.184762
-0.182577
-247.985
-237.789
-227.803
-218.038
-208.506
-199.214
-190.172
-181.384
-172.854
-164.588
-156.587
-148.851
-141.382
-134.18
-127.243
-120.568
-114.152
-107.993
-102.086
-96.4282
-91.0141
-85.8385
-80.8956
-76.1796
-71.6845
-67.4038
-63.3313
-59.4606
-55.785
-52.298
-48.9929
-45.8631
-42.9018
-40.1026
-37.4589
-34.9641
-32.612
-30.3963
-28.3108
-26.3496
-24.5068
-22.7767
-21.1537
-19.6325
-18.2078
-16.8747
-15.6282
-14.4636
-13.3765
-12.3625
-11.4175
-10.5374
-9.71839
-8.95689
-8.24939
-7.59257
-6.98328
-6.41852
-5.89543
-5.41132
-4.96362
-4.54991
-4.1679
-3.81545
-3.4905
-3.19114
-2.91557
-2.66209
-2.42912
-2.21517
-2.01883
-1.8388
-1.67387
-1.52289
-1.38481
-1.25863
-1.14344
-1.03838
-0.942672
-0.855573
-0.776409
-0.704555
-0.639435
-0.58052
-0.527324
-0.479402
-0.436348
-0.397793
-0.363403
-0.332875
-0.305939
-0.282354
-0.261906
-0.244409
-0.229703
-0.217652
-0.208143
-0.201089
-0.196422
-0.1941
-262.645
-251.847
-241.27
-230.928
-220.832
-210.991
-201.414
-192.106
-183.073
-174.318
-165.844
-157.651
-149.74
-142.112
-134.765
-127.695
-120.901
-114.377
-108.121
-102.129
-96.3946
-90.913
-85.6779
-80.6832
-75.9222
-71.3885
-67.0753
-62.9757
-59.0829
-55.3897
-51.8892
-48.5744
-45.4381
-42.4734
-39.6733
-37.0311
-34.5399
-32.1932
-29.9845
-27.9073
-25.9556
-24.1231
-22.4042
-20.7931
-19.2842
-17.8723
-16.5521
-15.3187
-14.1673
-13.0934
-12.0925
-11.1603
-10.2929
-9.48639
-8.73707
-8.04142
-7.39611
-6.79796
-6.24395
-5.73122
-5.25705
-4.81889
-4.4143
-4.041
-3.69684
-3.37979
-3.08793
-2.81947
-2.57273
-2.34612
-2.13818
-1.94751
-1.77282
-1.61292
-1.46667
-1.33304
-1.21104
-1.09977
-0.9984
-0.906152
-0.822308
-0.746206
-0.677237
-0.614839
-0.558498
-0.507743
-0.462144
-0.42131
-0.384886
-0.352554
-0.324025
-0.299046
-0.277389
-0.258858
-0.243283
-0.230519
-0.220448
-0.212977
-0.208034
-0.205575
-277.241
-265.842
-254.677
-243.761
-233.104
-222.716
-212.607
-202.782
-193.246
-184.005
-175.06
-166.411
-158.061
-150.01
-142.254
-134.792
-127.619
-120.733
-114.13
-107.804
-101.751
-95.9651
-90.4391
-85.1668
-80.1413
-75.3556
-70.8027
-66.4753
-62.3661
-58.4677
-54.7727
-51.2737
-47.9631
-44.8336
-41.878
-39.0889
-36.4593
-33.9822
-31.6507
-29.4581
-27.3979
-25.4637
-23.6492
-21.9486
-20.3558
-18.8654
-17.4719
-16.17
-14.9546
-13.821
-12.7644
-11.7805
-10.8649
-10.0136
-9.22259
-8.48829
-7.80712
-7.17573
-6.59093
-6.04971
-5.54919
-5.08667
-4.6596
-4.26557
-3.90228
-3.56761
-3.25953
-2.97615
-2.71569
-2.4765
-2.257
-2.05573
-1.87134
-1.70255
-1.54818
-1.40711
-1.27833
-1.16088
-1.05388
-0.956508
-0.868004
-0.787674
-0.714872
-0.649006
-0.589534
-0.535959
-0.487826
-0.444722
-0.406275
-0.372146
-0.342032
-0.315664
-0.292804
-0.273243
-0.256802
-0.243329
-0.232699
-0.224812
-0.219595
-0.216999
-291.768
-279.772
-268.022
-256.534
-245.318
-234.386
-223.747
-213.407
-203.372
-193.647
-184.233
-175.131
-166.343
-157.87
-149.708
-141.854
-134.306
-127.059
-120.11
-113.453
-107.083
-100.994
-95.178
-89.6294
-84.3405
-79.3041
-74.5126
-69.9585
-65.634
-61.5313
-57.6427
-53.9603
-50.4763
-47.1828
-44.0723
-41.1371
-38.3697
-35.7628
-33.3092
-31.0017
-28.8335
-26.7979
-24.8884
-23.0986
-21.4225
-19.854
-18.3874
-17.0172
-15.7382
-14.5452
-13.4333
-12.3978
-11.4342
-10.5382
-9.70584
-8.93306
-8.2162
-7.55173
-6.93629
-6.3667
-5.83996
-5.35321
-4.90376
-4.48907
-4.10675
-3.75454
-3.43032
-3.13209
-2.85799
-2.60626
-2.37526
-2.16345
-1.9694
-1.79176
-1.6293
-1.48084
-1.34532
-1.22171
-1.1091
-1.00663
-0.913487
-0.828947
-0.75233
-0.683013
-0.620425
-0.564042
-0.513387
-0.468025
-0.427563
-0.391646
-0.359954
-0.332205
-0.308147
-0.287561
-0.270259
-0.25608
-0.244892
-0.236592
-0.231102
-0.228369
-306.223
-293.632
-281.301
-269.243
-257.472
-245.998
-234.833
-223.98
-213.447
-203.241
-193.36
-183.808
-174.585
-165.691
-157.125
-148.882
-140.96
-133.354
-126.06
-119.074
-112.388
-105.997
-99.8934
-94.0698
-88.519
-83.233
-78.2042
-73.4244
-68.8857
-64.5798
-60.4985
-56.6336
-52.977
-49.5204
-46.2558
-43.1752
-40.2707
-37.5346
-34.9594
-32.5376
-30.262
-28.1256
-26.1215
-24.243
-22.4838
-20.8376
-19.2983
-17.8603
-16.5179
-15.2658
-14.0988
-13.012
-12.0007
-11.0603
-10.1867
-9.37563
-8.62325
-7.92586
-7.27993
-6.68212
-6.12929
-5.61842
-5.14671
-4.71148
-4.31021
-3.94055
-3.60027
-3.28727
-2.99959
-2.73538
-2.49294
-2.27063
-2.06697
-1.88053
-1.71002
-1.55421
-1.41197
-1.28224
-1.16405
-1.0565
-0.958744
-0.870015
-0.789603
-0.716852
-0.651163
-0.591987
-0.538822
-0.491213
-0.448746
-0.411049
-0.377787
-0.348663
-0.323413
-0.301808
-0.283648
-0.268767
-0.257025
-0.248314
-0.242552
-0.239684
-320.602
-307.42
-294.51
-281.886
-269.562
-257.55
-245.86
-234.498
-223.47
-212.784
-202.44
-192.439
-182.783
-173.471
-164.503
-155.873
-147.579
-139.616
-131.98
-124.665
-117.666
-110.974
-104.584
-98.4871
-92.6756
-87.1414
-81.8764
-76.8722
-72.1204
-67.6123
-63.3393
-59.293
-55.4646
-51.8457
-48.4278
-45.2025
-42.1617
-39.2971
-36.601
-34.0655
-31.683
-29.4463
-27.3481
-25.3814
-23.5396
-21.816
-20.2045
-18.699
-17.2936
-15.9826
-14.7608
-13.623
-12.5642
-11.5797
-10.665
-9.81588
-9.02818
-8.29804
-7.62178
-6.9959
-6.4171
-5.88225
-5.38838
-4.93271
-4.51261
-4.12559
-3.76933
-3.44163
-3.14044
-2.86383
-2.61
-2.37726
-2.16403
-1.96884
-1.79032
-1.62719
-1.47827
-1.34245
-1.21871
-1.10611
-1.00376
-0.910869
-0.826681
-0.750514
-0.68174
-0.619785
-0.564124
-0.514279
-0.469818
-0.430351
-0.395528
-0.365036
-0.3386
-0.31598
-0.296968
-0.281388
-0.269095
-0.259974
-0.253941
-0.250939
-334.902
-321.133
-307.646
-294.459
-281.586
-269.038
-256.826
-244.957
-233.438
-222.275
-211.47
-201.022
-190.936
-181.209
-171.841
-162.826
-154.162
-145.844
-137.867
-130.226
-122.914
-115.924
-109.249
-102.88
-96.8093
-91.0283
-85.5285
-80.3011
-75.3372
-70.6281
-66.1646
-61.9377
-57.9386
-54.1583
-50.5879
-47.2188
-44.0423
-41.05
-38.2336
-35.5849
-33.0962
-30.7597
-28.5679
-26.5135
-24.5895
-22.7891
-21.1058
-19.5331
-18.0649
-16.6955
-15.4192
-14.2306
-13.1246
-12.0962
-11.1407
-10.2537
-9.43088
-8.66817
-7.96174
-7.30795
-6.70333
-6.14462
-5.62873
-5.15274
-4.71389
-4.30961
-3.93746
-3.59514
-3.28052
-2.99157
-2.72642
-2.48329
-2.26055
-2.05666
-1.87017
-1.69977
-1.54421
-1.40233
-1.27307
-1.15545
-1.04854
-0.951498
-0.863555
-0.78399
-0.712149
-0.647431
-0.589287
-0.537219
-0.490775
-0.449547
-0.41317
-0.381318
-0.353704
-0.330075
-0.310214
-0.293939
-0.281098
-0.271571
-0.265269
-0.262132
-349.12
-334.766
-320.707
-306.96
-293.54
-280.459
-267.729
-255.357
-243.348
-231.712
-220.447
-209.556
-199.041
-188.902
-179.136
-169.738
-160.706
-152.035
-143.72
-135.754
-128.132
-120.846
-113.887
-107.248
-100.919
-94.8928
-89.1594
-83.7101
-78.5355
-73.6264
-68.9734
-64.5672
-60.3983
-56.4575
-52.7355
-49.2234
-45.912
-42.7927
-39.8567
-37.0956
-34.5013
-32.0656
-29.7807
-27.6391
-25.6334
-23.7566
-22.0018
-20.3623
-18.8318
-17.4043
-16.0738
-14.8348
-13.6818
-12.6097
-11.6137
-10.689
-9.83125
-9.03616
-8.29974
-7.61819
-6.98791
-6.40548
-5.86769
-5.37149
-4.91401
-4.49257
-4.10462
-3.74777
-3.41978
-3.11857
-2.84216
-2.58872
-2.35652
-2.14397
-1.94957
-1.77193
-1.60976
-1.46186
-1.32712
-1.2045
-1.09305
-0.991893
-0.900216
-0.817274
-0.742383
-0.674917
-0.614304
-0.560026
-0.51161
-0.468632
-0.430711
-0.397507
-0.36872
-0.344088
-0.323384
-0.306418
-0.293032
-0.2831
-0.27653
-0.273261
-363.252
-348.316
-333.688
-319.385
-305.422
-291.812
-278.566
-265.693
-253.199
-241.091
-229.37
-218.039
-207.098
-196.548
-186.387
-176.609
-167.211
-158.189
-149.537
-141.249
-133.319
-125.737
-118.497
-111.589
-105.004
-98.7338
-92.7684
-87.0985
-81.7145
-76.6067
-71.7653
-67.1807
-62.8431
-58.7427
-54.8701
-51.2158
-47.7704
-44.5248
-41.47
-38.5972
-35.8978
-33.3635
-30.9861
-28.7579
-26.671
-24.7182
-22.8923
-21.1865
-19.5941
-18.1088
-16.7245
-15.4353
-14.2356
-13.1201
-12.0838
-11.1217
-10.2292
-9.40192
-8.6357
-7.92656
-7.27076
-6.66476
-6.1052
-5.58891
-5.11292
-4.67442
-4.27076
-3.89947
-3.55821
-3.2448
-2.95721
-2.6935
-2.45191
-2.23075
-2.02848
-1.84366
-1.67492
-1.52104
-1.38084
-1.25326
-1.1373
-1.03204
-0.936655
-0.850355
-0.772433
-0.702236
-0.63917
-0.582694
-0.532319
-0.487601
-0.448145
-0.413597
-0.383645
-0.358016
-0.336474
-0.318821
-0.304893
-0.29456
-0.287724
-0.284322
-377.294
-361.781
-346.587
-331.731
-317.228
-303.092
-289.334
-275.963
-262.986
-250.41
-238.237
-226.467
-215.104
-204.146
-193.592
-183.436
-173.675
-164.304
-155.318
-146.71
-138.472
-130.598
-123.077
-115.902
-109.063
-102.55
-96.3544
-90.4654
-84.8732
-79.568
-74.5395
-69.7776
-65.2723
-61.0135
-56.9912
-53.1956
-49.617
-46.246
-43.0731
-40.0892
-37.2855
-34.6532
-32.1839
-29.8695
-27.702
-25.6737
-23.7773
-22.0055
-20.3515
-18.8088
-17.371
-16.0319
-14.7859
-13.6273
-12.5509
-11.5516
-10.6246
-9.76536
-8.96952
-8.23297
-7.55182
-6.92239
-6.3412
-5.80496
-5.31057
-4.85511
-4.43585
-4.05021
-3.69576
-3.37024
-3.07152
-2.79762
-2.54669
-2.31698
-2.1069
-1.91493
-1.73967
-1.57984
-1.43422
-1.3017
-1.18126
-1.07194
-0.972862
-0.883227
-0.802292
-0.729382
-0.663878
-0.605219
-0.552897
-0.506451
-0.465469
-0.429586
-0.398476
-0.371856
-0.349481
-0.331146
-0.316679
-0.305946
-0.298847
-0.295313
-391.242
-375.156
-359.401
-343.995
-328.956
-314.297
-300.031
-286.166
-272.709
-259.668
-247.045
-234.84
-223.056
-211.694
-200.749
-190.218
-180.096
-170.379
-161.06
-152.134
-143.592
-135.426
-127.628
-120.187
-113.095
-106.342
-99.9167
-93.8099
-88.011
-82.5096
-77.2953
-72.3574
-67.6855
-63.2692
-59.0982
-55.1623
-51.4514
-47.9557
-44.6655
-41.5713
-38.6639
-35.9343
-33.3738
-30.9738
-28.7262
-26.6229
-24.6563
-22.8191
-21.104
-19.5042
-18.0132
-16.6246
-15.3325
-14.1311
-13.0149
-11.9787
-11.0174
-10.1264
-9.30113
-8.53735
-7.83102
-7.17832
-6.57564
-6.01957
-5.5069
-5.03461
-4.59985
-4.19995
-3.83239
-3.49484
-3.18508
-2.90105
-2.64084
-2.40265
-2.18479
-1.98572
-1.80399
-1.63824
-1.48724
-1.34983
-1.22493
-1.11157
-1.00883
-0.915881
-0.831954
-0.756348
-0.688423
-0.627595
-0.573338
-0.525175
-0.482678
-0.445468
-0.413208
-0.385604
-0.362402
-0.343389
-0.328388
-0.317258
-0.309896
-0.306231
-405.095
-388.439
-372.126
-356.175
-340.603
-325.425
-310.654
-296.298
-282.365
-268.862
-255.791
-243.155
-230.954
-219.189
-207.857
-196.953
-186.472
-176.411
-166.762
-157.52
-148.676
-140.221
-132.147
-124.443
-117.1
-110.107
-103.454
-97.1313
-91.1271
-85.431
-80.032
-74.9192
-70.0819
-65.5093
-61.1906
-57.1153
-53.2731
-49.6536
-46.2469
-43.0432
-40.0329
-37.2066
-34.5554
-32.0705
-29.7432
-27.5655
-25.5293
-23.627
-21.8512
-20.1948
-18.651
-17.2132
-15.8754
-14.6315
-13.4757
-12.4028
-11.4075
-10.4849
-9.63044
-8.83962
-8.10829
-7.43248
-6.80846
-6.2327
-5.70188
-5.21287
-4.76271
-4.34865
-3.96808
-3.61857
-3.29785
-3.00377
-2.73434
-2.48771
-2.26215
-2.05603
-1.86786
-1.69625
-1.5399
-1.39762
-1.2683
-1.15093
-1.04455
-0.948309
-0.861411
-0.783128
-0.712797
-0.649816
-0.593638
-0.543769
-0.499768
-0.461241
-0.427838
-0.399257
-0.375234
-0.355547
-0.340015
-0.328491
-0.320868
-0.317074
-418.847
-401.626
-384.759
-368.266
-352.166
-336.473
-321.2
-306.357
-291.95
-277.989
-264.475
-251.409
-238.794
-226.63
-214.913
-203.639
-192.803
-182.4
-172.424
-162.868
-153.723
-144.981
-136.633
-128.667
-121.075
-113.845
-106.966
-100.429
-94.2208
-88.3312
-82.7489
-77.4626
-72.4611
-67.7332
-63.2679
-59.0543
-55.0816
-51.3393
-47.8169
-44.5044
-41.3919
-38.4697
-35.7285
-33.1592
-30.753
-28.5013
-26.396
-24.4291
-22.593
-20.8803
-19.2841
-17.7976
-16.4143
-15.1282
-13.9332
-12.8238
-11.7948
-10.8409
-9.95738
-9.13972
-8.38355
-7.6848
-7.03959
-6.44429
-5.89545
-5.38983
-4.9244
-4.49628
-4.10279
-3.74142
-3.40981
-3.10574
-2.82717
-2.57217
-2.33894
-2.12583
-1.93127
-1.75383
-1.59218
-1.44507
-1.31136
-1.19
-1.08001
-0.980503
-0.890655
-0.809714
-0.736996
-0.671877
-0.613791
-0.56223
-0.516735
-0.476899
-0.442363
-0.412811
-0.387973
-0.367618
-0.351558
-0.339643
-0.331761
-0.327839
-432.496
-414.714
-397.297
-380.267
-363.642
-347.438
-331.667
-316.34
-301.464
-287.048
-273.094
-259.602
-246.576
-234.015
-221.916
-210.275
-199.086
-188.344
-178.043
-168.175
-158.732
-149.706
-141.085
-132.86
-125.02
-117.555
-110.452
-103.701
-97.2911
-91.2097
-85.4454
-79.9869
-74.8224
-69.9405
-65.3297
-60.9787
-56.8766
-53.0123
-49.3751
-45.9547
-42.7408
-39.7234
-36.8928
-34.2398
-31.7551
-29.4301
-27.2562
-25.2252
-23.3292
-21.5608
-19.9125
-18.3776
-16.9492
-15.6212
-14.3873
-13.2417
-12.1791
-11.1941
-10.2819
-9.43755
-8.65675
-7.93522
-7.26899
-6.65429
-6.08757
-5.56547
-5.08487
-4.6428
-4.23649
-3.86334
-3.52092
-3.20695
-2.9193
-2.65599
-2.41516
-2.1951
-1.99421
-1.81099
-1.64406
-1.49216
-1.35409
-1.22878
-1.11521
-1.01246
-0.919679
-0.836101
-0.761013
-0.693772
-0.633793
-0.580552
-0.533574
-0.492441
-0.456779
-0.426264
-0.400616
-0.379598
-0.363015
-0.350711
-0.342573
-0.338522
-446.038
-427.699
-409.737
-392.174
-375.029
-358.317
-342.053
-326.245
-310.904
-296.036
-281.645
-267.731
-254.297
-241.343
-228.865
-216.859
-205.32
-194.241
-183.617
-173.441
-163.703
-154.393
-145.503
-137.02
-128.935
-121.236
-113.911
-106.949
-100.337
-94.0656
-88.1209
-82.4914
-77.1652
-72.1304
-67.3752
-62.8881
-58.6575
-54.6722
-50.9212
-47.3936
-44.079
-40.9672
-38.048
-35.3119
-32.7494
-30.3516
-28.1096
-26.015
-24.0597
-22.2359
-20.536
-18.953
-17.48
-16.1103
-14.8377
-13.6564
-12.5605
-11.5447
-10.6038
-9.73306
-8.92781
-8.18369
-7.4966
-6.86265
-6.27818
-5.73974
-5.24409
-4.78818
-4.36914
-3.98431
-3.63117
-3.30737
-3.01071
-2.73915
-2.49079
-2.26384
-2.05665
-1.86769
-1.69554
-1.53888
-1.39649
-1.26725
-1.15013
-1.04416
-0.948476
-0.862281
-0.784842
-0.715495
-0.653639
-0.59873
-0.550282
-0.50786
-0.471082
-0.439612
-0.41316
-0.391484
-0.374382
-0.361693
-0.3533
-0.349122
-459.47
-440.579
-422.076
-403.984
-386.323
-369.107
-352.353
-336.07
-320.266
-304.951
-290.126
-275.793
-261.955
-248.61
-235.757
-223.39
-211.503
-200.091
-189.147
-178.664
-168.632
-159.043
-149.885
-141.147
-132.818
-124.887
-117.341
-110.169
-103.359
-96.8983
-90.7746
-84.9756
-79.489
-74.3026
-69.4042
-64.7819
-60.4239
-56.3186
-52.4546
-48.8209
-45.4065
-42.2009
-39.1938
-36.3753
-33.7357
-31.2656
-28.9561
-26.7984
-24.7842
-22.9055
-21.1545
-19.5238
-18.0064
-16.5954
-15.2846
-14.0676
-12.9387
-11.8923
-10.9231
-10.0262
-9.19666
-8.43014
-7.72236
-7.06932
-6.46724
-5.91259
-5.40201