/*--------------------------------*- C++ -*----------------------------------*\
| =========                 |                                                 |
| \\      /  F ield         | OpenFOAM: The Open Source CFD Toolbox           |
|  \\    /   O peration     | Version:  2406                                  |
|   \\  /    A nd           | Website:  www.openfoam.com                      |
|    \\/     M anipulation  |                                                 |
\*---------------------------------------------------------------------------*/
FoamFile
{
    version     2.0;
    format      ascii;
    arch        "LSB;label=32;scalar=64";
    class       volScalarField;
    location    "65";
    object      T;
}
// * * * * * * * * * * * * * * * * * * * * * * * * * * * * * * * * * * * * * //

dimensions      [0 0 0 1 0 0 0];

internalField   nonuniform List<scalar> 
20000
(
300.601
300.567
300.534
300.502
300.471
300.442
300.413
300.386
300.36
300.336
300.312
300.29
300.269
300.249
300.23
300.213
300.196
300.181
300.166
300.153
300.14
300.129
300.118
300.108
300.098
300.09
300.082
300.074
300.067
300.061
300.055
300.05
300.045
300.041
300.037
300.033
300.03
300.027
300.024
300.022
300.019
300.017
300.016
300.014
300.012
300.011
300.01
300.009
300.008
300.007
300.006
300.005
300.005
300.004
300.004
300.003
300.003
300.003
300.002
300.002
300.002
300.001
300.001
300.001
300.001
300.001
300.001
300.001
300.001
300
300
300
300
300
300
300
300
300
300
300
300
300
300
300
300
300
300
300
300
300
300
300
300
300
300
300
300
300
300
300
301.804
301.702
301.603
301.507
301.414
301.325
301.24
301.159
301.081
301.007
300.937
300.87
300.807
300.747
300.691
300.639
300.589
300.543
300.499
300.459
300.421
300.386
300.353
300.323
300.295
300.269
300.245
300.223
300.202
300.184
300.166
300.151
300.136
300.123
300.111
300.1
300.09
300.081
300.073
300.065
300.058
300.052
300.047
300.042
300.037
300.033
300.029
300.026
300.023
300.021
300.018
300.016
300.014
300.013
300.011
300.01
300.009
300.008
300.007
300.006
300.005
300.004
300.004
300.003
300.003
300.003
300.002
300.002
300.002
300.001
300.001
300.001
300.001
300.001
300.001
300.001
300.001
300
300
300
300
300
300
300
300
300
300
300
300
300
300
300
300
300
300
300
300
300
300
300
303.006
302.836
302.67
302.511
302.357
302.209
302.067
301.931
301.801
301.678
301.561
301.45
301.345
301.245
301.152
301.064
300.982
300.904
300.832
300.764
300.702
300.643
300.589
300.538
300.491
300.448
300.408
300.371
300.337
300.306
300.277
300.251
300.227
300.205
300.185
300.167
300.15
300.135
300.121
300.108
300.097
300.087
300.078
300.069
300.062
300.055
300.049
300.044
300.039
300.034
300.03
300.027
300.024
300.021
300.018
300.016
300.014
300.013
300.011
300.01
300.008
300.007
300.006
300.006
300.005
300.004
300.004
300.003
300.003
300.002
300.002
300.002
300.002
300.001
300.001
300.001
300.001
300.001
300.001
300.001
300
300
300
300
300
300
300
300
300
300
300
300
300
300
300
300
300
300
300
300
304.207
303.969
303.738
303.514
303.299
303.091
302.893
302.702
302.521
302.348
302.184
302.029
301.882
301.743
301.612
301.489
301.374
301.266
301.165
301.07
300.982
300.9
300.824
300.753
300.688
300.627
300.571
300.519
300.472
300.428
300.388
300.351
300.318
300.287
300.259
300.233
300.21
300.189
300.169
300.152
300.136
300.122
300.109
300.097
300.087
300.077
300.069
300.061
300.054
300.048
300.042
300.038
300.033
300.029
300.026
300.023
300.02
300.018
300.015
300.014
300.012
300.01
300.009
300.008
300.007
300.006
300.005
300.005
300.004
300.003
300.003
300.003
300.002
300.002
300.002
300.001
300.001
300.001
300.001
300.001
300.001
300.001
300
300
300
300
300
300
300
300
300
300
300
300
300
300
300
300
300
300
305.408
305.101
304.804
304.517
304.24
303.973
303.718
303.473
303.24
303.018
302.808
302.608
302.419
302.24
302.072
301.914
301.766
301.627
301.497
301.375
301.262
301.157
301.059
300.968
300.884
300.806
300.734
300.668
300.607
300.55
300.499
300.452
300.408
300.369
300.333
300.3
300.27
300.242
300.218
300.195
300.175
300.156
300.14
300.125
300.111
300.099
300.088
300.078
300.07
300.062
300.055
300.048
300.043
300.038
300.033
300.029
300.026
300.023
300.02
300.017
300.015
300.013
300.012
300.01
300.009
300.008
300.007
300.006
300.005
300.004
300.004
300.003
300.003
300.002
300.002
300.002
300.002
300.001
300.001
300.001
300.001
300.001
300.001
300.001
300
300
300
300
300
300
300
300
300
300
300
300
300
300
300
300
306.606
306.232
305.869
305.518
305.18
304.854
304.542
304.244
303.959
303.688
303.43
303.186
302.955
302.737
302.532
302.339
302.157
301.988
301.829
301.68
301.542
301.413
301.293
301.182
301.08
300.985
300.897
300.816
300.741
300.672
300.61
300.552
300.499
300.451
300.406
300.366
300.33
300.296
300.266
300.238
300.214
300.191
300.171
300.152
300.136
300.121
300.108
300.096
300.085
300.075
300.067
300.059
300.052
300.046
300.041
300.036
300.031
300.028
300.024
300.021
300.019
300.016
300.014
300.012
300.011
300.009
300.008
300.007
300.006
300.005
300.005
300.004
300.003
300.003
300.003
300.002
300.002
300.002
300.001
300.001
300.001
300.001
300.001
300.001
300.001
300
300
300
300
300
300
300
300
300
300
300
300
300
300
300
307.804
307.362
306.933
306.518
306.118
305.734
305.365
305.013
304.676
304.356
304.052
303.763
303.491
303.233
302.991
302.763
302.548
302.348
302.16
301.985
301.821
301.669
301.528
301.397
301.275
301.163
301.059
300.963
300.875
300.794
300.72
300.652
300.589
300.532
300.48
300.433
300.389
300.35
300.314
300.282
300.252
300.226
300.202
300.18
300.161
300.143
300.127
300.113
300.1
300.089
300.079
300.07
300.062
300.054
300.048
300.042
300.037
300.033
300.029
300.025
300.022
300.019
300.017
300.015
300.013
300.011
300.01
300.008
300.007
300.006
300.005
300.005
300.004
300.004
300.003
300.003
300.002
300.002
300.002
300.001
300.001
300.001
300.001
300.001
300.001
300.001
300
300
300
300
300
300
300
300
300
300
300
300
300
300
308.999
308.489
307.995
307.517
307.056
306.612
306.187
305.781
305.393
305.023
304.672
304.34
304.025
303.728
303.449
303.186
302.939
302.707
302.491
302.289
302.1
301.925
301.762
301.611
301.471
301.341
301.221
301.111
301.009
300.916
300.83
300.752
300.68
300.614
300.554
300.499
300.449
300.403
300.362
300.325
300.291
300.26
300.233
300.208
300.185
300.165
300.147
300.13
300.116
300.103
300.091
300.08
300.071
300.063
300.055
300.049
300.043
300.038
300.033
300.029
300.025
300.022
300.019
300.017
300.015
300.013
300.011
300.01
300.008
300.007
300.006
300.005
300.005
300.004
300.004
300.003
300.003
300.002
300.002
300.002
300.001
300.001
300.001
300.001
300.001
300.001
300.001
300
300
300
300
300
300
300
300
300
300
300
300
300
310.192
309.615
309.055
308.513
307.991
307.489
307.008
306.547
306.108
305.689
305.292
304.915
304.559
304.223
303.906
303.608
303.328
303.066
302.821
302.592
302.379
302.18
301.996
301.824
301.666
301.519
301.383
301.258
301.143
301.037
300.94
300.851
300.77
300.695
300.627
300.565
300.508
300.457
300.41
300.368
300.33
300.295
300.263
300.235
300.21
300.187
300.166
300.148
300.131
300.116
300.103
300.091
300.08
300.071
300.063
300.055
300.048
300.043
300.037
300.033
300.029
300.025
300.022
300.019
300.017
300.015
300.013
300.011
300.01
300.008
300.007
300.006
300.005
300.005
300.004
300.003
300.003
300.003
300.002
300.002
300.002
300.001
300.001
300.001
300.001
300.001
300.001
300.001
300
300
300
300
300
300
300
300
300
300
300
300
311.383
310.738
310.113
309.508
308.925
308.364
307.826
307.312
306.821
306.354
305.91
305.49
305.092
304.716
304.362
304.03
303.717
303.424
303.151
302.895
302.657
302.435
302.229
302.037
301.86
301.696
301.545
301.405
301.277
301.159
301.05
300.951
300.86
300.776
300.7
300.631
300.568
300.51
300.458
300.411
300.368
300.329
300.294
300.263
300.234
300.209
300.186
300.165
300.146
300.13
300.115
300.102
300.09
300.079
300.07
300.062
300.054
300.048
300.042
300.037
300.032
300.028
300.025
300.021
300.019
300.016
300.014
300.012
300.011
300.009
300.008
300.007
300.006
300.005
300.004
300.004
300.003
300.003
300.002
300.002
300.002
300.002
300.001
300.001
300.001
300.001
300.001
300.001
300
300
300
300
300
300
300
300
300
300
300
300
312.571
311.859
311.168
310.5
309.856
309.237
308.643
308.075
307.533
307.017
306.527
306.062
305.623
305.208
304.818
304.45
304.105
303.782
303.479
303.197
302.934
302.689
302.461
302.25
302.054
301.873
301.706
301.552
301.41
301.28
301.16
301.05
300.949
300.857
300.773
300.697
300.627
300.564
300.506
300.454
300.406
300.364
300.325
300.29
300.259
300.23
300.205
300.182
300.162
300.143
300.127
300.112
300.099
300.088
300.077
300.068
300.06
300.053
300.046
300.04
300.035
300.031
300.027
300.024
300.021
300.018
300.016
300.014
300.012
300.01
300.009
300.008
300.007
300.006
300.005
300.004
300.004
300.003
300.003
300.002
300.002
300.002
300.001
300.001
300.001
300.001
300.001
300.001
300.001
300
300
300
300
300
300
300
300
300
300
300
313.756
312.977
312.221
311.49
310.785
310.107
309.457
308.836
308.243
307.678
307.142
306.634
306.153
305.699
305.272
304.869
304.492
304.138
303.807
303.498
303.21
302.942
302.693
302.462
302.248
302.05
301.867
301.698
301.543
301.4
301.269
301.149
301.039
300.938
300.846
300.762
300.686
300.617
300.554
300.496
300.445
300.398
300.356
300.317
300.283
300.252
300.224
300.199
300.177
300.157
300.139
300.123
300.108
300.096
300.084
300.074
300.065
300.057
300.05
300.044
300.039
300.034
300.03
300.026
300.023
300.02
300.017
300.015
300.013
300.011
300.01
300.008
300.007
300.006
300.005
300.005
300.004
300.003
300.003
300.003
300.002
300.002
300.002
300.001
300.001
300.001
300.001
300.001
300.001
300.001
300
300
300
300
300
300
300
300
300
300
314.937
314.091
313.27
312.476
311.711
310.975
310.27
309.595
308.951
308.338
307.755
307.203
306.681
306.189
305.724
305.288
304.878
304.494
304.134
303.799
303.486
303.195
302.924
302.674
302.441
302.226
302.027
301.844
301.676
301.52
301.378
301.248
301.128
301.019
300.919
300.828
300.745
300.67
300.601
300.539
300.483
300.432
300.386
300.345
300.307
300.274
300.243
300.216
300.192
300.17
300.151
300.133
300.118
300.104
300.092
300.081
300.071
300.062
300.055
300.048
300.042
300.037
300.032
300.028
300.024
300.021
300.019
300.016
300.014
300.012
300.011
300.009
300.008
300.007
300.006
300.005
300.004
300.004
300.003
300.003
300.002
300.002
300.002
300.001
300.001
300.001
300.001
300.001
300.001
300.001
300
300
300
300
300
300
300
300
300
300
316.115
315.202
314.316
313.46
312.634
311.84
311.079
310.351
309.656
308.995
308.367
307.771
307.208
306.677
306.176
305.705
305.262
304.848
304.46
304.098
303.761
303.447
303.155
302.884
302.633
302.401
302.187
301.99
301.808
301.64
301.487
301.346
301.217
301.099
300.991
300.893
300.804
300.722
300.649
300.582
300.521
300.466
300.417
300.372
300.332
300.295
300.263
300.233
300.207
300.184
300.163
300.144
300.127
300.112
300.099
300.087
300.077
300.067
300.059
300.052
300.045
300.04
300.035
300.03
300.026
300.023
300.02
300.017
300.015
300.013
300.011
300.01
300.008
300.007
300.006
300.005
300.005
300.004
300.003
300.003
300.003
300.002
300.002
300.002
300.001
300.001
300.001
300.001
300.001
300.001
300
300
300
300
300
300
300
300
300
300
317.288
316.309
315.359
314.44
313.555
312.703
311.886
311.105
310.36
309.65
308.976
308.337
307.733
307.163
306.625
306.12
305.646
305.201
304.785
304.397
304.035
303.698
303.385
303.094
302.825
302.576
302.346
302.135
301.939
301.76
301.595
301.444
301.306
301.179
301.064
300.958
300.862
300.775
300.696
300.624
300.559
300.5
300.447
300.399
300.356
300.317
300.282
300.25
300.222
300.197
300.174
300.154
300.136
300.12
300.106
300.093
300.082
300.072
300.063
300.056
300.049
300.043
300.037
300.032
300.028
300.025
300.021
300.019
300.016
300.014
300.012
300.011
300.009
300.008
300.007
300.006
300.005
300.004
300.004
300.003
300.003
300.002
300.002
300.002
300.001
300.001
300.001
300.001
300.001
300.001
300.001
300
300
300
300
300
300
300
300
300
318.458
317.412
316.398
315.417
314.471
313.562
312.69
311.856
311.06
310.303
309.583
308.901
308.256
307.647
307.074
306.534
306.027
305.553
305.109
304.694
304.308
303.948
303.614
303.304
303.016
302.751
302.505
302.279
302.07
301.879
301.703
301.542
301.394
301.259
301.135
301.023
300.921
300.827
300.743
300.666
300.597
300.534
300.477
300.426
300.38
300.338
300.301
300.267
300.237
300.21
300.186
300.165
300.146
300.128
300.113
300.1
300.088
300.077
300.068
300.059
300.052
300.045
300.04
300.035
300.03
300.026
300.023
300.02
300.017
300.015
300.013
300.011
300.01
300.008
300.007
300.006
300.005
300.005
300.004
300.003
300.003
300.003
300.002
300.002
300.002
300.001
300.001
300.001
300.001
300.001
300.001
300
300
300
300
300
300
300
300
300
319.623
318.511
317.433
316.39
315.385
314.418
313.491
312.604
311.759
310.953
310.188
309.463
308.777
308.13
307.52
306.946
306.408
305.903
305.431
304.991
304.58
304.197
303.842
303.512
303.207
302.924
302.663
302.423
302.201
301.997
301.81
301.639
301.482
301.338
301.207
301.088
300.979
300.88
300.79
300.708
300.634
300.568
300.507
300.453
300.404
300.36
300.32
300.284
300.252
300.224
300.198
300.175
300.155
300.137
300.12
300.106
300.093
300.082
300.072
300.063
300.055
300.048
300.042
300.037
300.032
300.028
300.024
300.021
300.018
300.016
300.014
300.012
300.01
300.009
300.008
300.007
300.006
300.005
300.004
300.004
300.003
300.003
300.002
300.002
300.002
300.001
300.001
300.001
300.001
300.001
300.001
300.001
300
300
300
300
300
300
300
300
320.783
319.606
318.464
317.359
316.294
315.27
314.289
313.35
312.454
311.601
310.79
310.023
309.296
308.611
307.965
307.357
306.787
306.252
305.752
305.286
304.85
304.445
304.069
303.72
303.396
303.097
302.821
302.566
302.331
302.115
301.917
301.736
301.569
301.417
301.278
301.152
301.037
300.932
300.836
300.75
300.672
300.601
300.537
300.48
300.428
300.381
300.339
300.301
300.267
300.237
300.21
300.186
300.164
300.145
300.128
300.112
300.099
300.087
300.076
300.067
300.059
300.051
300.045
300.039
300.034
300.03
300.026
300.022
300.019
300.017
300.015
300.013
300.011
300.009
300.008
300.007
300.006
300.005
300.004
300.004
300.003
300.003
300.002
300.002
300.002
300.001
300.001
300.001
300.001
300.001
300.001
300.001
300
300
300
300
300
300
300
300
321.938
320.695
319.49
318.324
317.2
316.119
315.083
314.091
313.146
312.245
311.39
310.58
309.813
309.089
308.407
307.766
307.164
306.6
306.072
305.579
305.12
304.692
304.295
303.927
303.585
303.269
302.978
302.709
302.461
302.233
302.024
301.832
301.657
301.496
301.35
301.216
301.094
300.983
300.883
300.792
300.709
300.635
300.567
300.506
300.451
300.402
300.358
300.318
300.282
300.25
300.221
300.196
300.173
300.153
300.135
300.119
300.104
300.092
300.08
300.071
300.062
300.054
300.047
300.041
300.036
300.031
300.027
300.024
300.021
300.018
300.015
300.013
300.012
300.01
300.009
300.007
300.006
300.005
300.005
300.004
300.003
300.003
300.003
300.002
300.002
300.002
300.001
300.001
300.001
300.001
300.001
300.001
300
300
300
300
300
300
300
300
323.087
321.779
320.511
319.284
318.101
316.964
315.873
314.83
313.834
312.887
311.987
311.134
310.327
309.565
308.848
308.173
307.539
306.946
306.39
305.872
305.388
304.938
304.52
304.132
303.773
303.441
303.134
302.85
302.59
302.35
302.13
301.928
301.743
301.574
301.42
301.28
301.151
301.035
300.929
300.833
300.746
300.668
300.597
300.533
300.475
300.423
300.376
300.334
300.297
300.263
300.233
300.206
300.182
300.161
300.142
300.125
300.11
300.096
300.085
300.074
300.065
300.057
300.05
300.043
300.038
300.033
300.029
300.025
300.022
300.019
300.016
300.014
300.012
300.011
300.009
300.008
300.007
300.006
300.005
300.004
300.004
300.003
300.003
300.002
300.002
300.002
300.001
300.001
300.001
300.001
300.001
300.001
300
300
300
300
300
300
300
300
324.231
322.858
321.527
320.239
318.998
317.804
316.659
315.565
314.52
313.525
312.581
311.685
310.839
310.039
309.286
308.578
307.913
307.29
306.707
306.163
305.655
305.183
304.744
304.337
303.96
303.611
303.289
302.992
302.718
302.466
302.236
302.024
301.83
301.652
301.491
301.343
301.209
301.086
300.975
300.875
300.783
300.701
300.626
300.559
300.498
300.444
300.395
300.351
300.311
300.276
300.245
300.216
300.191
300.169
300.149
300.131
300.115
300.101
300.089
300.078
300.068
300.06
300.052
300.046
300.04
300.035
300.03
300.026
300.023
300.02
300.017
300.015
300.013
300.011
300.01
300.008
300.007
300.006
300.005
300.004
300.004
300.003
300.003
300.002
300.002
300.002
300.001
300.001
300.001
300.001
300.001
300.001
300.001
300
300
300
300
300
300
300
325.369
323.932
322.538
321.19
319.89
318.64
317.442
316.295
315.202
314.161
313.172
312.234
311.348
310.511
309.722
308.98
308.284
307.632
307.022
306.452
305.921
305.426
304.967
304.541
304.146
303.781
303.443
303.132
302.846
302.582
302.34
302.119
301.916
301.73
301.561
301.406
301.265
301.137
301.021
300.916
300.82
300.734
300.656
300.585
300.522
300.465
300.413
300.367
300.326
300.289
300.256
300.226
300.2
300.177
300.156
300.137
300.121
300.106
300.093
300.082
300.071
300.062
300.055
300.048
300.042
300.036
300.032
300.027
300.024
300.021
300.018
300.015
300.013
300.012
300.01
300.009
300.007
300.006
300.005
300.005
300.004
300.003
300.003
300.003
300.002
300.002
300.002
300.001
300.001
300.001
300.001
300.001
300.001
300
300
300
300
300
300
300
326.5
324.999
323.543
322.135
320.777
319.471
318.22
317.022
315.88
314.792
313.759
312.78
311.854
310.979
310.156
309.381
308.654
307.972
307.335
306.74
306.185
305.668
305.188
304.743
304.331
303.949
303.597
303.272
302.973
302.697
302.445
302.213
302.001
301.807
301.63
301.469
301.322
301.188
301.067
300.957
300.857
300.767
300.685
300.611
300.545
300.486
300.432
300.384
300.341
300.302
300.267
300.237
300.209
300.184
300.163
300.143
300.126
300.111
300.097
300.085
300.075
300.065
300.057
300.05
300.043
300.038
300.033
300.029
300.025
300.022
300.019
300.016
300.014
300.012
300.01
300.009
300.008
300.007
300.006
300.005
300.004
300.004
300.003
300.003
300.002
300.002
300.002
300.001
300.001
300.001
300.001
300.001
300.001
300
300
300
300
300
300
300
327.625
326.061
324.543
323.075
321.659
320.298
318.993
317.745
316.554
315.42
314.343
313.322
312.357
311.446
310.587
309.779
309.021
308.311
307.646
307.026
306.447
305.909
305.409
304.945
304.515
304.117
303.749
303.411
303.099
302.812
302.549
302.307
302.086
301.884
301.699
301.531
301.378
301.238
301.112
300.997
300.893
300.799
300.714
300.637
300.568
300.506
300.45
300.4
300.355
300.315
300.279
300.247
300.218
300.192
300.17
300.149
300.131
300.115
300.101
300.089
300.078
300.068
300.059
300.052
300.045
300.039
300.034
300.03
300.026
300.022
300.019
300.017
300.015
300.013
300.011
300.009
300.008
300.007
300.006
300.005
300.004
300.004
300.003
300.003
300.002
300.002
300.002
300.001
300.001
300.001
300.001
300.001
300.001
300
300
300
300
300
300
300
328.744
327.115
325.536
324.009
322.536
321.12
319.762
318.463
317.224
316.044
314.924
313.862
312.857
311.909
311.015
310.175
309.386
308.647
307.956
307.31
306.708
306.148
305.628
305.145
304.697
304.283
303.901
303.549
303.224
302.926
302.652
302.401
302.171
301.96
301.768
301.593
301.434
301.289
301.157
301.037
300.929
300.831
300.743
300.663
300.591
300.527
300.468
300.416
300.369
300.328
300.29
300.257
300.227
300.2
300.176
300.155
300.137
300.12
300.105
300.092
300.081
300.071
300.062
300.054
300.047
300.041
300.036
300.031
300.027
300.023
300.02
300.018
300.015
300.013
300.011
300.01
300.008
300.007
300.006
300.005
300.005
300.004
300.003
300.003
300.002
300.002
300.002
300.001
300.001
300.001
300.001
300.001
300.001
300.001
300
300
300
300
300
300
329.855
328.164
326.523
324.937
323.407
321.936
320.526
319.177
317.89
316.665
315.501
314.398
313.354
312.369
311.441
310.568
309.749
308.981
308.263
307.593
306.968
306.386
305.845
305.344
304.879
304.449
304.052
303.686
303.349
303.039
302.754
302.493
302.254
302.036
301.837
301.655
301.489
301.338
301.202
301.078
300.965
300.864
300.772
300.689
300.614
300.547
300.487
300.432
300.384
300.34
300.301
300.267
300.235
300.208
300.183
300.161
300.142
300.125
300.109
300.096
300.084
300.074
300.064
300.056
300.049
300.043
300.037
300.032
300.028
300.024
300.021
300.018
300.016
300.014
300.012
300.01
300.009
300.007
300.006
300.006
300.005
300.004
300.003
300.003
300.003
300.002
300.002
300.002
300.001
300.001
300.001
300.001
300.001
300.001
300
300
300
300
300
300
330.958
329.205
327.504
325.859
324.272
322.747
321.285
319.886
318.551
317.281
316.074
314.93
313.848
312.826
311.864
310.959
310.11
309.314
308.569
307.874
307.225
306.622
306.061
305.541
305.059
304.614
304.202
303.822
303.473
303.151
302.856
302.586
302.338
302.111
301.904
301.716
301.544
301.388
301.246
301.117
301.001
300.895
300.8
300.714
300.637
300.567
300.505
300.448
300.398
300.353
300.312
300.276
300.244
300.216
300.19
300.167
300.147
300.129
300.114
300.1
300.087
300.076
300.067
300.058
300.051
300.044
300.038
300.033
300.029
300.025
300.022
300.019
300.016
300.014
300.012
300.01
300.009
300.008
300.007
300.006
300.005
300.004
300.004
300.003
300.003
300.002
300.002
300.002
300.001
300.001
300.001
300.001
300.001
300.001
300
300
300
300
300
300
332.055
330.239
328.477
326.774
325.132
323.553
322.038
320.59
319.208
317.892
316.643
315.458
314.338
313.281
312.284
311.347
310.468
309.643
308.872
308.152
307.481
306.856
306.276
305.737
305.238
304.777
304.351
303.958
303.596
303.263
302.957
302.677
302.421
302.186
301.972
301.777
301.599
301.437
301.29
301.157
301.036
300.927
300.829
300.74
300.659
300.587
300.522
300.464
300.412
300.365
300.323
300.286
300.253
300.223
300.197
300.173
300.152
300.134
300.118
300.103
300.09
300.079
300.069
300.06
300.053
300.046
300.04
300.035
300.03
300.026
300.023
300.02
300.017
300.015
300.013
300.011
300.009
300.008
300.007
300.006
300.005
300.004
300.004
300.003
300.003
300.002
300.002
300.002
300.001
300.001
300.001
300.001
300.001
300.001
300
300
300
300
300
300
333.143
331.265
329.444
327.683
325.985
324.352
322.786
321.289
319.86
318.5
317.208
315.983
314.825
313.731
312.701
311.732
310.823
309.971
309.173
308.429
307.735
307.089
306.489
305.932
305.416
304.939
304.498
304.092
303.718
303.374
303.058
302.768
302.503
302.26
302.039
301.837
301.653
301.486
301.334
301.196
301.072
300.959
300.857
300.765
300.682
300.607
300.54
300.48
300.426
300.378
300.334
300.296
300.261
300.231
300.203
300.179
300.158
300.138
300.122
300.107
300.093
300.082
300.071
300.062
300.054
300.047
300.041
300.036
300.031
300.027
300.023
300.02
300.017
300.015
300.013
300.011
300.01
300.008
300.007
300.006
300.005
300.004
300.004
300.003
300.003
300.002
300.002
300.002
300.001
300.001
300.001
300.001
300.001
300.001
300
300
300
300
300
300
334.223
332.284
330.404
328.585
326.832
325.146
323.529
321.983
320.507
319.103
317.769
316.504
315.308
314.179
313.115
312.115
311.176
310.296
309.472
308.704
307.987
307.32
306.7
306.125
305.593
305.1
304.645
304.225
303.839
303.484
303.157
302.858
302.584
302.334
302.105
301.897
301.707
301.534
301.377
301.235
301.106
300.99
300.885
300.79
300.704
300.627
300.558
300.496
300.44
300.39
300.345
300.305
300.27
300.238
300.21
300.185
300.163
300.143
300.125
300.11
300.096
300.084
300.074
300.064
300.056
300.049
300.042
300.037
300.032
300.028
300.024
300.021
300.018
300.016
300.013
300.012
300.01
300.009
300.007
300.006
300.005
300.005
300.004
300.003
300.003
300.002
300.002
300.002
300.001
300.001
300.001
300.001
300.001
300.001
300
300
300
300
300
300
335.294
333.295
331.356
329.48
327.672
325.933
324.266
322.671
321.149
319.701
318.325
317.021
315.787
314.623
313.526
312.494
311.525
310.618
309.769
308.976
308.237
307.549
306.91
306.317
305.768
305.26
304.79
304.358
303.959
303.593
303.256
302.948
302.665
302.407
302.171
301.956
301.76
301.582
301.421
301.274
301.141
301.021
300.912
300.814
300.726
300.647
300.575
300.511
300.454
300.402
300.356
300.315
300.278
300.246
300.217
300.191
300.168
300.147
300.129
300.113
300.099
300.087
300.076
300.066
300.058
300.05
300.044
300.038
300.033
300.029
300.025
300.022
300.019
300.016
300.014
300.012
300.01
300.009
300.008
300.007
300.006
300.005
300.004
300.003
300.003
300.003
300.002
300.002
300.002
300.001
300.001
300.001
300.001
300.001
300
300
300
300
300
300
336.357
334.298
332.3
330.368
328.505
326.714
324.997
323.354
321.786
320.294
318.877
317.533
316.263
315.063
313.933
312.87
311.873
310.938
310.063
309.247
308.485
307.777
307.118
306.507
305.941
305.418
304.935
304.489
304.078
303.701
303.354
303.036
302.746
302.479
302.237
302.015
301.813
301.63
301.463
301.312
301.175
301.052
300.94
300.839
300.748
300.666
300.593
300.527
300.467
300.414
300.367
300.325
300.287
300.253
300.223
300.196
300.173
300.152
300.133
300.117
300.102
300.09
300.078
300.068
300.06
300.052
300.045
300.039
300.034
300.03
300.026
300.022
300.019
300.017
300.014
300.012
300.011
300.009
300.008
300.007
300.006
300.005
300.004
300.004
300.003
300.003
300.002
300.002
300.002
300.001
300.001
300.001
300.001
300.001
300.001
300
300
300
300
300
337.411
335.292
333.236
331.248
329.331
327.488
325.721
324.031
322.418
320.882
319.424
318.042
316.734
315.5
314.337
313.243
312.217
311.255
310.355
309.515
308.731
308.002
307.325
306.696
306.114
305.575
305.078
304.619
304.197
303.808
303.451
303.124
302.825
302.551
302.301
302.073
301.866
301.677
301.506
301.35
301.21
301.082
300.967
300.863
300.77
300.685
300.61
300.542
300.481
300.426
300.378
300.334
300.295
300.26
300.23
300.202
300.178
300.156
300.137
300.12
300.105
300.092
300.081
300.07
300.061
300.053
300.046
300.04
300.035
300.03
300.026
300.023
300.02
300.017
300.015
300.013
300.011
300.009
300.008
300.007
300.006
300.005
300.004
300.004
300.003
300.003
300.002
300.002
300.002
300.001
300.001
300.001
300.001
300.001
300.001
300
300
300
300
300
338.456
336.278
334.164
332.121
330.15
328.256
326.439
324.702
323.044
321.466
319.966
318.545
317.201
315.933
314.737
313.613
312.558
311.569
310.644
309.78
308.975
308.226
307.529
306.883
306.284
305.731
305.219
304.748
304.314
303.914
303.548
303.212
302.904
302.623
302.366
302.131
301.918
301.724
301.548
301.388
301.243
301.112
300.994
300.887
300.791
300.705
300.627
300.557
300.494
300.438
300.388
300.343
300.303
300.268
300.236
300.208
300.183
300.161
300.141
300.124
300.108
300.095
300.083
300.072
300.063
300.055
300.048
300.042
300.036
300.031
300.027
300.023
300.02
300.018
300.015
300.013
300.011
300.01
300.008
300.007
300.006
300.005
300.004
300.004
300.003
300.003
300.002
300.002
300.002
300.001
300.001
300.001
300.001
300.001
300.001
300
300
300
300
300
339.491
337.254
335.084
332.985
330.962
329.017
327.151
325.367
323.664
322.043
320.504
319.045
317.664
316.362
315.134
313.98
312.896
311.88
310.931
310.044
309.217
308.447
307.732
307.068
306.454
305.885
305.36
304.876
304.43
304.02
303.643
303.298
302.982
302.693
302.429
302.189
301.97
301.77
301.589
301.425
301.277
301.142
301.021
300.911
300.812
300.724
300.644
300.572
300.508
300.45
300.399
300.353
300.311
300.275
300.242
300.213
300.188
300.165
300.145
300.127
300.111
300.097
300.085
300.074
300.065
300.056
300.049
300.043
300.037
300.032
300.028
300.024
300.021
300.018
300.016
300.013
300.012
300.01
300.008
300.007
300.006
300.005
300.005
300.004
300.003
300.003
300.002
300.002
300.002
300.001
300.001
300.001
300.001
300.001
300.001
300
300
300
300
300
340.516
338.221
335.995
333.842
331.766
329.77
327.856
326.025
324.279
322.616
321.036
319.539
318.123
316.786
315.527
314.343
313.231
312.189
311.214
310.304
309.456
308.666
307.933
307.252
306.621
306.038
305.499
305.002
304.545
304.124
303.738
303.384
303.06
302.763
302.492
302.246
302.021
301.816
301.631
301.462
301.31
301.172
301.047
300.935
300.834
300.742
300.66
300.587
300.521
300.462
300.409
300.362
300.32
300.282
300.249
300.219
300.193
300.169
300.149
300.13
300.114
300.1
300.087
300.076
300.066
300.058
300.05
300.044
300.038
300.033
300.029
300.025
300.021
300.018
300.016
300.014
300.012
300.01
300.009
300.007
300.006
300.005
300.005
300.004
300.003
300.003
300.002
300.002
300.002
300.001
300.001
300.001
300.001
300.001
300.001
300
300
300
300
300
341.532
339.179
336.897
334.69
332.562
330.516
328.554
326.678
324.887
323.183
321.563
320.029
318.577
317.207
315.916
314.702
313.562
312.494
311.495
310.563
309.693
308.884
308.131
307.434
306.787
306.189
305.637
305.128
304.659
304.228
303.832
303.469
303.136
302.832
302.555
302.302
302.071
301.862
301.672
301.499
301.343
301.201
301.074
300.958
300.854
300.761
300.677
300.601
300.534
300.473
300.419
300.371
300.328
300.289
300.255
300.224
300.197
300.174
300.152
300.134
300.117
300.102
300.089
300.078
300.068
300.059
300.052
300.045
300.039
300.034
300.029
300.025
300.022
300.019
300.016
300.014
300.012
300.01
300.009
300.008
300.007
300.006
300.005
300.004
300.004
300.003
300.003
300.002
300.002
300.002
300.001
300.001
300.001
300.001
300.001
300
300
300
300
300
342.537
340.128
337.79
335.53
333.35
331.255
329.245
327.323
325.489
323.744
322.085
320.514
319.027
317.624
316.301
315.058
313.891
312.797
311.774
310.818
309.928
309.099
308.328
307.614
306.951
306.339
305.773
305.252
304.772
304.33
303.924
303.553
303.212
302.901
302.617
302.358
302.122
301.907
301.712
301.535
301.375
301.23
301.1
300.981
300.875
300.779
300.693
300.616
300.547
300.485
300.429
300.38
300.336
300.296
300.261
300.23
300.202
300.178
300.156
300.137
300.12
300.105
300.092
300.08
300.07
300.061
300.053
300.046
300.04
300.035
300.03
300.026
300.022
300.019
300.017
300.014
300.012
300.011
300.009
300.008
300.007
300.006
300.005
300.004
300.004
300.003
300.003
300.002
300.002
300.002
300.001
300.001
300.001
300.001
300.001
300
300
300
300
300
343.532
341.066
338.674
336.361
334.13
331.986
329.929
327.962
326.085
324.299
322.602
320.993
319.472
318.036
316.683
315.41
314.215
313.096
312.049
311.071
310.16
309.311
308.523
307.792
307.114
306.487
305.908
305.375
304.883
304.431
304.016
303.636
303.287
302.969
302.678
302.413
302.171
301.952
301.752
301.571
301.407
301.259
301.125
301.004
300.896
300.798
300.709
300.63
300.56
300.496
300.439
300.389
300.343
300.303
300.267
300.235
300.207
300.182
300.16
300.14
300.123
300.107
300.094
300.082
300.071