/*--------------------------------*- C++ -*----------------------------------*\
| =========                 |                                                 |
| \\      /  F ield         | OpenFOAM: The Open Source CFD Toolbox           |
|  \\    /   O peration     | Version:  2406                                  |
|   \\  /    A nd           | Website:  www.openfoam.com                      |
|    \\/     M anipulation  |                                                 |
\*---------------------------------------------------------------------------*/
FoamFile
{
    version     2.0;
    format      ascii;
    arch        "LSB;label=32;scalar=64";
    class       volVectorField;
    location    "125";
    object      flux;
}
// * * * * * * * * * * * * * * * * * * * * * * * * * * * * * * * * * * * * * //

dimensions      [0 1 -1 1 0 0 0];

internalField   nonuniform List<vector> 
20000
(
(0.00116922 0.0106175 0)
(0.00106826 0.0128526 0)
(0.000971968 0.0148903 0)
(0.000880256 0.0167402 0)
(0.000793096 0.0184112 0)
(0.00071033 0.0199123 0)
(0.000631745 0.0212522 0)
(0.00055753 0.0224393 0)
(0.000487541 0.0234823 0)
(0.00042141 0.0243892 0)
(0.000359118 0.0251677 0)
(0.00030067 0.0258256 0)
(0.000245932 0.0263704 0)
(0.000194718 0.0268093 0)
(0.000146877 0.0271492 0)
(0.000102295 0.0273968 0)
(6.08682e-05 0.0275584 0)
(2.24826e-05 0.0276402 0)
(-1.29865e-05 0.0276483 0)
(-4.56692e-05 0.0275883 0)
(-7.56947e-05 0.0274656 0)
(-0.000103189 0.0272855 0)
(-0.000128272 0.0270529 0)
(-0.000151064 0.0267725 0)
(-0.000171677 0.0264487 0)
(-0.000190226 0.0260858 0)
(-0.000206818 0.0256878 0)
(-0.000221562 0.0252586 0)
(-0.000234561 0.0248016 0)
(-0.000245919 0.0243204 0)
(-0.000255732 0.023818 0)
(-0.000264097 0.0232975 0)
(-0.000271106 0.0227617 0)
(-0.000276847 0.0222132 0)
(-0.000281407 0.0216544 0)
(-0.000284868 0.0210876 0)
(-0.000287308 0.020515 0)
(-0.000288803 0.0199384 0)
(-0.000289427 0.0193598 0)
(-0.000289247 0.0187808 0)
(-0.000288331 0.0182029 0)
(-0.000286741 0.0176276 0)
(-0.000284536 0.017056 0)
(-0.000281775 0.0164895 0)
(-0.00027851 0.015929 0)
(-0.000274794 0.0153755 0)
(-0.000270673 0.0148299 0)
(-0.000266194 0.0142929 0)
(-0.000261399 0.0137652 0)
(-0.00025633 0.0132474 0)
(-0.000251023 0.0127399 0)
(-0.000245515 0.0122433 0)
(-0.000239839 0.0117579 0)
(-0.000234026 0.011284 0)
(-0.000228105 0.0108219 0)
(-0.000222103 0.0103717 0)
(-0.000216045 0.00993351 0)
(-0.000209954 0.00950753 0)
(-0.000203852 0.00909375 0)
(-0.000197759 0.00869217 0)
(-0.000191692 0.00830276 0)
(-0.000185669 0.00792545 0)
(-0.000179706 0.00756013 0)
(-0.000173815 0.00720667 0)
(-0.00016801 0.00686492 0)
(-0.000162302 0.00653468 0)
(-0.000156702 0.00621575 0)
(-0.000151219 0.00590791 0)
(-0.000145862 0.00561091 0)
(-0.000140638 0.00532449 0)
(-0.000135554 0.00504839 0)
(-0.000130615 0.00478231 0)
(-0.000125827 0.00452596 0)
(-0.000121195 0.00427903 0)
(-0.000116722 0.00404121 0)
(-0.000112412 0.00381217 0)
(-0.000108267 0.00359159 0)
(-0.000104289 0.00337913 0)
(-0.000100482 0.00317446 0)
(-9.68456e-05 0.00297723 0)
(-9.3382e-05 0.0027871 0)
(-9.00918e-05 0.00260373 0)
(-8.69757e-05 0.00242676 0)
(-8.40342e-05 0.00225585 0)
(-8.12676e-05 0.00209064 0)
(-7.86758e-05 0.0019308 0)
(-7.6259e-05 0.00177596 0)
(-7.40168e-05 0.00162578 0)
(-7.19492e-05 0.00147991 0)
(-7.00556e-05 0.001338 0)
(-6.83359e-05 0.0011997 0)
(-6.67896e-05 0.00106467 0)
(-6.54163e-05 0.000932561 0)
(-6.42157e-05 0.000803024 0)
(-6.31873e-05 0.000675715 0)
(-6.23309e-05 0.00055029 0)
(-6.16461e-05 0.000426406 0)
(-6.11328e-05 0.000303721 0)
(-6.07907e-05 0.00018189 0)
(-6.06196e-05 6.05731e-05 0)
(0.00350737 0.0106149 0)
(0.00320449 0.0128494 0)
(0.00291566 0.0148867 0)
(0.00264061 0.0167361 0)
(0.00237899 0.0184067 0)
(0.00213071 0.0199073 0)
(0.00189522 0.0212469 0)
(0.00167255 0.0224338 0)
(0.00146241 0.0234766 0)
(0.00126405 0.0243831 0)
(0.00107728 0.0251615 0)
(0.000901989 0.0258192 0)
(0.000737758 0.0263639 0)
(0.000584096 0.0268027 0)
(0.000440574 0.0271425 0)
(0.000306848 0.02739 0)
(0.000182588 0.0275515 0)
(6.74474e-05 0.0276334 0)
(-3.895e-05 0.0276415 0)
(-0.000136992 0.0275815 0)
(-0.000227063 0.0274589 0)
(-0.00030954 0.0272788 0)
(-0.000384786 0.0270462 0)
(-0.000453155 0.0267659 0)
(-0.000514991 0.0264422 0)
(-0.00057063 0.0260794 0)
(-0.000620403 0.0256815 0)
(-0.000664631 0.0252523 0)
(-0.000703626 0.0247955 0)
(-0.000737695 0.0243144 0)
(-0.000767133 0.0238121 0)
(-0.000792226 0.0232918 0)
(-0.000813251 0.0227561 0)
(-0.000830474 0.0222077 0)
(-0.000844152 0.021649 0)
(-0.000854533 0.0210824 0)
(-0.000861852 0.0205099 0)
(-0.000866339 0.0199335 0)
(-0.000868209 0.0193551 0)
(-0.00086767 0.0187762 0)
(-0.000864921 0.0181984 0)
(-0.000860151 0.0176232 0)
(-0.000853539 0.0170518 0)
(-0.000845255 0.0164854 0)
(-0.000835462 0.0159251 0)
(-0.000824313 0.0153717 0)
(-0.000811952 0.0148262 0)
(-0.000798516 0.0142894 0)
(-0.000784133 0.0137618 0)
(-0.000768926 0.0132441 0)
(-0.000753008 0.0127368 0)
(-0.000736486 0.0122403 0)
(-0.000719459 0.011755 0)
(-0.000702021 0.0112812 0)
(-0.000684259 0.0108192 0)
(-0.000666254 0.0103691 0)
(-0.000648081 0.00993106 0)
(-0.00062981 0.00950518 0)
(-0.000611506 0.00909151 0)
(-0.000593227 0.00869003 0)
(-0.000575029 0.00830072 0)
(-0.000556962 0.0079235 0)
(-0.000539073 0.00755827 0)
(-0.000521402 0.00720489 0)
(-0.000503988 0.00686322 0)
(-0.000486866 0.00653306 0)
(-0.000470068 0.00621421 0)
(-0.000453621 0.00590645 0)
(-0.00043755 0.00560952 0)
(-0.000421879 0.00532318 0)
(-0.000406628 0.00504714 0)
(-0.000391813 0.00478113 0)
(-0.000377451 0.00452484 0)
(-0.000363555 0.00427798 0)
(-0.000350137 0.00404021 0)
(-0.000337207 0.00381123 0)
(-0.000324773 0.00359071 0)
(-0.000312842 0.0033783 0)
(-0.000301421 0.00317368 0)
(-0.000290513 0.0029765 0)
(-0.000280123 0.00278641 0)
(-0.000270253 0.00260308 0)
(-0.000260906 0.00242616 0)
(-0.000252082 0.00225529 0)
(-0.000243783 0.00209013 0)
(-0.000236008 0.00193032 0)
(-0.000228758 0.00177552 0)
(-0.000222032 0.00162538 0)
(-0.00021583 0.00147954 0)
(-0.00021015 0.00133767 0)
(-0.000204991 0.00119941 0)
(-0.000200352 0.00106441 0)
(-0.000196233 0.000932331 0)
(-0.000192631 0.000802826 0)
(-0.000189546 0.000675548 0)
(-0.000186977 0.000550154 0)
(-0.000184923 0.000426301 0)
(-0.000183383 0.000303646 0)
(-0.000182357 0.000181846 0)
(-0.000181844 6.05582e-05 0)
(0.00584474 0.0106096 0)
(0.00534005 0.012843 0)
(0.00485862 0.0148794 0)
(0.00440026 0.0167278 0)
(0.00396429 0.0183976 0)
(0.00355054 0.0198975 0)
(0.00315828 0.0212364 0)
(0.00278719 0.0224228 0)
(0.00243686 0.023465 0)
(0.00210633 0.0243711 0)
(0.00179521 0.025149 0)
(0.00150313 0.0258065 0)
(0.00122942 0.0263509 0)
(0.000973319 0.0267895 0)
(0.000734142 0.0271291 0)
(0.00051131 0.0273765 0)
(0.00030426 0.0275379 0)
(0.0001124 0.0276197 0)
(-6.48966e-05 0.0276278 0)
(-0.000228275 0.0275679 0)
(-0.000378373 0.0274453 0)
(-0.000515815 0.0272653 0)
(-0.000641206 0.0270329 0)
(-0.000755136 0.0267527 0)
(-0.000858179 0.0264291 0)
(-0.000950896 0.0260665 0)
(-0.00103384 0.0256688 0)
(-0.00110754 0.0252399 0)
(-0.00117252 0.0247833 0)
(-0.00122929 0.0243024 0)
(-0.00127834 0.0238004 0)
(-0.00132016 0.0232803 0)
(-0.00135519 0.0227448 0)
(-0.00138389 0.0221967 0)
(-0.00140669 0.0216383 0)
(-0.00142399 0.021072 0)
(-0.00143618 0.0204998 0)
(-0.00144366 0.0199237 0)
(-0.00144678 0.0193455 0)
(-0.00144588 0.0187669 0)
(-0.0014413 0.0181894 0)
(-0.00143335 0.0176145 0)
(-0.00142233 0.0170434 0)
(-0.00140853 0.0164773 0)
(-0.00139221 0.0159172 0)
(-0.00137363 0.0153641 0)
(-0.00135303 0.0148189 0)
(-0.00133064 0.0142823 0)
(-0.00130667 0.013755 0)
(-0.00128133 0.0132375 0)
(-0.00125481 0.0127305 0)
(-0.00122727 0.0122343 0)
(-0.0011989 0.0117492 0)
(-0.00116984 0.0112757 0)
(-0.00114024 0.0108139 0)
(-0.00111024 0.010364 0)
(-0.00107996 0.00992616 0)
(-0.00104951 0.00950049 0)
(-0.00101901 0.00908702 0)
(-0.000988549 0.00868574 0)
(-0.000958225 0.00829662 0)
(-0.000928118 0.00791958 0)
(-0.000898306 0.00755454 0)
(-0.00086886 0.00720134 0)
(-0.000839842 0.00685983 0)
(-0.00081131 0.00652984 0)
(-0.000783317 0.00621115 0)
(-0.00075591 0.00590353 0)
(-0.00072913 0.00560675 0)
(-0.000703016 0.00532055 0)
(-0.000677601 0.00504465 0)
(-0.000652914 0.00477877 0)
(-0.000628982 0.00452261 0)
(-0.000605826 0.00427587 0)
(-0.000583466 0.00403822 0)
(-0.000561919 0.00380935 0)
(-0.000541199 0.00358893 0)
(-0.000521318 0.00337663 0)
(-0.000502285 0.00317211 0)
(-0.000484109 0.00297503 0)
(-0.000466795 0.00278504 0)
(-0.000450348 0.0026018 0)
(-0.000434771 0.00242496 0)
(-0.000420067 0.00225418 0)
(-0.000406238 0.00208909 0)
(-0.000393282 0.00192937 0)
(-0.000381201 0.00177464 0)
(-0.000369993 0.00162458 0)
(-0.000359657 0.00147881 0)
(-0.000350192 0.00133701 0)
(-0.000341595 0.00119882 0)
(-0.000333866 0.00106388 0)
(-0.000327001 0.000931871 0)
(-0.000320999 0.000802429 0)
(-0.000315859 0.000675215 0)
(-0.000311578 0.000549883 0)
(-0.000308155 0.000426091 0)
(-0.000305589 0.000303496 0)
(-0.000303878 0.000181756 0)
(-0.000303023 6.05283e-05 0)
(0.0081806 0.0106018 0)
(0.00747431 0.0128334 0)
(0.00680044 0.0148683 0)
(0.00615882 0.0167154 0)
(0.00554866 0.018384 0)
(0.00496953 0.0198828 0)
(0.00442052 0.0212207 0)
(0.00390111 0.0224062 0)
(0.00341071 0.0234476 0)
(0.00294811 0.024353 0)
(0.00251271 0.0251304 0)
(0.0021039 0.0257874 0)
(0.00172078 0.0263314 0)
(0.00136229 0.0267697 0)
(0.00102752 0.027109 0)
(0.00071564 0.0273562 0)
(0.000425858 0.0275175 0)
(0.000157331 0.0275993 0)
(-9.08215e-05 0.0276074 0)
(-0.000319497 0.0275474 0)
(-0.000529587 0.027425 0)
(-0.000721961 0.0272452 0)
(-0.000897468 0.0270129 0)
(-0.00105693 0.0267328 0)
(-0.00120116 0.0264095 0)
(-0.00133093 0.0260472 0)
(-0.00144701 0.0256498 0)
(-0.00155017 0.0252212 0)
(-0.00164112 0.0247649 0)
(-0.00172058 0.0242844 0)
(-0.00178924 0.0237828 0)
(-0.00184777 0.023263 0)
(-0.0018968 0.022728 0)
(-0.00193697 0.0221803 0)
(-0.00196888 0.0216223 0)
(-0.00199309 0.0210564 0)
(-0.00201016 0.0204846 0)
(-0.00202063 0.0199089 0)
(-0.00202499 0.0193312 0)
(-0.00202373 0.018753 0)
(-0.00201732 0.018176 0)
(-0.00200619 0.0176015 0)
(-0.00199077 0.0170308 0)
(-0.00197145 0.0164651 0)
(-0.00194861 0.0159054 0)
(-0.00192261 0.0153527 0)
(-0.00189377 0.0148079 0)
(-0.00186244 0.0142717 0)
(-0.00182889 0.0137448 0)
(-0.00179342 0.0132277 0)
(-0.0017563 0.0127211 0)
(-0.00171776 0.0122252 0)
(-0.00167805 0.0117405 0)
(-0.00163738 0.0112673 0)
(-0.00159595 0.0108059 0)
(-0.00155395 0.0103563 0)
(-0.00151157 0.00991881 0)
(-0.00146895 0.00949346 0)
(-0.00142626 0.00908029 0)
(-0.00138363 0.00867931 0)
(-0.00134118 0.00829047 0)
(-0.00129904 0.00791372 0)
(-0.00125732 0.00754894 0)
(-0.0012161 0.00719601 0)
(-0.00117549 0.00685475 0)
(-0.00113555 0.006525 0)
(-0.00109637 0.00620655 0)
(-0.00105801 0.00589916 0)
(-0.00102053 0.0056026 0)
(-0.00098398 0.00531661 0)
(-0.000948408 0.00504092 0)
(-0.000913855 0.00477523 0)
(-0.000880357 0.00451926 0)
(-0.000847947 0.0042727 0)
(-0.000816651 0.00403523 0)
(-0.000786493 0.00380653 0)
(-0.000757492 0.00358628 0)
(-0.000729665 0.00337413 0)
(-0.000703026 0.00316976 0)
(-0.000677585 0.00297283 0)
(-0.000653351 0.00278298 0)
(-0.000630331 0.00259987 0)
(-0.00060853 0.00242317 0)
(-0.000587949 0.00225251 0)
(-0.000568592 0.00208755 0)
(-0.000550459 0.00192794 0)
(-0.00053355 0.00177333 0)
(-0.000517862 0.00162337 0)
(-0.000503396 0.00147772 0)
(-0.000490147 0.00133602 0)
(-0.000478115 0.00119793 0)
(-0.000467296 0.0010631 0)
(-0.000457688 0.000931181 0)
(-0.000449288 0.000801835 0)
(-0.000442093 0.000674715 0)
(-0.000436101 0.000549476 0)
(-0.00043131 0.000425775 0)
(-0.000427718 0.000303271 0)
(-0.000425325 0.000181621 0)
(-0.000424128 6.04835e-05 0)
(0.0105143 0.0105914 0)
(0.0096066 0.0128208 0)
(0.0087406 0.0148536 0)
(0.00791589 0.0166989 0)
(0.00713167 0.0183658 0)
(0.00638729 0.0198632 0)
(0.00568165 0.0211997 0)
(0.00501406 0.022384 0)
(0.00438372 0.0234244 0)
(0.00378917 0.024329 0)
(0.0032296 0.0251056 0)
(0.00270416 0.0257619 0)
(0.0022117 0.0263054 0)
(0.00175091 0.0267432 0)
(0.00132063 0.0270823 0)
(0.000919793 0.0273291 0)
(0.000547354 0.0274903 0)
(0.000202227 0.027572 0)
(-0.00011672 0.0275801 0)
(-0.000410637 0.0275202 0)
(-0.000680669 0.0273979 0)
(-0.00092793 0.0272182 0)
(-0.00115351 0.0269862 0)
(-0.00135847 0.0267064 0)
(-0.00154384 0.0263835 0)
(-0.00171063 0.0260215 0)
(-0.00185984 0.0256245 0)
(-0.00199242 0.0251963 0)
(-0.00210932 0.0247405 0)
(-0.00221145 0.0242604 0)
(-0.0022997 0.0237593 0)
(-0.00237492 0.0232401 0)
(-0.00243795 0.0227056 0)
(-0.00248958 0.0221584 0)
(-0.00253058 0.021601 0)
(-0.0025617 0.0210356 0)
(-0.00258364 0.0204644 0)
(-0.00259709 0.0198893 0)
(-0.0026027 0.0193121 0)
(-0.00260108 0.0187345 0)
(-0.00259284 0.018158 0)
(-0.00257854 0.0175841 0)
(-0.00255872 0.017014 0)
(-0.00253389 0.0164488 0)
(-0.00250453 0.0158897 0)
(-0.00247111 0.0153376 0)
(-0.00243405 0.0147933 0)
(-0.00239377 0.0142576 0)
(-0.00235066 0.0137312 0)
(-0.00230507 0.0132147 0)
(-0.00225735 0.0127085 0)
(-0.00220782 0.0122131 0)
(-0.00215678 0.0117289 0)
(-0.0021045 0.0112562 0)
(-0.00205126 0.0107952 0)
(-0.00199728 0.0103461 0)
(-0.0019428 0.00990901 0)
(-0.00188803 0.00948408 0)
(-0.00183316 0.00907132 0)
(-0.00177836 0.00867073 0)
(-0.00172381 0.00828228 0)
(-0.00166965 0.0079059 0)
(-0.00161602 0.00754148 0)
(-0.00156305 0.0071889 0)
(-0.00151084 0.00684798 0)
(-0.00145952 0.00651856 0)
(-0.00140916 0.00620042 0)
(-0.00135985 0.00589333 0)
(-0.00131168 0.00559707 0)
(-0.0012647 0.00531136 0)
(-0.00121898 0.00503594 0)
(-0.00117457 0.00477052 0)
(-0.00113152 0.0045148 0)
(-0.00108986 0.00426848 0)
(-0.00104963 0.00403124 0)
(-0.00101087 0.00380277 0)
(-0.000973598 0.00358273 0)
(-0.000937832 0.0033708 0)
(-0.000903593 0.00316663 0)
(-0.000870894 0.00296989 0)
(-0.000839747 0.00278023 0)
(-0.000810159 0.00259731 0)
(-0.000782138 0.00242077 0)
(-0.000755686 0.00225028 0)
(-0.000730807 0.00208549 0)
(-0.0007075 0.00192603 0)
(-0.000685767 0.00177158 0)
(-0.000665604 0.00162177 0)
(-0.00064701 0.00147626 0)
(-0.000629982 0.0013347 0)
(-0.000614517 0.00119674 0)
(-0.000600612 0.00106205 0)
(-0.000588263 0.000930261 0)
(-0.000577466 0.000801043 0)
(-0.000568218 0.000674048 0)
(-0.000560517 0.000548933 0)
(-0.000554359 0.000425355 0)
(-0.000549743 0.000302972 0)
(-0.000546666 0.000181442 0)
(-0.000545128 6.04237e-05 0)
(0.0128455 0.0105783 0)
(0.0117365 0.012805 0)
(0.0106786 0.0148353 0)
(0.00967101 0.0166783 0)
(0.00871291 0.0183431 0)
(0.00780346 0.0198386 0)
(0.00694138 0.0211735 0)
(0.00612578 0.0223564 0)
(0.00535566 0.0233955 0)
(0.00462931 0.0242989 0)
(0.00394569 0.0250746 0)
(0.00330375 0.0257301 0)
(0.00270207 0.0262729 0)
(0.0021391 0.0267102 0)
(0.00161342 0.0270488 0)
(0.00112372 0.0272954 0)
(0.000668718 0.0274564 0)
(0.000247077 0.0275379 0)
(-0.000142586 0.027546 0)
(-0.000501675 0.0274862 0)
(-0.000831582 0.0273641 0)
(-0.00113367 0.0271846 0)
(-0.00140927 0.0269529 0)
(-0.00165967 0.0266735 0)
(-0.00188614 0.0263509 0)
(-0.00208991 0.0259893 0)
(-0.0022722 0.0255928 0)
(-0.00243418 0.0251651 0)
(-0.002577 0.0247099 0)
(-0.00270177 0.0242304 0)
(-0.00280958 0.0237299 0)
(-0.00290149 0.0232113 0)
(-0.00297849 0.0226775 0)
(-0.00304156 0.022131 0)
(-0.00309166 0.0215743 0)
(-0.00312968 0.0210096 0)
(-0.00315649 0.0204391 0)
(-0.00317292 0.0198647 0)
(-0.00317977 0.0192882 0)
(-0.0031778 0.0187113 0)
(-0.00316773 0.0181356 0)
(-0.00315026 0.0175624 0)
(-0.00312604 0.0169929 0)
(-0.0030957 0.0164285 0)
(-0.00305984 0.0158701 0)
(-0.003019 0.0153186 0)
(-0.00297373 0.014775 0)
(-0.00292452 0.01424 0)
(-0.00287185 0.0137143 0)
(-0.00281615 0.0131983 0)
(-0.00275785 0.0126928 0)
(-0.00269734 0.012198 0)
(-0.00263498 0.0117144 0)
(-0.00257111 0.0112423 0)
(-0.00250606 0.0107818 0)
(-0.00244012 0.0103333 0)
(-0.00237356 0.00989677 0)
(-0.00230665 0.00947236 0)
(-0.00223961 0.00906011 0)
(-0.00217266 0.00866002 0)
(-0.00210601 0.00827205 0)
(-0.00203984 0.00789613 0)
(-0.00197432 0.00753217 0)
(-0.00190961 0.00718002 0)
(-0.00184583 0.00683952 0)
(-0.00178312 0.0065105 0)
(-0.0017216 0.00619276 0)
(-0.00166136 0.00588605 0)
(-0.0016025 0.00559015 0)
(-0.00154511 0.0053048 0)
(-0.00148925 0.00502972 0)
(-0.00143499 0.00476462 0)
(-0.00138239 0.00450922 0)
(-0.0013315 0.00426321 0)
(-0.00128236 0.00402626 0)
(-0.001235 0.00379807 0)
(-0.00118946 0.00357831 0)
(-0.00114577 0.00336664 0)
(-0.00110394 0.00316272 0)
(-0.00106399 0.00296622 0)
(-0.00102593 0.00277679 0)
(-0.000989787 0.0025941 0)
(-0.000955553 0.00241778 0)
(-0.000923236 0.0022475 0)
(-0.000892841 0.00208291 0)
(-0.000864367 0.00192365 0)
(-0.000837814 0.00176939 0)
(-0.000813181 0.00161976 0)
(-0.000790465 0.00147443 0)
(-0.000769662 0.00133305 0)
(-0.000750768 0.00119527 0)
(-0.000733779 0.00106073 0)
(-0.000718692 0.000929112 0)
(-0.000705501 0.000800053 0)
(-0.000694203 0.000673215 0)
(-0.000684794 0.000548255 0)
(-0.000677271 0.000424829 0)
(-0.000671631 0.000302597 0)
(-0.000667873 0.000181218 0)
(-0.000665994 6.03491e-05 0)
(0.0151735 0.0105626 0)
(0.0138635 0.012786 0)
(0.0126139 0.0148133 0)
(0.0114237 0.0166535 0)
(0.010292 0.0183159 0)
(0.00921771 0.0198092 0)
(0.0081994 0.0211421 0)
(0.00723599 0.0223232 0)
(0.00632628 0.0233607 0)
(0.00546831 0.0242629 0)
(0.00466081 0.0250374 0)
(0.00390252 0.025692 0)
(0.00319177 0.026234 0)
(0.00252676 0.0266706 0)
(0.00190581 0.0270086 0)
(0.00132737 0.0272549 0)
(0.000789919 0.0274156 0)
(0.000291869 0.0274971 0)
(-0.000168415 0.0275051 0)
(-0.000592587 0.0274455 0)
(-0.000982289 0.0273235 0)
(-0.00133913 0.0271443 0)
(-0.00166468 0.0269129 0)
(-0.00196046 0.0266339 0)
(-0.00222798 0.0263118 0)
(-0.00246868 0.0259508 0)
(-0.002684 0.0255548 0)
(-0.00287534 0.0251278 0)
(-0.00304404 0.0246732 0)
(-0.00319143 0.0241945 0)
(-0.00331878 0.0236947 0)
(-0.00342734 0.0231769 0)
(-0.00351829 0.0226439 0)
(-0.0035928 0.0220982 0)
(-0.00365198 0.0215423 0)
(-0.00369689 0.0209784 0)
(-0.00372855 0.0204088 0)
(-0.00374796 0.0198352 0)
(-0.00375605 0.0192596 0)
(-0.00375372 0.0186836 0)
(-0.00374183 0.0181087 0)
(-0.00372119 0.0175363 0)
(-0.00369259 0.0169677 0)
(-0.00365675 0.0164041 0)
(-0.00361438 0.0158465 0)
(-0.00356615 0.0152959 0)
(-0.00351267 0.0147531 0)
(-0.00345454 0.0142189 0)
(-0.00339232 0.0136939 0)
(-0.00332654 0.0131788 0)
(-0.00325767 0.012674 0)
(-0.00318619 0.0121799 0)
(-0.00311253 0.011697 0)
(-0.00303709 0.0112256 0)
(-0.00296025 0.0107658 0)
(-0.00288235 0.010318 0)
(-0.00280373 0.00988208 0)
(-0.00272469 0.00945831 0)
(-0.0026455 0.00904667 0)
(-0.00256642 0.00864717 0)
(-0.0024877 0.00825978 0)
(-0.00240954 0.00788442 0)
(-0.00233214 0.00752099 0)
(-0.00225569 0.00716936 0)
(-0.00218036 0.00682937 0)
(-0.00210628 0.00650084 0)
(-0.00203361 0.00618357 0)
(-0.00196246 0.00587732 0)
(-0.00189293 0.00558186 0)
(-0.00182514 0.00529693 0)
(-0.00175916 0.00502225 0)
(-0.00169507 0.00475755 0)
(-0.00163293 0.00450253 0)
(-0.00157282 0.00425688 0)
(-0.00151477 0.00402029 0)
(-0.00145883 0.00379244 0)
(-0.00140504 0.003573 0)
(-0.00135342 0.00336164 0)
(-0.00130401 0.00315803 0)
(-0.00125682 0.00296182 0)
(-0.00121187 0.00277267 0)
(-0.00116917 0.00259025 0)
(-0.00112873 0.00241419 0)
(-0.00109056 0.00224417 0)
(-0.00105465 0.00207982 0)
(-0.00102102 0.0019208 0)
(-0.000989655 0.00176676 0)
(-0.000960558 0.00161736 0)
(-0.000933724 0.00147225 0)
(-0.000909151 0.00133107 0)
(-0.000886833 0.00119349 0)
(-0.000866766 0.00105916 0)
(-0.000848944 0.000927734 0)
(-0.000833362 0.000798866 0)
(-0.000820017 0.000672216 0)
(-0.000808903 0.000547441 0)
(-0.000800016 0.000424199 0)
(-0.000793354 0.000302148 0)
(-0.000788914 0.000180949 0)
(-0.000786695 6.02596e-05 0)
(0.0174978 0.0105443 0)
(0.0159872 0.0127639 0)
(0.0145461 0.0147876 0)
(0.0131736 0.0166247 0)
(0.0118685 0.0182841 0)
(0.0106297 0.0197748 0)
(0.0094554 0.0211055 0)
(0.00834442 0.0222845 0)
(0.00729534 0.0233203 0)
(0.00630595 0.0242208 0)
(0.00537477 0.024994 0)
(0.00450031 0.0256474 0)
(0.00368067 0.0261885 0)
(0.00291379 0.0266243 0)
(0.00219773 0.0269618 0)
(0.0015307 0.0272076 0)
(0.000910929 0.0273681 0)
(0.000336591 0.0274494 0)
(-0.000194201 0.0274575 0)
(-0.000683352 0.0273979 0)
(-0.00113275 0.0272761 0)
(-0.00154426 0.0270973 0)
(-0.00191968 0.0268662 0)
(-0.00226077 0.0265877 0)
(-0.00256926 0.0262662 0)
(-0.00284684 0.0259058 0)
(-0.00309515 0.0255106 0)
(-0.00331579 0.0250843 0)
(-0.00351033 0.0246305 0)
(-0.00368029 0.0241526 0)
(-0.00382716 0.0236537 0)
(-0.00395234 0.0231367 0)
(-0.00405723 0.0226046 0)
(-0.00414315 0.0220599 0)
(-0.00421139 0.0215049 0)
(-0.00426318 0.0209421 0)
(-0.0042997 0.0203734 0)
(-0.00432208 0.0198008 0)
(-0.00433141 0.0192262 0)
(-0.00432872 0.0186512 0)
(-0.00431501 0.0180773 0)
(-0.00429121 0.0175059 0)
(-0.00425822 0.0169383 0)
(-0.0042169 0.0163757 0)
(-0.00416804 0.0158191 0)
(-0.00411242 0.0152694 0)
(-0.00405075 0.0147275 0)
(-0.00398372 0.0141942 0)
(-0.00391197 0.0136702 0)
(-0.0038361 0.0131559 0)
(-0.00375669 0.012652 0)
(-0.00367426 0.0121588 0)
(-0.00358931 0.0116768 0)
(-0.00350231 0.0112061 0)
(-0.0034137 0.0107472 0)
(-0.00332388 0.0103001 0)
(-0.00323321 0.00986496 0)
(-0.00314206 0.00944192 0)
(-0.00305074 0.00903099 0)
(-0.00295955 0.00863219 0)
(-0.00286877 0.00824547 0)
(-0.00277863 0.00787076 0)
(-0.00268938 0.00750796 0)
(-0.00260122 0.00715694 0)
(-0.00251435 0.00681754 0)
(-0.00242893 0.00648958 0)
(-0.00234512 0.00617285 0)
(-0.00226307 0.00586713 0)
(-0.0021829 0.00557219 0)
(-0.00210471 0.00528775 0)
(-0.00202863 0.00501355 0)
(-0.00195472 0.00474931 0)
(-0.00188307 0.00449473 0)
(-0.00181374 0.0042495 0)
(-0.0017468 0.00401332 0)
(-0.00168229 0.00378587 0)
(-0.00162026 0.00356681 0)
(-0.00156074 0.00335582 0)
(-0.00150376 0.00315255 0)
(-0.00144934 0.00295669 0)
(-0.00139751 0.00276787 0)
(-0.00134827 0.00258576 0)
(-0.00130163 0.00241001 0)
(-0.00125761 0.00224028 0)
(-0.00121621 0.00207621 0)
(-0.00117742 0.00191747 0)
(-0.00114125 0.0017637 0)
(-0.0011077 0.00161456 0)
(-0.00107675 0.0014697 0)
(-0.00104842 0.00132877 0)
(-0.00102268 0.00119142 0)
(-0.000999538 0.00105733 0)
(-0.000978986 0.000926126 0)
(-0.000961018 0.000797482 0)
(-0.000945628 0.000671052 0)
(-0.000932812 0.000546493 0)
(-0.000922564 0.000423464 0)
(-0.000914882 0.000301625 0)
(-0.000909761 0.000180635 0)
(-0.000907202 6.01551e-05 0)
(0.0198178 0.0105234 0)
(0.0181069 0.0127385 0)
(0.0164747 0.0147583 0)
(0.0149203 0.0165917 0)
(0.0134421 0.0182479 0)
(0.012039 0.0197356 0)
(0.0107091 0.0210636 0)
(0.00945079 0.0222403 0)
(0.0082626 0.023274 0)
(0.00714204 0.0241728 0)
(0.00608741 0.0249445 0)
(0.005097 0.0255966 0)
(0.00416867 0.0261366 0)
(0.0033001 0.0265716 0)
(0.0024891 0.0269084 0)
(0.00173365 0.0271537 0)
(0.00103172 0.0273139 0)
(0.000381231 0.027395 0)
(-0.000219937 0.027403 0)
(-0.000773948 0.0273436 0)
(-0.00128294 0.027222 0)
(-0.00174901 0.0270435 0)
(-0.0021742 0.026813 0)
(-0.00256052 0.026535 0)
(-0.00290992 0.0262141 0)
(-0.0032243 0.0258544 0)
(-0.00350552 0.02546 0)
(-0.00375542 0.0250345 0)
(-0.00397576 0.0245817 0)
(-0.00416825 0.0241047 0)
(-0.00433459 0.0236068 0)
(-0.00447637 0.0230909 0)
(-0.00459517 0.0225598 0)
(-0.00469248 0.0220161 0)
(-0.00476977 0.0214623 0)
(-0.00482842 0.0209006 0)
(-0.00486978 0.020333 0)
(-0.00489513 0.0197616 0)
(-0.0049057 0.0191881 0)
(-0.00490266 0.0186142 0)
(-0.00488712 0.0180415 0)
(-0.00486017 0.0174712 0)
(-0.00482281 0.0169047 0)
(-0.004776 0.0163432 0)
(-0.00472067 0.0157877 0)
(-0.00465767 0.0152391 0)
(-0.00458783 0.0146983 0)
(-0.00451191 0.0141661 0)
(-0.00443064 0.0136431 0)
(-0.00434472 0.0131298 0)
(-0.00425477 0.0126269 0)
(-0.00416142 0.0121347 0)
(-0.00406521 0.0116536 0)
(-0.00396668 0.0111839 0)
(-0.00386631 0.0107259 0)
(-0.00376458 0.0102797 0)
(-0.0036619 0.0098454 0)
(-0.00355866 0.0094232 0)
(-0.00345523 0.00901309 0)
(-0.00335195 0.00861507 0)
(-0.00324913 0.00822912 0)
(-0.00314704 0.00785515 0)
(-0.00304596 0.00749307 0)
(-0.00294611 0.00714275 0)
(-0.00284772 0.00680402 0)
(-0.00275097 0.00647671 0)
(-0.00265605 0.00616061 0)
(-0.00256312 0.0058555 0)
(-0.00247232 0.00556114 0)
(-0.00238377 0.00527727 0)
(-0.0022976 0.00500361 0)
(-0.00221389 0.00473989 0)
(-0.00213274 0.00448582 0)
(-0.00205422 0.00424108 0)
(-0.0019784 0.00400537 0)
(-0.00190534 0.00377836 0)
(-0.00183509 0.00355974 0)
(-0.00176767 0.00334916 0)
(-0.00170314 0.0031463 0)
(-0.00164151 0.00295082 0)
(-0.0015828 0.00276238 0)
(-0.00152703 0.00258063 0)
(-0.00147421 0.00240523 0)
(-0.00142436 0.00223584 0)
(-0.00137746 0.0020721 0)
(-0.00133353 0.00191367 0)
(-0.00129257 0.00176021 0)
(-0.00125456 0.00161136 0)
(-0.00121952 0.00146678 0)
(-0.00118742 0.00132613 0)
(-0.00115827 0.00118906 0)
(-0.00113206 0.00105523 0)
(-0.00110879 0.00092429 0)
(-0.00108844 0.000795901 0)
(-0.00107101 0.000669721 0)
(-0.00105649 0.000545409 0)
(-0.00104488 0.000422624 0)
(-0.00103618 0.000301027 0)
(-0.00103038 0.000180277 0)
(-0.00102749 6.00359e-05 0)
(0.0221329 0.0104999 0)
(0.0202221 0.0127101 0)
(0.0183993 0.0147253 0)
(0.0166633 0.0165547 0)
(0.0150124 0.0182071 0)
(0.0134454 0.0196916 0)
(0.0119601 0.0210166 0)
(0.0105548 0.0221907 0)
(0.00922782 0.0232221 0)
(0.00797636 0.0241188 0)
(0.00679854 0.0248888 0)
(0.00569243 0.0255394 0)
(0.00465564 0.0260782 0)
(0.0036856 0.0265122 0)
(0.00277987 0.0268483 0)
(0.00193617 0.0270931 0)
(0.00115225 0.0272529 0)
(0.000425779 0.0273338 0)
(-0.000245619 0.0273419 0)
(-0.000864353 0.0272825 0)
(-0.00143281 0.0271613 0)
(-0.00195333 0.0269832 0)
(-0.0024282 0.0267531 0)
(-0.00285964 0.0264758 0)
(-0.00324985 0.0261556 0)
(-0.00360096 0.0257967 0)
(-0.00391504 0.0254031 0)
(-0.00419413 0.0249786 0)
(-0.0044402 0.0245268 0)
(-0.00465519 0.0240508 0)
(-0.00484095 0.023554 0)
(-0.0049993 0.0230393 0)
(-0.00513197 0.0225094 0)
(-0.00524065 0.021967 0)
(-0.00532697 0.0214144 0)
(-0.00539248 0.0208539 0)
(-0.00543867 0.0202876 0)
(-0.00546698 0.0197175 0)
(-0.00547878 0.0191453 0)
(-0.00547538 0.0185727 0)
(-0.00545803 0.0180012 0)
(-0.00542793 0.0174322 0)
(-0.0053862 0.016867 0)
(-0.00533393 0.0163067 0)
(-0.00527213 0.0157524 0)
(-0.00520177 0.0152051 0)
(-0.00512377 0.0146655 0)
(-0.00503898 0.0141345 0)
(-0.00494822 0.0136126 0)
(-0.00485226 0.0131005 0)
(-0.00475181 0.0125987 0)
(-0.00464755 0.0121076 0)
(-0.0045401 0.0116276 0)
(-0.00443006 0.011159 0)
(-0.00431797 0.0107019 0)
(-0.00420435 0.0102567 0)
(-0.00408968 0.00982342 0)
(-0.00397438 0.00940216 0)
(-0.00385887 0.00899296 0)
(-0.00374352 0.00859584 0)
(-0.00362869 0.00821074 0)
(-0.00351468 0.00783761 0)
(-0.00340178 0.00747634 0)
(-0.00329027 0.0071268 0)
(-0.00318038 0.00678883 0)
(-0.00307234 0.00646225 0)
(-0.00296633 0.00614686 0)
(-0.00286254 0.00584243 0)
(-0.00276113 0.00554872 0)
(-0.00266224 0.00526548 0)
(-0.002566 0.00499244 0)
(-0.00247251 0.00472931 0)
(-0.00238188 0.0044758 0)
(-0.00229419 0.00423161 0)
(-0.00220952 0.00399642 0)
(-0.00212792 0.00376992 0)
(-0.00204946 0.00355179 0)
(-0.00197417 0.00334168 0)
(-0.0019021 0.00313928 0)
(-0.00183326 0.00294424 0)
(-0.0017677 0.00275621 0)
(-0.00170542 0.00257487 0)
(-0.00164643 0.00239986 0)
(-0.00159075 0.00223084 0)
(-0.00153838 0.00206747 0)
(-0.00148931 0.0019094 0)
(-0.00144356 0.00175627 0)
(-0.00140112 0.00160776 0)
(-0.00136198 0.00146351 0)
(-0.00132614 0.00132317 0)
(-0.00129358 0.00118641 0)
(-0.00126431 0.00105287 0)
(-0.00123831 0.000922226 0)
(-0.00121559 0.000794124 0)
(-0.00119612 0.000668226 0)
(-0.00117991 0.000544191 0)
(-0.00116695 0.000421681 0)
(-0.00115723 0.000300355 0)
(-0.00115075 0.000179875 0)
(-0.00114751 5.99018e-05 0)
(0.0244425 0.0104738 0)
(0.0223323 0.0126785 0)
(0.0203193 0.0146887 0)
(0.0184021 0.0165135 0)
(0.016579 0.0181619 0)
(0.0148485 0.0196426 0)
(0.0132082 0.0209644 0)
(0.0116563 0.0221355 0)
(0.0101908 0.0231644 0)
(0.00880872 0.0240589 0)
(0.00750799 0.0248269 0)
(0.00628645 0.025476 0)
(0.00514146 0.0260134 0)
(0.00407019 0.0264463 0)
(0.00306995 0.0267816 0)
(0.00213822 0.0270257 0)
(0.0012725 0.0271851 0)
(0.000470223 0.0272659 0)
(-0.00027124 0.0272739 0)
(-0.000954544 0.0272147 0)
(-0.00158232 0.0270938 0)
(-0.00215716 0.0269161 0)
(-0.00268159 0.0266866 0)
(-0.00315806 0.02641 0)
(-0.00358899 0.0260906 0)
(-0.00397673 0.0257326 0)
(-0.00432359 0.02534 0)
(-0.0046318 0.0249166 0)
(-0.00490355 0.0244658 0)
(-0.00514097 0.0239911 0)
(-0.00534612 0.0234955 0)
(-0.00552099 0.0229821 0)
(-0.00566751 0.0224535 0)
(-0.00578753 0.0219124 0)
(-0.00588286 0.0213612 0)
(-0.0059552 0.0208021 0)
(-0.00600621 0.0202372 0)
(-0.00603747 0.0196685 0)
(-0.0060505 0.0190977 0)
(-0.00604675 0.0185265 0)
(-0.0060276 0.0179564 0)
(-0.00599435 0.0173889 0)
(-0.00594827 0.0168251 0)
(-0.00589054 0.0162662 0)
(-0.0058223 0.0157133 0)
(-0.00574459 0.0151673 0)
(-0.00565845 0.0146291 0)
(-0.00556482 0.0140993 0)
(-0.00546459 0.0135788 0)
(-0.00535861 0.013068 0)
(-0.00524768 0.0125674 0)
(-0.00513253 0.0120775 0)
(-0.00501387 0.0115987 0)
(-0.00489235 0.0111312 0)
(-0.00476857 0.0106753 0)
(-0.00464309 0.0102312 0)
(-0.00451644 0.00979901 0)
(-0.00438912 0.00937879 0)
(-0.00426155 0.00897061 0)
(-0.00413417 0.00857448 0)
(-0.00400735 0.00819034 0)
(-0.00388144 0.00781814 0)
(-0.00375677 0.00745776 0)
(-0.00363362 0.00710909 0)
(-0.00351227 0.00677196 0)
(-0.00339295 0.00644619 0)
(-0.00327588 0.00613158 0)
(-0.00316126 0.00582791 0)
(-0.00304927 0.00553493 0)
(-0.00294006 0.0052524 0)
(-0.00283377 0.00498003 0)
(-0.00273053 0.00471756 0)
(-0.00263044 0.00446468 0)
(-0.0025336 0.00422109 0)
(-0.00244009 0.00398649 0)
(-0.00234998 0.00376056 0)
(-0.00226333 0.00354296 0)
(-0.00218018 0.00333338 0)
(-0.00210059 0.00313148 0)
(-0.00202457 0.00293692 0)
(-0.00195216 0.00274936 0)
(-0.00188338 0.00256847 0)
(-0.00181824 0.0023939 0)
(-0.00175675 0.0022253 0)
(-0.00169891 0.00206233 0)
(-0.00164473 0.00190465 0)
(-0.0015942 0.00175191 0)
(-0.00154733 0.00160377 0)
(-0.00150411 0.00145987 0)
(-0.00146452 0.00131988 0)
(-0.00142857 0.00118346 0)
(-0.00139625 0.00105026 0)
(-0.00136754 0.000919935 0)
(-0.00134244 0.000792151 0)
(-0.00132094 0.000666565 0)
(-0.00130304 0.000542839 0)
(-0.00128872 0.000420633 0)
(-0.00127799 0.000299608 0)
(-0.00127084 0.000179428 0)
(-0.00126726 5.9753e-05 0)