/*--------------------------------*- C++ -*----------------------------------*\
| =========                 |                                                 |
| \\      /  F ield         | OpenFOAM: The Open Source CFD Toolbox           |
|  \\    /   O peration     | Version:  2406                                  |
|   \\  /    A nd           | Website:  www.openfoam.com                      |
|    \\/     M anipulation  |                                                 |
\*---------------------------------------------------------------------------*/
FoamFile
{
    version     2.0;
    format      ascii;
    arch        "LSB;label=32;scalar=64";
    class       volVectorField;
    location    "20";
    object      flux;
}
// * * * * * * * * * * * * * * * * * * * * * * * * * * * * * * * * * * * * * //

dimensions      [0 1 -1 1 0 0 0];

internalField   nonuniform List<vector> 
20000
(
(-0.00126851 0.0293735 0)
(-0.00117791 0.0269298 0)
(-0.00109245 0.0246622 0)
(-0.00101194 0.0225603 0)
(-0.000936171 0.0206147 0)
(-0.000865015 0.0188158 0)
(-0.000798302 0.0171548 0)
(-0.000735809 0.0156229 0)
(-0.000677322 0.0142118 0)
(-0.000622737 0.0129137 0)
(-0.000571867 0.011721 0)
(-0.000524459 0.0106264 0)
(-0.000480363 0.00962328 0)
(-0.000439447 0.00870506 0)
(-0.000401528 0.00786558 0)
(-0.000366415 0.00709905 0)
(-0.000333943 0.00640003 0)
(-0.000303965 0.00576337 0)
(-0.000276339 0.00518424 0)
(-0.000250916 0.00465808 0)
(-0.000227552 0.00418063 0)
(-0.000206105 0.00374793 0)
(-0.000186445 0.00335627 0)
(-0.00016845 0.0030022 0)
(-0.000152004 0.00268251 0)
(-0.000136996 0.00239422 0)
(-0.000123319 0.00213456 0)
(-0.000110874 0.00190097 0)
(-9.95645e-05 0.00169109 0)
(-8.93006e-05 0.00150274 0)
(-7.99981e-05 0.00133391 0)
(-7.15783e-05 0.00118276 0)
(-6.39678e-05 0.00104761 0)
(-5.70983e-05 0.000926909 0)
(-5.09058e-05 0.000819235 0)
(-4.53314e-05 0.000723299 0)
(-4.032e-05 0.000637921 0)
(-3.58208e-05 0.000562029 0)
(-3.17867e-05 0.000494647 0)
(-2.81744e-05 0.00043489 0)
(-2.49441e-05 0.000381956 0)
(-2.2059e-05 0.00033512 0)
(-1.94855e-05 0.000293726 0)
(-1.71929e-05 0.000257183 0)
(-1.51532e-05 0.000224958 0)
(-1.33406e-05 0.000196574 0)
(-1.17319e-05 0.000171599 0)
(-1.0306e-05 0.000149649 0)
(-9.04348e-06 0.000130378 0)
(-7.92711e-06 0.000113477 0)
(-6.94113e-06 9.86711e-05 0)
(-6.07133e-06 8.57142e-05 0)
(-5.30493e-06 7.43873e-05 0)
(-4.63044e-06 6.44958e-05 0)
(-4.03751e-06 5.58667e-05 0)
(-3.51689e-06 4.83467e-05 0)
(-3.06027e-06 4.18e-05 0)
(-2.66024e-06 3.61064e-05 0)
(-2.31019e-06 3.11597e-05 0)
(-2.00419e-06 2.68662e-05 0)
(-1.73702e-06 2.31434e-05 0)
(-1.50398e-06 1.99186e-05 0)
(-1.30095e-06 1.71279e-05 0)
(-1.12424e-06 1.47151e-05 0)
(-9.70604e-07 1.26312e-05 0)
(-8.37173e-07 1.0833e-05 0)
(-7.21408e-07 9.28272e-06 0)
(-6.21074e-07 7.94751e-06 0)
(-5.34202e-07 6.79858e-06 0)
(-4.59062e-07 5.81083e-06 0)
(-3.94135e-07 4.96244e-06 0)
(-3.38088e-07 4.23439e-06 0)
(-2.89755e-07 3.61017e-06 0)
(-2.48114e-07 3.07544e-06 0)
(-2.12274e-07 2.61778e-06 0)
(-1.81456e-07 2.2264e-06 0)
(-1.54983e-07 1.89199e-06 0)
(-1.32264e-07 1.6065e-06 0)
(-1.12785e-07 1.36297e-06 0)
(-9.61e-08 1.15539e-06 0)
(-8.18232e-08 9.78595e-07 0)
(-6.96192e-08 8.2812e-07 0)
(-5.91981e-08 7.00135e-07 0)
(-5.03094e-08 5.91342e-07 0)
(-4.27371e-08 4.98909e-07 0)
(-3.62948e-08 4.20404e-07 0)
(-3.08225e-08 3.53739e-07 0)
(-2.61825e-08 2.97122e-07 0)
(-2.22571e-08 2.49015e-07 0)
(-1.89454e-08 2.08099e-07 0)
(-1.61619e-08 1.73238e-07 0)
(-1.38335e-08 1.43455e-07 0)
(-1.18991e-08 1.17907e-07 0)
(-1.03071e-08 9.58614e-08 0)
(-9.015e-09 7.66807e-08 0)
(-7.98789e-09 5.98035e-08 0)
(-7.19793e-09 4.4731e-08 0)
(-6.6236e-09 3.10135e-08 0)
(-6.24919e-09 1.82382e-08 0)
(-6.06438e-09 6.01812e-09 0)
(-0.00380522 0.0293663 0)
(-0.00353343 0.0269232 0)
(-0.00327704 0.0246561 0)
(-0.00303554 0.0225548 0)
(-0.00280832 0.0206096 0)
(-0.00259487 0.0188112 0)
(-0.00239468 0.0171506 0)
(-0.00220721 0.015619 0)
(-0.00203184 0.0142083 0)
(-0.00186809 0.0129105 0)
(-0.00171543 0.0117181 0)
(-0.00157322 0.0106238 0)
(-0.00144098 0.00962092 0)
(-0.00131825 0.00870291 0)
(-0.00120449 0.00786363 0)
(-0.00109914 0.00709729 0)
(-0.00100174 0.00639845 0)
(-0.000911821 0.00576196 0)
(-0.000828953 0.00518296 0)
(-0.000752691 0.00465693 0)
(-0.0006826 0.0041796 0)
(-0.000618262 0.003747 0)
(-0.000559287 0.00335544 0)
(-0.000505307 0.00300146 0)
(-0.000455973 0.00268185 0)
(-0.000410953 0.00239363 0)
(-0.000369928 0.00213403 0)
(-0.000332596 0.0019005 0)
(-0.000298669 0.00169067 0)
(-0.00026788 0.00150237 0)
(-0.000239974 0.00133358 0)
(-0.000214717 0.00118247 0)
(-0.000191888 0.00104736 0)
(-0.000171281 0.00092668 0)
(-0.000152705 0.000819033 0)
(-0.000135983 0.00072312 0)
(-0.00012095 0.000637764 0)
(-0.000107453 0.00056189 0)
(-9.53522e-05 0.000494525 0)
(-8.45163e-05 0.000434783 0)
(-7.48261e-05 0.000381862 0)
(-6.61715e-05 0.000335037 0)
(-5.84517e-05 0.000293653 0)
(-5.15746e-05 0.000257119 0)
(-4.54558e-05 0.000224903 0)
(-4.00185e-05 0.000196525 0)
(-3.51929e-05 0.000171557 0)
(-3.09153e-05 0.000149612 0)
(-2.71282e-05 0.000130345 0)
(-2.37794e-05 0.000113449 0)
(-2.08217e-05 9.86468e-05 0)
(-1.82125e-05 8.56931e-05 0)
(-1.59135e-05 7.4369e-05 0)
(-1.38902e-05 6.44799e-05 0)
(-1.21115e-05 5.5853e-05 0)
(-1.05498e-05 4.83348e-05 0)
(-9.18005e-06 4.17897e-05 0)
(-7.98007e-06 3.60975e-05 0)
(-6.92999e-06 3.11521e-05 0)
(-6.01209e-06 2.68596e-05 0)
(-5.21062e-06 2.31377e-05 0)
(-4.51157e-06 1.99137e-05 0)
(-3.90252e-06 1.71237e-05 0)
(-3.37244e-06 1.47115e-05 0)
(-2.91157e-06 1.26281e-05 0)
(-2.51131e-06 1.08303e-05 0)
(-2.16405e-06 9.28044e-06 0)
(-1.86307e-06 7.94556e-06 0)
(-1.60248e-06 6.79691e-06 0)
(-1.37707e-06 5.80941e-06 0)
(-1.18231e-06 4.96122e-06 0)
(-1.01418e-06 4.23335e-06 0)
(-8.69193e-07 3.60929e-06 0)
(-7.44281e-07 3.07469e-06 0)
(-6.3677e-07 2.61714e-06 0)
(-5.44325e-07 2.22586e-06 0)
(-4.64912e-07 1.89153e-06 0)
(-3.96759e-07 1.60611e-06 0)
(-3.38326e-07 1.36264e-06 0)
(-2.88277e-07 1.15511e-06 0)
(-2.4545e-07 9.78357e-07 0)
(-2.08841e-07 8.27919e-07 0)
(-1.7758e-07 6.99965e-07 0)
(-1.50916e-07 5.91199e-07 0)
(-1.28201e-07 4.98789e-07 0)
(-1.08876e-07 4.20302e-07 0)
(-9.24601e-08 3.53653e-07 0)
(-7.85413e-08 2.9705e-07 0)
(-6.67659e-08 2.48955e-07 0)
(-5.68318e-08 2.08048e-07 0)
(-4.84817e-08 1.73196e-07 0)
(-4.14973e-08 1.43421e-07 0)
(-3.56945e-08 1.17879e-07 0)
(-3.0919e-08 9.58386e-08 0)
(-2.70429e-08 7.66625e-08 0)
(-2.39618e-08 5.97894e-08 0)
(-2.15921e-08 4.47206e-08 0)
(-1.98693e-08 3.10063e-08 0)
(-1.87462e-08 1.8234e-08 0)
(-1.81919e-08 6.01681e-09 0)
(-0.00634101 0.0293518 0)
(-0.00588811 0.0269099 0)
(-0.00546082 0.0246439 0)
(-0.00505837 0.0225436 0)
(-0.00467975 0.0205994 0)
(-0.00432409 0.0188019 0)
(-0.00399048 0.0171421 0)
(-0.00367806 0.0156113 0)
(-0.00338586 0.0142013 0)
(-0.00311298 0.0129041 0)
(-0.00285855 0.0117123 0)
(-0.00262159 0.0106186 0)
(-0.00240126 0.00961618 0)
(-0.00219674 0.00869861 0)
(-0.00200714 0.00785974 0)
(-0.00183159 0.00709379 0)
(-0.00166928 0.0063953 0)
(-0.00151945 0.00575912 0)
(-0.00138137 0.00518041 0)
(-0.00125428 0.00465463 0)
(-0.00113748 0.00417753 0)
(-0.00103026 0.00374515 0)
(-0.000931988 0.00335378 0)
(-0.000842037 0.00299998 0)
(-0.00075983 0.00268053 0)
(-0.00068481 0.00239245 0)
(-0.000616447 0.00213298 0)
(-0.000554236 0.00189957 0)
(-0.000497701 0.00168984 0)
(-0.000446393 0.00150162 0)
(-0.000399892 0.00133292 0)
(-0.000357803 0.00118189 0)
(-0.00031976 0.00104684 0)
(-0.00028542 0.000926222 0)
(-0.000254466 0.000818628 0)
(-0.000226601 0.000722763 0)
(-0.00020155 0.000637449 0)
(-0.00017906 0.000561613 0)
(-0.000158894 0.000494281 0)
(-0.000140837 0.000434568 0)
(-0.00012469 0.000381673 0)
(-0.000110268 0.000334872 0)
(-9.74035e-05 0.000293508 0)
(-8.59435e-05 0.000256992 0)
(-7.57472e-05 0.000224792 0)
(-6.66866e-05 0.000196428 0)
(-5.86452e-05 0.000171472 0)
(-5.15171e-05 0.000149538 0)
(-4.52063e-05 0.000130281 0)
(-3.96258e-05 0.000113393 0)
(-3.46971e-05 9.85981e-05 0)
(-3.03491e-05 8.56508e-05 0)
(-2.65181e-05 7.43323e-05 0)
(-2.31465e-05 6.44481e-05 0)
(-2.01826e-05 5.58254e-05 0)
(-1.75801e-05 4.8311e-05 0)
(-1.52976e-05 4.17691e-05 0)
(-1.32979e-05 3.60797e-05 0)
(-1.15481e-05 3.11367e-05 0)
(-1.00185e-05 2.68464e-05 0)
(-8.68294e-06 2.31263e-05 0)
(-7.51805e-06 1.99039e-05 0)
(-6.50313e-06 1.71152e-05 0)
(-5.6198e-06 1.47043e-05 0)
(-4.85183e-06 1.26219e-05 0)
(-4.18484e-06 1.0825e-05 0)
(-3.60616e-06 9.27588e-06 0)
(-3.10461e-06 7.94165e-06 0)
(-2.67035e-06 6.79357e-06 0)
(-2.29475e-06 5.80655e-06 0)
(-1.97019e-06 4.95879e-06 0)
(-1.69003e-06 4.23127e-06 0)
(-1.44842e-06 3.60751e-06 0)
(-1.24027e-06 3.07318e-06 0)
(-1.06111e-06 2.61585e-06 0)
(-9.0706e-07 2.22476e-06 0)
(-7.74726e-07 1.89061e-06 0)
(-6.61157e-07 1.60533e-06 0)
(-5.63785e-07 1.36197e-06 0)
(-4.80382e-07 1.15455e-06 0)
(-4.09016e-07 9.77878e-07 0)
(-3.48011e-07 8.27514e-07 0)
(-2.95918e-07 6.99623e-07 0)
(-2.51486e-07 5.9091e-07 0)
(-2.13633e-07 4.98545e-07 0)
(-1.8143e-07 4.20098e-07 0)
(-1.54075e-07 3.53481e-07 0)
(-1.30881e-07 2.96905e-07 0)
(-1.11258e-07 2.48834e-07 0)
(-9.47043e-08 2.07948e-07 0)
(-8.07897e-08 1.73112e-07 0)
(-6.9151e-08 1.43351e-07 0)
(-5.94811e-08 1.17822e-07 0)
(-5.15232e-08 9.57924e-08 0)
(-4.50642e-08 7.66257e-08 0)
(-3.99298e-08 5.97608e-08 0)
(-3.5981e-08 4.46993e-08 0)
(-3.31102e-08 3.09916e-08 0)
(-3.12387e-08 1.82255e-08 0)
(-3.03152e-08 6.01401e-09 0)
(-0.00887524 0.0293301 0)
(-0.00824137 0.02689 0)
(-0.00764329 0.0246256 0)
(-0.00707996 0.0225269 0)
(-0.00655001 0.0205842 0)
(-0.00605223 0.018788 0)
(-0.00558531 0.0171294 0)
(-0.00514802 0.0155997 0)
(-0.00473903 0.0141908 0)
(-0.00435709 0.0128946 0)
(-0.00400097 0.0117036 0)
(-0.00366933 0.0106107 0)
(-0.00336095 0.00960905 0)
(-0.00307469 0.00869216 0)
(-0.0028093 0.00785392 0)
(-0.00256358 0.00708854 0)
(-0.00233641 0.00639057 0)
(-0.00212671 0.00575486 0)
(-0.00193344 0.00517657 0)
(-0.00175557 0.00465118 0)
(-0.00159208 0.00417443 0)
(-0.00144201 0.00374237 0)
(-0.00130446 0.0033513 0)
(-0.00117856 0.00299776 0)
(-0.0010635 0.00267854 0)
(-0.000958498 0.00239068 0)
(-0.000862814 0.0021314 0)
(-0.000775741 0.00189816 0)
(-0.000696611 0.00168859 0)
(-0.000624797 0.00150051 0)
(-0.00055971 0.00133193 0)
(-0.0005008 0.00118101 0)
(-0.000447553 0.00104606 0)
(-0.00039949 0.000925536 0)
(-0.000356164 0.000818022 0)
(-0.000317163 0.000722228 0)
(-0.0002821 0.000636976 0)
(-0.000250621 0.000561197 0)
(-0.000222397 0.000493915 0)
(-0.000197124 0.000434246 0)
(-0.000174522 0.000381391 0)
(-0.000154337 0.000334624 0)
(-0.000136331 0.000293291 0)
(-0.000120291 0.000256802 0)
(-0.00010602 0.000224625 0)
(-9.33382e-05 0.000196283 0)
(-8.2083e-05 0.000171345 0)
(-7.21061e-05 0.000149427 0)
(-6.32732e-05 0.000130185 0)
(-5.54624e-05 0.000113309 0)
(-4.85639e-05 9.85252e-05 0)
(-4.24783e-05 8.55874e-05 0)
(-3.71162e-05 7.42773e-05 0)
(-3.23971e-05 6.44004e-05 0)
(-2.82486e-05 5.57841e-05 0)
(-2.46061e-05 4.82753e-05 0)
(-2.14113e-05 4.17383e-05 0)
(-1.86125e-05 3.60531e-05 0)
(-1.61633e-05 3.11137e-05 0)
(-1.40224e-05 2.68266e-05 0)
(-1.21531e-05 2.31093e-05 0)
(-1.05227e-05 1.98892e-05 0)
(-9.10214e-06 1.71026e-05 0)
(-7.86579e-06 1.46934e-05 0)
(-6.79088e-06 1.26126e-05 0)
(-5.85733e-06 1.0817e-05 0)
(-5.04737e-06 9.26903e-06 0)
(-4.34538e-06 7.9358e-06 0)
(-3.73758e-06 6.78856e-06 0)
(-3.21185e-06 5.80227e-06 0)
(-2.75759e-06 4.95513e-06 0)
(-2.36545e-06 4.22816e-06 0)
(-2.02729e-06 3.60486e-06 0)
(-1.73594e-06 3.07092e-06 0)
(-1.48519e-06 2.61393e-06 0)
(-1.26957e-06 2.22313e-06 0)
(-1.08435e-06 1.88922e-06 0)
(-9.25392e-07 1.60415e-06 0)
(-7.89105e-07 1.36097e-06 0)
(-6.7237e-07 1.1537e-06 0)
(-5.72482e-07 9.77161e-07 0)
(-4.87096e-07 8.26908e-07 0)
(-4.14184e-07 6.99111e-07 0)
(-3.51994e-07 5.90478e-07 0)
(-2.99014e-07 4.98181e-07 0)
(-2.5394e-07 4.19791e-07 0)
(-2.15652e-07 3.53223e-07 0)
(-1.83189e-07 2.96689e-07 0)
(-1.55724e-07 2.48653e-07 0)
(-1.32554e-07 2.07796e-07 0)
(-1.13078e-07 1.72986e-07 0)
(-9.67877e-08 1.43247e-07 0)
(-8.32533e-08 1.17736e-07 0)
(-7.2115e-08 9.5723e-08 0)
(-6.30745e-08 7.65703e-08 0)
(-5.58882e-08 5.97177e-08 0)
(-5.03613e-08 4.46671e-08 0)
(-4.63431e-08 3.09694e-08 0)
(-4.37238e-08 1.82124e-08 0)
(-4.24314e-08 6.00971e-09 0)
(-0.0114072 0.029301 0)
(-0.0105926 0.0268635 0)
(-0.00982389 0.0246013 0)
(-0.00909981 0.0225047 0)
(-0.00841867 0.0205638 0)
(-0.00777887 0.0187694 0)
(-0.00717875 0.0171125 0)
(-0.0066167 0.0155843 0)
(-0.00609103 0.0141768 0)
(-0.00560013 0.0128818 0)
(-0.00514241 0.011692 0)
(-0.00471616 0.0106002 0)
(-0.00431981 0.00959955 0)
(-0.00395187 0.00868357 0)
(-0.00361076 0.00784617 0)
(-0.00329494 0.00708154 0)
(-0.00300297 0.00638426 0)
(-0.00273345 0.00574917 0)
(-0.00248505 0.00517145 0)
(-0.00225642 0.00464658 0)
(-0.00204629 0.00417031 0)
(-0.0018534 0.00373868 0)
(-0.0016766 0.00334799 0)
(-0.00151479 0.0029948 0)
(-0.0013669 0.0026759 0)
(-0.00123195 0.00238832 0)
(-0.00110897 0.0021293 0)
(-0.000997055 0.00189628 0)
(-0.000895349 0.00168692 0)
(-0.000803047 0.00149903 0)
(-0.000719391 0.00133062 0)
(-0.000643674 0.00117984 0)
(-0.000575235 0.00104503 0)
(-0.00051346 0.000924621 0)
(-0.000457774 0.000817213 0)
(-0.000407646 0.000721514 0)
(-0.000362581 0.000636347 0)
(-0.000322121 0.000560642 0)
(-0.000285845 0.000493427 0)
(-0.000253361 0.000433817 0)
(-0.000224312 0.000381014 0)
(-0.000198367 0.000334293 0)
(-0.000175225 0.000293001 0)
(-0.000154609 0.000256548 0)
(-0.000136266 0.000224403 0)
(-0.000119967 0.000196089 0)
(-0.000105501 0.000171176 0)
(-9.26774e-05 0.00014928 0)
(-8.13244e-05 0.000130056 0)
(-7.12854e-05 0.000113197 0)
(-6.24188e-05 9.84279e-05 0)
(-5.4597e-05 8.5503e-05 0)
(-4.77051e-05 7.4204e-05 0)
(-4.16397e-05 6.43369e-05 0)
(-3.63077e-05 5.57291e-05 0)
(-3.1626e-05 4.82277e-05 0)
(-2.75198e-05 4.16971e-05 0)
(-2.39225e-05 3.60175e-05 0)
(-2.07746e-05 3.1083e-05 0)
(-1.80229e-05 2.68001e-05 0)
(-1.56203e-05 2.30865e-05 0)
(-1.35247e-05 1.98696e-05 0)
(-1.16989e-05 1.70857e-05 0)
(-1.01098e-05 1.4679e-05 0)
(-8.72827e-06 1.26001e-05 0)
(-7.52838e-06 1.08063e-05 0)
(-6.48735e-06 9.25991e-06 0)
(-5.58508e-06 7.92799e-06 0)
(-4.80388e-06 6.78188e-06 0)
(-4.12817e-06 5.79657e-06 0)
(-3.54431e-06 4.95026e-06 0)
(-3.0403e-06 4.224e-06 0)
(-2.60566e-06 3.60132e-06 0)
(-2.2312e-06 3.0679e-06 0)
(-1.9089e-06 2.61136e-06 0)
(-1.63177e-06 2.22095e-06 0)
(-1.39371e-06 1.88736e-06 0)
(-1.1894e-06 1.60257e-06 0)
(-1.01423e-06 1.35964e-06 0)
(-8.64193e-07 1.15257e-06 0)
(-7.35807e-07 9.76204e-07 0)
(-6.26061e-07 8.26099e-07 0)
(-5.32348e-07 6.98427e-07 0)
(-4.52416e-07 5.89901e-07 0)
(-3.8432e-07 4.97694e-07 0)
(-3.26388e-07 4.19381e-07 0)
(-2.77177e-07 3.52879e-07 0)
(-2.35451e-07 2.964e-07 0)
(-2.00151e-07 2.48411e-07 0)
(-1.70371e-07 2.07594e-07 0)
(-1.45339e-07 1.72818e-07 0)
(-1.24401e-07 1.43108e-07 0)
(-1.07005e-07 1.17622e-07 0)
(-9.26892e-08 9.56303e-08 0)
(-8.10695e-08 7.64962e-08 0)
(-7.1833e-08 5.96599e-08 0)
(-6.47293e-08 4.46239e-08 0)
(-5.95649e-08 3.09395e-08 0)
(-5.61984e-08 1.81948e-08 0)
(-5.45373e-08 6.00392e-09 0)
(-0.0139364 0.0292648 0)
(-0.0129411 0.0268302 0)
(-0.0120021 0.0245709 0)
(-0.0111174 0.0224769 0)
(-0.0102853 0.0205384 0)
(-0.0095036 0.0187463 0)
(-0.00877041 0.0170913 0)
(-0.00808375 0.0155651 0)
(-0.00744153 0.0141592 0)
(-0.00684179 0.0128659 0)
(-0.00628258 0.0116776 0)
(-0.00576182 0.0105871 0)
(-0.0052776 0.00958769 0)
(-0.00482808 0.00867285 0)
(-0.00441133 0.00783647 0)
(-0.00402549 0.0070728 0)
(-0.00366878 0.00637637 0)
(-0.00333952 0.00574207 0)
(-0.00303604 0.00516506 0)
(-0.00275672 0.00464084 0)
(-0.00249998 0.00416515 0)
(-0.00226433 0.00373406 0)
(-0.00204834 0.00334385 0)
(-0.00185064 0.0029911 0)
(-0.00166997 0.0026726 0)
(-0.0015051 0.00238537 0)
(-0.00135485 0.00212667 0)
(-0.00121812 0.00189394 0)
(-0.00109387 0.00168483 0)
(-0.000981099 0.00149718 0)
(-0.000878894 0.00132897 0)
(-0.000786389 0.00117839 0)
(-0.000702776 0.00104374 0)
(-0.000627304 0.000923478 0)
(-0.000559272 0.000816203 0)
(-0.000498029 0.000720622 0)
(-0.000442972 0.000635561 0)
(-0.000393542 0.00055995 0)
(-0.000349222 0.000492817 0)
(-0.000309536 0.000433281 0)
(-0.000274046 0.000380543 0)
(-0.000242349 0.00033388 0)
(-0.000214076 0.000292639 0)
(-0.000188889 0.000256231 0)
(-0.000166479 0.000224126 0)
(-0.000146566 0.000195847 0)
(-0.000128892 0.000170964 0)
(-0.000113226 0.000149095 0)
(-9.93557e-05 0.000129896 0)
(-8.70907e-05 0.000113058 0)
(-7.62582e-05 9.83064e-05 0)
(-6.67022e-05 8.53974e-05 0)
(-5.82823e-05 7.41124e-05 0)
(-5.0872e-05 6.42575e-05 0)
(-4.43578e-05 5.56603e-05 0)
(-3.86381e-05 4.81681e-05 0)
(-3.36215e-05 4.16456e-05 0)
(-2.92266e-05 3.59731e-05 0)
(-2.53807e-05 3.10447e-05 0)
(-2.2019e-05 2.67671e-05 0)
(-1.90836e-05 2.3058e-05 0)
(-1.65234e-05 1.98451e-05 0)
(-1.42928e-05 1.70647e-05 0)
(-1.23514e-05 1.46609e-05 0)
(-1.06635e-05 1.25846e-05 0)
(-9.19757e-06 1.0793e-05 0)
(-7.92573e-06 9.2485e-06 0)
(-6.82341e-06 7.91822e-06 0)
(-5.86899e-06 6.77353e-06 0)
(-5.04347e-06 5.78943e-06 0)
(-4.33015e-06 4.94417e-06 0)
(-3.7144e-06 4.21881e-06 0)
(-3.18338e-06 3.59689e-06 0)
(-2.7259e-06 3.06413e-06 0)
(-2.33215e-06 2.60815e-06 0)
(-1.99357e-06 2.21822e-06 0)
(-1.70272e-06 1.88504e-06 0)
(-1.45312e-06 1.60061e-06 0)
(-1.23911e-06 1.35797e-06 0)
(-1.0558e-06 1.15116e-06 0)
(-8.98952e-07 9.75008e-07 0)
(-7.64873e-07 8.25087e-07 0)
(-6.50382e-07 6.97572e-07 0)
(-5.52727e-07 5.89179e-07 0)
(-4.69533e-07 4.97085e-07 0)
(-3.98756e-07 4.18868e-07 0)
(-3.38634e-07 3.52447e-07 0)
(-2.87657e-07 2.96038e-07 0)
(-2.4453e-07 2.48107e-07 0)
(-2.08146e-07 2.07341e-07 0)
(-1.77564e-07 1.72608e-07 0)
(-1.51984e-07 1.42934e-07 0)
(-1.30731e-07 1.17479e-07 0)
(-1.13241e-07 9.5514e-08 0)
(-9.90448e-08 7.64032e-08 0)
(-8.77604e-08 5.95875e-08 0)
(-7.90817e-08 4.45698e-08 0)
(-7.27722e-08 3.0902e-08 0)
(-6.86594e-08 1.81728e-08 0)
(-6.66301e-08 5.99665e-09 0)
(-0.0164621 0.0292214 0)
(-0.0152864 0.0267904 0)
(-0.0141772 0.0245345 0)
(-0.0131323 0.0224435 0)
(-0.0121493 0.020508 0)
(-0.011226 0.0187184 0)
(-0.0103599 0.017066 0)
(-0.0095488 0.015542 0)
(-0.0087902 0.0141382 0)
(-0.00808176 0.0128468 0)
(-0.0074212 0.0116603 0)
(-0.00680606 0.0105714 0)
(-0.00623409 0.00957347 0)
(-0.00570309 0.00865998 0)
(-0.00521081 0.00782485 0)
(-0.00475505 0.0070623 0)
(-0.0043337 0.00636691 0)
(-0.00394476 0.00573354 0)
(-0.00358628 0.0051574 0)
(-0.00325633 0.00463395 0)
(-0.00295307 0.00415897 0)
(-0.0026747 0.00372852 0)
(-0.00241956 0.00333889 0)
(-0.00218604 0.00298666 0)
(-0.00197263 0.00266863 0)
(-0.00177788 0.00238183 0)
(-0.0016004 0.00212351 0)
(-0.00143889 0.00189113 0)
(-0.00129212 0.00168233 0)
(-0.00115891 0.00149495 0)
(-0.00103818 0.001327 0)
(-0.000928909 0.00117664 0)
(-0.000830143 0.00104219 0)
(-0.000740992 0.000922108 0)
(-0.000660631 0.000814992 0)
(-0.000588289 0.000719553 0)
(-0.000523254 0.000634618 0)
(-0.000464865 0.000559119 0)
(-0.000412513 0.000492086 0)
(-0.000365635 0.000432639 0)
(-0.000323713 0.000379979 0)
(-0.000286271 0.000333385 0)
(-0.000252874 0.000292205 0)
(-0.000223122 0.000255851 0)
(-0.000196651 0.000223794 0)
(-0.000173129 0.000195556 0)
(-0.000152252 0.000170711 0)
(-0.000133746 0.000148874 0)
(-0.000117362 0.000129703 0)
(-0.000102875 0.00011289 0)
(-9.00789e-05 9.81606e-05 0)
(-7.8791e-05 8.52708e-05 0)
(-6.88451e-05 7.40025e-05 0)
(-6.00918e-05 6.41622e-05 0)
(-5.2397e-05 5.55778e-05 0)
(-4.56406e-05 4.80967e-05 0)
(-3.97149e-05 4.15839e-05 0)
(-3.45235e-05 3.59198e-05 0)
(-2.99806e-05 3.09987e-05 0)
(-2.60096e-05 2.67274e-05 0)
(-2.25423e-05 2.30238e-05 0)
(-1.9518e-05 1.98157e-05 0)
(-1.68831e-05 1.70394e-05 0)
(-1.45899e-05 1.46392e-05 0)
(-1.25961e-05 1.2566e-05 0)
(-1.08645e-05 1.0777e-05 0)
(-9.36215e-06 9.23481e-06 0)
(-8.06005e-06 7.90651e-06 0)
(-6.93267e-06 6.76351e-06 0)
(-5.95753e-06 5.78087e-06 0)
(-5.11493e-06 4.93686e-06 0)
(-4.38758e-06 4.21257e-06 0)
(-3.76033e-06 3.59157e-06 0)
(-3.21993e-06 3.05961e-06 0)
(-2.75482e-06 2.6043e-06 0)
(-2.35488e-06 2.21494e-06 0)
(-2.01132e-06 1.88226e-06 0)
(-1.71647e-06 1.59824e-06 0)
(-1.46368e-06 1.35597e-06 0)
(-1.24716e-06 1.14946e-06 0)
(-1.06188e-06 9.73571e-07 0)
(-9.03497e-07 8.23871e-07 0)
(-7.68256e-07 6.96545e-07 0)
(-6.52902e-07 5.88312e-07 0)
(-5.54631e-07 4.96354e-07 0)
(-4.71026e-07 4.18253e-07 0)
(-4.00008e-07 3.5193e-07 0)
(-3.39791e-07 2.95603e-07 0)
(-2.88848e-07 2.47743e-07 0)
(-2.45871e-07 2.07037e-07 0)
(-2.09746e-07 1.72355e-07 0)
(-1.7953e-07 1.42724e-07 0)
(-1.54425e-07 1.17307e-07 0)
(-1.33765e-07 9.53743e-08 0)
(-1.16996e-07 7.62916e-08 0)
(-1.03666e-07 5.95005e-08 0)
(-9.34148e-08 4.45048e-08 0)
(-8.59619e-08 3.08569e-08 0)
(-8.11038e-08 1.81463e-08 0)
(-7.87068e-08 5.98792e-09 0)
(-0.0189838 0.0291708 0)
(-0.017628 0.026744 0)
(-0.0163489 0.0244919 0)
(-0.0151439 0.0224046 0)
(-0.0140104 0.0204724 0)
(-0.0129456 0.018686 0)
(-0.0119469 0.0170364 0)
(-0.0110115 0.0155151 0)
(-0.0101367 0.0141137 0)
(-0.00931974 0.0128246 0)
(-0.00855799 0.0116401 0)
(-0.00784862 0.0105531 0)
(-0.00718904 0.00955688 0)
(-0.0065767 0.00864498 0)
(-0.00600901 0.00781129 0)
(-0.00548343 0.00705006 0)
(-0.00499754 0.00635588 0)
(-0.00454903 0.00572361 0)
(-0.00413563 0.00514846 0)
(-0.00375514 0.00462592 0)
(-0.00340542 0.00415177 0)
(-0.00308441 0.00372206 0)
(-0.00279019 0.00333311 0)
(-0.0025209 0.00298149 0)
(-0.0022748 0.00266401 0)
(-0.00205022 0.00237771 0)
(-0.00184555 0.00211983 0)
(-0.0016593 0.00188785 0)
(-0.00149004 0.00167942 0)
(-0.00133643 0.00149236 0)
(-0.00119721 0.0013247 0)
(-0.0010712 0.0011746 0)
(-0.000957305 0.00104038 0)
(-0.000854498 0.00092051 0)
(-0.000761826 0.00081358 0)
(-0.000678403 0.000718306 0)
(-0.000603406 0.000633518 0)
(-0.000536074 0.00055815 0)
(-0.000475702 0.000491233 0)
(-0.000421643 0.000431889 0)
(-0.0003733 0.000379321 0)
(-0.000330123 0.000332807 0)
(-0.00029161 0.000291699 0)
(-0.000257301 0.000255408 0)
(-0.000226775 0.000223406 0)
(-0.000199649 0.000195217 0)
(-0.000175574 0.000170415 0)
(-0.000154234 0.000148616 0)
(-0.00013534 0.000129478 0)
(-0.000118633 0.000112694 0)
(-0.000103877 9.79907e-05 0)
(-9.08604e-05 8.51231e-05 0)
(-7.93909e-05 7.38744e-05 0)
(-6.92967e-05 6.40511e-05 0)
(-6.04233e-05 5.54816e-05 0)
(-5.26319e-05 4.80135e-05 0)
(-4.57985e-05 4.15119e-05 0)
(-3.98119e-05 3.58576e-05 0)
(-3.45731e-05 3.0945e-05 0)
(-2.99938e-05 2.66812e-05 0)
(-2.59953e-05 2.2984e-05 0)
(-2.25079e-05 1.97814e-05 0)
(-1.94693e-05 1.70099e-05 0)
(-1.68248e-05 1.46138e-05 0)
(-1.45256e-05 1.25443e-05 0)
(-1.25287e-05 1.07584e-05 0)
(-1.07963e-05 9.21885e-06 0)
(-9.29471e-06 7.89284e-06 0)
(-7.99463e-06 6.75182e-06 0)
(-6.87012e-06 5.77088e-06 0)
(-5.89845e-06 4.92833e-06 0)
(-5.05968e-06 4.2053e-06 0)
(-4.33635e-06 3.58537e-06 0)
(-3.71317e-06 3.05433e-06 0)
(-3.17681e-06 2.59981e-06 0)
(-2.71561e-06 2.21112e-06 0)
(-2.31942e-06 1.87902e-06 0)
(-1.97941e-06 1.59549e-06 0)
(-1.6879e-06 1.35363e-06 0)
(-1.4382e-06 1.14748e-06 0)
(-1.22454e-06 9.71895e-07 0)
(-1.0419e-06 8.22454e-07 0)
(-8.85941e-07 6.95347e-07 0)
(-7.52917e-07 5.873e-07 0)
(-6.39593e-07 4.95501e-07 0)
(-5.4318e-07 4.17534e-07 0)
(-4.61283e-07 3.51325e-07 0)
(-3.91843e-07 2.95096e-07 0)
(-3.33096e-07 2.47318e-07 0)
(-2.83535e-07 2.06682e-07 0)
(-2.41876e-07 1.72059e-07 0)
(-2.07031e-07 1.4248e-07 0)
(-1.78081e-07 1.17106e-07 0)
(-1.54256e-07 9.52112e-08 0)
(-1.34919e-07 7.61611e-08 0)
(-1.19547e-07 5.93988e-08 0)
(-1.07725e-07 4.44287e-08 0)
(-9.91306e-08 3.08042e-08 0)
(-9.35284e-08 1.81153e-08 0)
(-9.07643e-08 5.97769e-09 0)
(-0.0215008 0.029113 0)
(-0.0199653 0.026691 0)
(-0.0185166 0.0244434 0)
(-0.0171518 0.0223602 0)
(-0.015868 0.0204319 0)
(-0.014662 0.018649 0)
(-0.0135309 0.0170026 0)
(-0.0124715 0.0154843 0)
(-0.0114807 0.0140857 0)
(-0.0105554 0.0127991 0)
(-0.00969267 0.011617 0)
(-0.00888925 0.0105322 0)
(-0.00814221 0.00953794 0)
(-0.00744868 0.00862784 0)
(-0.00680573 0.0077958 0)
(-0.00621046 0.00703609 0)
(-0.00566015 0.00634327 0)
(-0.00515217 0.00571226 0)
(-0.00468396 0.00513825 0)
(-0.00425302 0.00461675 0)
(-0.00385693 0.00414354 0)
(-0.00349336 0.00371468 0)
(-0.00316013 0.0033265 0)
(-0.00285514 0.00297558 0)
(-0.00257641 0.00265873 0)
(-0.00232205 0.00237299 0)
(-0.00209025 0.00211563 0)
(-0.00187931 0.00188411 0)
(-0.00168761 0.00167609 0)
(-0.00151363 0.0014894 0)
(-0.00135594 0.00132207 0)
(-0.00121323 0.00117227 0)
(-0.00108423 0.00103832 0)
(-0.000967793 0.000918685 0)
(-0.000862834 0.000811967 0)
(-0.00076835 0.000716882 0)
(-0.00068341 0.000632262 0)
(-0.00060715 0.000557043 0)
(-0.000538774 0.000490259 0)
(-0.000477548 0.000431033 0)
(-0.000422794 0.000378569 0)
(-0.000373893 0.000332148 0)
(-0.000330274 0.000291121 0)
(-0.000291415 0.000254902 0)
(-0.000256842 0.000222963 0)
(-0.000226119 0.000194831 0)
(-0.000198853 0.000170077 0)
(-0.000174683 0.000148322 0)
(-0.000153284 0.000129222 0)
(-0.000134362 0.000112471 0)
(-0.00011765 9.77965e-05 0)
(-0.000102907 8.49545e-05 0)
(-8.99171e-05 7.3728e-05 0)
(-7.84846e-05 6.39242e-05 0)
(-6.84347e-05 5.53717e-05 0)
(-5.96103e-05 4.79184e-05 0)
(-5.18707e-05 4.14297e-05 0)
(-4.50904e-05 3.57866e-05 0)
(-3.9157e-05 3.08837e-05 0)
(-3.39706e-05 2.66283e-05 0)
(-2.9442e-05 2.29385e-05 0)
(-2.54921e-05 1.97423e-05 0)
(-2.20507e-05 1.69763e-05 0)
(-1.90556e-05 1.45849e-05 0)
(-1.64515e-05 1.25194e-05 0)
(-1.41899e-05 1.07371e-05 0)
(-1.22277e-05 9.20062e-06 0)
(-1.05271e-05 7.87723e-06 0)
(-9.05462e-06 6.73847e-06 0)
(-7.78102e-06 5.75948e-06 0)
(-6.68052e-06 4.91859e-06 0)
(-5.73054e-06 4.19699e-06 0)
(-4.9113e-06 3.57829e-06 0)
(-4.2055e-06 3.04829e-06 0)
(-3.59802e-06 2.59467e-06 0)
(-3.07567e-06 2.20676e-06 0)
(-2.62695e-06 1.87531e-06 0)
(-2.24186e-06 1.59234e-06 0)
(-1.91169e-06 1.35096e-06 0)
(-1.62889e-06 1.14522e-06 0)
(-1.3869e-06 9.6998e-07 0)
(-1.18005e-06 8.20833e-07 0)
(-1.00341e-06 6.93977e-07 0)
(-8.52747e-07 5.86144e-07 0)
(-7.24397e-07 4.94526e-07 0)
(-6.15202e-07 4.16713e-07 0)
(-5.22446e-07 3.50635e-07 0)
(-4.43798e-07 2.94516e-07 0)
(-3.77262e-07 2.46833e-07 0)
(-3.2113e-07 2.06276e-07 0)
(-2.73948e-07 1.71722e-07 0)
(-2.34483e-07 1.42201e-07 0)
(-2.01694e-07 1.16877e-07 0)
(-1.7471e-07 9.50246e-08 0)
(-1.52808e-07 7.60119e-08 0)
(-1.35399e-07 5.92825e-08 0)
(-1.22009e-07 4.43418e-08 0)
(-1.12275e-07 3.07439e-08 0)
(-1.0593e-07 1.80799e-08 0)
(-1.028e-07 5.96599e-09 0)
(-0.0240125 0.029048 0)
(-0.0222976 0.0266314 0)
(-0.0206797 0.0243888 0)
(-0.0191555 0.0223103 0)
(-0.0177216 0.0203862 0)
(-0.0163748 0.0186073 0)
(-0.0151115 0.0169647 0)
(-0.0139284 0.0154497 0)
(-0.0128219 0.0140543 0)
(-0.0117885 0.0127706 0)
(-0.010825 0.0115911 0)
(-0.00992768 0.0105087 0)
(-0.00909338 0.00951664 0)
(-0.00831883 0.00860857 0)
(-0.00760076 0.00777839 0)
(-0.00693596 0.00702037 0)
(-0.00632137 0.00632911 0)
(-0.00575405 0.0056995 0)
(-0.00523114 0.00512678 0)
(-0.00474986 0.00460644 0)
(-0.00430749 0.00413429 0)
(-0.00390145 0.00370638 0)
(-0.00352929 0.00331907 0)
(-0.00318868 0.00296893 0)
(-0.00287739 0.00265279 0)
(-0.00259331 0.00236769 0)
(-0.00233444 0.00211091 0)
(-0.00209885 0.0018799 0)
(-0.00188475 0.00167234 0)
(-0.00169045 0.00148608 0)
(-0.00151434 0.00131912 0)
(-0.00135495 0.00116965 0)
(-0.00121089 0.001036 0)
(-0.00108085 0.000916633 0)
(-0.000963629 0.000810153 0)
(-0.000858108 0.000715281 0)
(-0.000763244 0.00063085 0)
(-0.000678076 0.000555799 0)
(-0.000601713 0.000489165 0)
(-0.000533334 0.00043007 0)
(-0.000472185 0.000377723 0)
(-0.000417571 0.000331406 0)
(-0.000368856 0.000290471 0)
(-0.000325458 0.000254333 0)
(-0.000286846 0.000222466 0)
(-0.000252535 0.000194396 0)
(-0.000222083 0.000169698 0)
(-0.000195089 0.000147991 0)
(-0.000171191 0.000128933 0)
(-0.000150058 0.00011222 0)
(-0.000131394 9.75782e-05 0)
(-0.000114929 8.47649e-05 0)
(-0.000100421 7.35635e-05 0)
(-8.76531e-05 6.37816e-05 0)
(-7.64292e-05 5.52481e-05 0)
(-6.65739e-05 4.78115e-05 0)
(-5.79302e-05 4.13373e-05 0)
(-5.03579e-05 3.57067e-05 0)
(-4.37313e-05 3.08148e-05 0)
(-3.7939e-05 2.65689e-05 0)
(-3.28814e-05 2.28874e-05 0)
(-2.84701e-05 1.96982e-05 0)
(-2.46267e-05 1.69384e-05 0)
(-2.12816e-05 1.45524e-05 0)
(-1.83734e-05 1.24915e-05 0)
(-1.58476e-05 1.07132e-05 0)
(-1.36562e-05 9.18011e-06 0)
(-1.17569e-05 7.85968e-06 0)
(-1.01124e-05 6.72346e-06 0)
(-8.69e-06 5.74665e-06 0)
(-7.46094e-06 4.90764e-06 0)
(-6.39999e-06 4.18764e-06 0)
(-5.48504e-06 3.57032e-06 0)
(-4.69679e-06 3.04151e-06 0)
(-4.01834e-06 2.5889e-06 0)
(-3.43497e-06 2.20185e-06 0)
(-2.93384e-06 1.87114e-06 0)
(-2.50376e-06 1.5888e-06 0)
(-2.13502e-06 1.34796e-06 0)
(-1.81918e-06 1.14267e-06 0)
(-1.54892e-06 9.67825e-07 0)
(-1.3179e-06 8.19011e-07 0)
(-1.12063e-06 6.92437e-07 0)
(-9.52368e-07 5.84843e-07 0)
(-8.09024e-07 4.93429e-07 0)
(-6.87072e-07 4.15789e-07 0)
(-5.8348e-07 3.49858e-07 0)
(-4.95645e-07 2.93863e-07 0)
(-4.21336e-07 2.46286e-07 0)
(-3.58646e-07 2.05819e-07 0)
(-3.05952e-07 1.71342e-07 0)
(-2.61876e-07 1.41886e-07 0)
(-2.25257e-07 1.16618e-07 0)
(-1.95121e-07 9.48146e-08 0)
(-1.70661e-07 7.5844e-08 0)
(-1.51217e-07 5.91516e-08 0)
(-1.36264e-07 4.42439e-08 0)
(-1.25393e-07 3.06761e-08 0)
(-1.18306e-07 1.804e-08 0)
(-1.1481e-07 5.95284e-09 0)
(-0.0265183 0.0289758 0)
(-0.0246244 0.0265652 0)
(-0.0228377 0.0243282 0)
(-0.0211544 0.0222549 0)
(-0.0195709 0.0203356 0)
(-0.0180836 0.0185611 0)
(-0.0166885 0.0169225 0)
(-0.0153819 0.0154113 0)
(-0.0141599 0.0140194 0)
(-0.0130187 0.0127388 0)
(-0.0119546 0.0115623 0)
(-0.0109637 0.0104825 0)
(-0.0100423 0.00949299 0)
(-0.00918693 0.00858718 0)
(-0.00839392 0.00775907 0)
(-0.00765975 0.00700293 0)
(-0.00698102 0.00631338 0)
(-0.0063545 0.00568534 0)
(-0.00577703 0.00511404 0)
(-0.00524552 0.004595 0)
(-0.00475699 0.00412401 0)
(-0.00430858 0.00369718 0)
(-0.00389758 0.00331083 0)
(-0.00352143 0.00296156 0)
(-0.00317766 0.0026462 0)
(-0.00286393 0.00236181 0)
(-0.00257804 0.00210566 0)
(-0.00231787 0.00187523 0)
(-0.00208143 0.00166819 0)
(-0.00186685 0.00148238 0)
(-0.00167237 0.00131584 0)
(-0.00149635 0.00116674 0)
(-0.00133725 0.00103342 0)
(-0.00119364 0.000914355 0)
(-0.00106419 0.00080814 0)
(-0.000947653 0.000713503 0)
(-0.000842891 0.000629282 0)
(-0.000748835 0.000554418 0)
(-0.000664503 0.000487949 0)
(-0.000588989 0.000429002 0)