/*--------------------------------*- C++ -*----------------------------------*\
| =========                 |                                                 |
| \\      /  F ield         | OpenFOAM: The Open Source CFD Toolbox           |
|  \\    /   O peration     | Version:  2406                                  |
|   \\  /    A nd           | Website:  www.openfoam.com                      |
|    \\/     M anipulation  |                                                 |
\*---------------------------------------------------------------------------*/
FoamFile
{
    version     2.0;
    format      ascii;
    arch        "LSB;label=32;scalar=64";
    class       volVectorField;
    location    "85";
    object      flux;
}
// * * * * * * * * * * * * * * * * * * * * * * * * * * * * * * * * * * * * * //

dimensions      [0 1 -1 1 0 0 0];

internalField   nonuniform List<vector> 
20000
(
(-0.000430531 0.0274292 0)
(-0.000450267 0.0265461 0)
(-0.000465284 0.0256283 0)
(-0.0004761 0.0246849 0)
(-0.000483227 0.0237239 0)
(-0.00048684 0.0227522 0)
(-0.000487321 0.0217767 0)
(-0.000485186 0.020803 0)
(-0.000480703 0.0198361 0)
(-0.000474106 0.0188803 0)
(-0.000465668 0.0179398 0)
(-0.000455662 0.0170178 0)
(-0.00044434 0.0161172 0)
(-0.000431926 0.0152405 0)
(-0.000418618 0.0143896 0)
(-0.000404595 0.0135662 0)
(-0.000390019 0.0127714 0)
(-0.000375039 0.0120062 0)
(-0.000359788 0.0112713 0)
(-0.000344386 0.0105671 0)
(-0.000328941 0.00989384 0)
(-0.000313547 0.00925144 0)
(-0.000298288 0.00863973 0)
(-0.000283237 0.00805836 0)
(-0.000268457 0.00750685 0)
(-0.000254001 0.0069846 0)
(-0.000239915 0.00649091 0)
(-0.000226236 0.006025 0)
(-0.000212994 0.00558602 0)
(-0.000200215 0.00517307 0)
(-0.000187915 0.00478521 0)
(-0.00017611 0.00442146 0)
(-0.000164806 0.00408082 0)
(-0.000154008 0.00376227 0)
(-0.000143717 0.00346482 0)
(-0.000133931 0.00318744 0)
(-0.000124643 0.00292913 0)
(-0.000115846 0.0026889 0)
(-0.000107531 0.00246578 0)
(-9.96843e-05 0.00225881 0)
(-9.22942e-05 0.00206706 0)
(-8.53459e-05 0.00188965 0)
(-7.88239e-05 0.0017257 0)
(-7.27123e-05 0.00157438 0)
(-6.69944e-05 0.00143487 0)
(-6.16532e-05 0.00130641 0)
(-5.66715e-05 0.00118827 0)
(-5.20321e-05 0.00107974 0)
(-4.77178e-05 0.000980157 0)
(-4.37117e-05 0.000888883 0)
(-3.99968e-05 0.000805321 0)
(-3.6557e-05 0.000728906 0)
(-3.3376e-05 0.000659102 0)
(-3.04385e-05 0.00059541 0)
(-2.77294e-05 0.000537356 0)
(-2.52341e-05 0.000484499 0)
(-2.29388e-05 0.000436426 0)
(-2.08301e-05 0.00039275 0)
(-1.88952e-05 0.000353111 0)
(-1.71221e-05 0.000317173 0)
(-1.54992e-05 0.000284626 0)
(-1.40156e-05 0.00025518 0)
(-1.2661e-05 0.000228568 0)
(-1.14255e-05 0.00020454 0)
(-1.03002e-05 0.000182868 0)
(-9.27631e-06 0.000163341 0)
(-8.34581e-06 0.000145765 0)
(-7.50116e-06 0.00012996 0)
(-6.73532e-06 0.000115762 0)
(-6.04174e-06 0.000103021 0)
(-5.4143e-06 9.1597e-05 0)
(-4.84735e-06 8.13648e-05 0)
(-4.33563e-06 7.22088e-05 0)
(-3.87429e-06 6.40234e-05 0)
(-3.45886e-06 5.67126e-05 0)
(-3.08518e-06 5.01888e-05 0)
(-2.74946e-06 4.43726e-05 0)
(-2.44821e-06 3.91916e-05 0)
(-2.17821e-06 3.45803e-05 0)
(-1.93654e-06 3.04793e-05 0)
(-1.7205e-06 2.68347e-05 0)
(-1.52765e-06 2.35977e-05 0)
(-1.35576e-06 2.07245e-05 0)
(-1.20281e-06 1.8175e-05 0)
(-1.06696e-06 1.59135e-05 0)
(-9.46551e-07 1.39075e-05 0)
(-8.40085e-07 1.21275e-05 0)
(-7.46218e-07 1.05473e-05 0)
(-6.63743e-07 9.14286e-06 0)
(-5.91584e-07 7.89251e-06 0)
(-5.28787e-07 6.77666e-06 0)
(-4.7451e-07 5.77749e-06 0)
(-4.28015e-07 4.87874e-06 0)
(-3.88664e-07 4.06554e-06 0)
(-3.55911e-07 3.32418e-06 0)
(-3.29297e-07 2.64198e-06 0)
(-3.08446e-07 2.00708e-06 0)
(-2.93064e-07 1.40827e-06 0)
(-2.82929e-07 8.34892e-07 0)
(-2.77895e-07 2.76625e-07 0)
(-0.00129143 0.0274224 0)
(-0.00135062 0.0265395 0)
(-0.00139582 0.025622 0)
(-0.00142827 0.0246788 0)
(-0.00144949 0.023718 0)
(-0.00146034 0.0227467 0)
(-0.00146189 0.0217714 0)
(-0.00145548 0.0207979 0)
(-0.00144199 0.0198311 0)
(-0.00142219 0.0188757 0)
(-0.00139687 0.0179353 0)
(-0.00136687 0.0170136 0)
(-0.00133291 0.0161133 0)
(-0.00129567 0.0152368 0)
(-0.00125575 0.0143861 0)
(-0.00121369 0.0135628 0)
(-0.00116996 0.0127682 0)
(-0.00112503 0.0120032 0)
(-0.00107928 0.0112685 0)
(-0.00103307 0.0105645 0)
(-0.000986742 0.0098914 0)
(-0.000940564 0.00924915 0)
(-0.000894792 0.00863759 0)
(-0.000849642 0.00805637 0)
(-0.000805305 0.00750499 0)
(-0.000761941 0.00698287 0)
(-0.000719685 0.0064893 0)
(-0.000678651 0.00602351 0)
(-0.00063893 0.00558464 0)
(-0.000600595 0.00517179 0)
(-0.0005637 0.00478403 0)
(-0.000528285 0.00442037 0)
(-0.000494376 0.00407981 0)
(-0.000461986 0.00376135 0)
(-0.000431116 0.00346397 0)
(-0.000401758 0.00318666 0)
(-0.000373898 0.00292841 0)
(-0.00034751 0.00268824 0)
(-0.000322565 0.00246517 0)
(-0.000299028 0.00225825 0)
(-0.00027686 0.00206655 0)
(-0.000256017 0.00188919 0)
(-0.000236452 0.00172528 0)
(-0.000218119 0.00157399 0)
(-0.000200967 0.00143452 0)
(-0.000184944 0.00130609 0)
(-0.000170001 0.00118798 0)
(-0.000156083 0.00107948 0)
(-0.000143142 0.000979915 0)
(-0.000131124 0.000888664 0)
(-0.000119981 0.000805123 0)
(-0.000109662 0.000728726 0)
(-0.00010012 0.00065894 0)
(-9.1308e-05 0.000595263 0)
(-8.31812e-05 0.000537223 0)
(-7.5696e-05 0.00048438 0)
(-6.88106e-05 0.000436318 0)
(-6.2485e-05 0.000392653 0)
(-5.6681e-05 0.000353024 0)
(-5.13621e-05 0.000317095 0)
(-4.64938e-05 0.000284556 0)
(-4.20433e-05 0.000255118 0)
(-3.79798e-05 0.000228511 0)
(-3.42738e-05 0.000204489 0)
(-3.08981e-05 0.000182823 0)
(-2.78266e-05 0.000163301 0)
(-2.50354e-05 0.000145729 0)
(-2.25016e-05 0.000129928 0)
(-2.02043e-05 0.000115734 0)
(-1.81237e-05 0.000102995 0)
(-1.62416e-05 9.15744e-05 0)
(-1.45408e-05 8.13448e-05 0)
(-1.30058e-05 7.2191e-05 0)
(-1.16219e-05 6.40076e-05 0)
(-1.03757e-05 5.66986e-05 0)
(-9.25478e-06 5.01765e-05 0)
(-8.24772e-06 4.43617e-05 0)
(-7.34403e-06 3.9182e-05 0)
(-6.5341e-06 3.45718e-05 0)
(-5.80913e-06 3.04718e-05 0)
(-5.16107e-06 2.68281e-05 0)
(-4.58257e-06 2.35919e-05 0)
(-4.06695e-06 2.07194e-05 0)
(-3.60813e-06 1.81706e-05 0)
(-3.20062e-06 1.59096e-05 0)
(-2.83942e-06 1.3904e-05 0)
(-2.52005e-06 1.21246e-05 0)
(-2.23847e-06 1.05447e-05 0)
(-1.99107e-06 9.14062e-06 0)
(-1.77461e-06 7.89058e-06 0)
(-1.58623e-06 6.77501e-06 0)
(-1.42341e-06 5.77608e-06 0)
(-1.28394e-06 4.87755e-06 0)
(-1.1659e-06 4.06454e-06 0)
(-1.06764e-06 3.32337e-06 0)
(-9.87809e-07 2.64134e-06 0)
(-9.25264e-07 2.00659e-06 0)
(-8.7912e-07 1.40793e-06 0)
(-8.48718e-07 8.34691e-07 0)
(-8.33621e-07 2.76559e-07 0)
(-0.00215203 0.0274088 0)
(-0.00225061 0.0265263 0)
(-0.00232597 0.0256094 0)
(-0.00238011 0.0246666 0)
(-0.00241536 0.0237063 0)
(-0.00243344 0.0227355 0)
(-0.00243612 0.0217607 0)
(-0.00242545 0.0207876 0)
(-0.00240294 0.0198213 0)
(-0.0023699 0.0188663 0)
(-0.00232772 0.0179265 0)
(-0.00227773 0.0170052 0)
(-0.00222115 0.0161053 0)
(-0.00215911 0.0152293 0)
(-0.00209258 0.014379 0)
(-0.00202248 0.0135561 0)
(-0.00194962 0.0127619 0)
(-0.00187473 0.0119973 0)
(-0.0017985 0.011263 0)
(-0.00172151 0.0105593 0)
(-0.0016443 0.00988651 0)
(-0.00156735 0.00924459 0)
(-0.00149107 0.00863333 0)
(-0.00141584 0.00805239 0)
(-0.00134195 0.00750129 0)
(-0.00126969 0.00697943 0)
(-0.00119928 0.0064861 0)
(-0.0011309 0.00602054 0)
(-0.00106471 0.00558188 0)
(-0.00100083 0.00516924 0)
(-0.000939345 0.00478167 0)
(-0.00088033 0.00441818 0)
(-0.000823825 0.00407779 0)
(-0.000769849 0.00375949 0)
(-0.000718408 0.00346226 0)
(-0.000669487 0.00318508 0)
(-0.00062306 0.00292696 0)
(-0.000579088 0.00268691 0)
(-0.00053752 0.00246395 0)
(-0.000498299 0.00225713 0)
(-0.000461357 0.00206553 0)
(-0.000426624 0.00188825 0)
(-0.000394022 0.00172442 0)
(-0.000363472 0.00157321 0)
(-0.000334889 0.00143381 0)
(-0.00030819 0.00130545 0)
(-0.000283288 0.00118739 0)
(-0.000260096 0.00107894 0)
(-0.00023853 0.000979432 0)
(-0.000218504 0.000888225 0)
(-0.000199935 0.000804725 0)
(-0.00018274 0.000728366 0)
(-0.000166839 0.000658615 0)
(-0.000152155 0.000594969 0)
(-0.000138613 0.000536958 0)
(-0.000126139 0.000484141 0)
(-0.000114666 0.000436103 0)
(-0.000104125 0.000392459 0)
(-9.44527e-05 0.00035285 0)
(-8.55894e-05 0.000316939 0)
(-7.74769e-05 0.000284416 0)
(-7.00607e-05 0.000254992 0)
(-6.32892e-05 0.000228399 0)
(-5.71136e-05 0.000204389 0)
(-5.14883e-05 0.000182733 0)
(-4.63701e-05 0.000163221 0)
(-4.17187e-05 0.000145658 0)
(-3.74966e-05 0.000129864 0)
(-3.36683e-05 0.000115677 0)
(-3.02012e-05 0.000102945 0)
(-2.70648e-05 9.15293e-05 0)
(-2.42308e-05 8.13048e-05 0)
(-2.16728e-05 7.21555e-05 0)
(-1.93667e-05 6.39761e-05 0)
(-1.729e-05 5.66707e-05 0)
(-1.54221e-05 5.01518e-05 0)
(-1.37439e-05 4.43399e-05 0)
(-1.2238e-05 3.91627e-05 0)
(-1.08884e-05 3.45549e-05 0)
(-9.6803e-06 3.04568e-05 0)
(-8.60037e-06 2.68149e-05 0)
(-7.63636e-06 2.35804e-05 0)
(-6.77714e-06 2.07092e-05 0)
(-6.01257e-06 1.81616e-05 0)
(-5.33349e-06 1.59018e-05 0)
(-4.73159e-06 1.38972e-05 0)
(-4.19939e-06 1.21186e-05 0)
(-3.73017e-06 1.05396e-05 0)
(-3.3179e-06 9.13614e-06 0)
(-2.9572e-06 7.88671e-06 0)
(-2.64329e-06 6.77169e-06 0)
(-2.37197e-06 5.77325e-06 0)
(-2.13955e-06 4.87516e-06 0)
(-1.94284e-06 4.06256e-06 0)
(-1.77912e-06 3.32175e-06 0)
(-1.64608e-06 2.64005e-06 0)
(-1.54185e-06 2.00561e-06 0)
(-1.46496e-06 1.40724e-06 0)
(-1.4143e-06 8.34285e-07 0)
(-1.38914e-06 2.76425e-07 0)
(-0.00301215 0.0273886 0)
(-0.0031501 0.0265067 0)
(-0.00325552 0.0255904 0)
(-0.00333133 0.0246484 0)
(-0.00338064 0.0236888 0)
(-0.00340595 0.0227186 0)
(-0.00340976 0.0217446 0)
(-0.00339483 0.0207722 0)
(-0.00336328 0.0198066 0)
(-0.00331703 0.0188523 0)
(-0.00325799 0.0179132 0)
(-0.00318802 0.0169926 0)
(-0.00310884 0.0160934 0)
(-0.003022 0.015218 0)
(-0.0029289 0.0143684 0)
(-0.00283078 0.0135461 0)
(-0.0027288 0.0127525 0)
(-0.00262398 0.0119884 0)
(-0.00251728 0.0112546 0)
(-0.00240951 0.0105515 0)
(-0.00230145 0.00987919 0)
(-0.00219375 0.00923774 0)
(-0.00208699 0.00862694 0)
(-0.00198168 0.00804643 0)
(-0.00187827 0.00749573 0)
(-0.00177713 0.00697426 0)
(-0.00167857 0.0064813 0)
(-0.00158287 0.00601608 0)
(-0.00149022 0.00557775 0)
(-0.00140081 0.00516541 0)
(-0.00131476 0.00477813 0)
(-0.00123216 0.00441491 0)
(-0.00115307 0.00407477 0)
(-0.00107752 0.00375671 0)
(-0.00100552 0.00345969 0)
(-0.000937051 0.00318272 0)
(-0.000872069 0.0029248 0)
(-0.000810523 0.00268492 0)
(-0.000752342 0.00246213 0)
(-0.000697446 0.00225546 0)
(-0.000645741 0.002064 0)
(-0.000597126 0.00188686 0)
(-0.000551495 0.00172315 0)
(-0.000508735 0.00157205 0)
(-0.000468729 0.00143275 0)
(-0.000431359 0.00130448 0)
(-0.000396505 0.00118651 0)
(-0.000364045 0.00107815 0)
(-0.00033386 0.000978707 0)
(-0.000305831 0.000887568 0)
(-0.00027984 0.00080413 0)
(-0.000255772 0.000727827 0)
(-0.000233517 0.000658127 0)
(-0.000212964 0.000594529 0)
(-0.00019401 0.000536561 0)
(-0.000176551 0.000483783 0)
(-0.000160492 0.00043578 0)
(-0.000145738 0.000392169 0)
(-0.000132201 0.000352589 0)
(-0.000119796 0.000316705 0)
(-0.000108441 0.000284206 0)
(-9.80608e-05 0.000254803 0)
(-8.8583e-05 0.00022823 0)
(-7.99394e-05 0.000204237 0)
(-7.20658e-05 0.000182598 0)
(-6.49021e-05 0.0001631 0)
(-5.83919e-05 0.00014555 0)
(-5.24822e-05 0.000129768 0)
(-4.7124e-05 0.000115591 0)
(-4.22713e-05 0.000102869 0)
(-3.78814e-05 9.14617e-05 0)
(-3.39147e-05 8.12447e-05 0)
(-3.03345e-05 7.21022e-05 0)
(-2.71067e-05 6.39289e-05 0)
(-2.42001e-05 5.66289e-05 0)
(-2.15856e-05 5.01148e-05 0)
(-1.92368e-05 4.43071e-05 0)
(-1.7129e-05 3.91338e-05 0)
(-1.524e-05 3.45294e-05 0)
(-1.35491e-05 3.04344e-05 0)
(-1.20376e-05 2.67951e-05 0)
(-1.06883e-05 2.3563e-05 0)
(-9.48566e-06 2.06939e-05 0)
(-8.41553e-06 1.81483e-05 0)
(-7.46504e-06 1.58901e-05 0)
(-6.6226e-06 1.3887e-05 0)
(-5.87771e-06 1.21097e-05 0)
(-5.22096e-06 1.05318e-05 0)
(-4.64392e-06 9.12941e-06 0)
(-4.13906e-06 7.88091e-06 0)
(-3.69969e-06 6.76671e-06 0)
(-3.31994e-06 5.76901e-06 0)
(-2.99463e-06 4.87158e-06 0)
(-2.71931e-06 4.05957e-06 0)
(-2.49015e-06 3.31931e-06 0)
(-2.30395e-06 2.63811e-06 0)
(-2.15807e-06 2.00414e-06 0)
(-2.05044e-06 1.40621e-06 0)
(-1.97954e-06 8.33674e-07 0)
(-1.94433e-06 2.76222e-07 0)
(-0.00387153 0.0273615 0)
(-0.00404882 0.0264805 0)
(-0.00418428 0.0255651 0)
(-0.00428173 0.024624 0)
(-0.00434509 0.0236654 0)
(-0.00437764 0.0226962 0)
(-0.00438256 0.0217231 0)
(-0.00436337 0.0207517 0)
(-0.00432279 0.0197871 0)
(-0.00426333 0.0188337 0)
(-0.00418744 0.0178955 0)
(-0.00409752 0.0169758 0)
(-0.00399577 0.0160775 0)
(-0.00388416 0.015203 0)
(-0.00376449 0.0143542 0)
(-0.00363838 0.0135327 0)
(-0.0035073 0.0127399 0)
(-0.00337258 0.0119766 0)
(-0.00323543 0.0112435 0)
(-0.00309693 0.0105411 0)
(-0.00295803 0.00986943 0)
(-0.0028196 0.00922862 0)
(-0.00268239 0.00861841 0)
(-0.00254704 0.00803848 0)
(-0.00241413 0.00748833 0)
(-0.00228413 0.00696736 0)
(-0.00215746 0.00647489 0)
(-0.00203445 0.00601013 0)
(-0.00191537 0.00557224 0)
(-0.00180045 0.00516031 0)
(-0.00168985 0.00477341 0)
(-0.00158368 0.00441055 0)
(-0.00148203 0.00407075 0)
(-0.00138493 0.00375299 0)
(-0.00129239 0.00345627 0)
(-0.00120438 0.00317958 0)
(-0.00112086 0.00292191 0)
(-0.00104176 0.00268227 0)
(-0.000966979 0.00245969 0)
(-0.000896421 0.00225323 0)
(-0.000829965 0.00206197 0)
(-0.000767481 0.00188499 0)
(-0.000708832 0.00172145 0)
(-0.000653872 0.00157049 0)
(-0.000602454 0.00143133 0)
(-0.000554422 0.00130319 0)
(-0.000509624 0.00118534 0)
(-0.000467904 0.00107708 0)
(-0.000429107 0.00097774 0)
(-0.000393081 0.000886692 0)
(-0.000359676 0.000803336 0)
(-0.000328742 0.000727109 0)
(-0.000300137 0.000657478 0)
(-0.000273721 0.000593942 0)
(-0.000249359 0.000536031 0)
(-0.00022692 0.000483305 0)
(-0.000206279 0.00043535 0)
(-0.000187316 0.000391782 0)
(-0.000169917 0.000352241 0)
(-0.000153972 0.000316392 0)
(-0.000139378 0.000283925 0)
(-0.000126037 0.000254552 0)
(-0.000113855 0.000228005 0)
(-0.000102745 0.000204036 0)
(-9.26256e-05 0.000182418 0)
(-8.34182e-05 0.000162939 0)
(-7.50506e-05 0.000145406 0)
(-6.7455e-05 0.00012964 0)
(-6.05681e-05 0.000115477 0)
(-5.4331e-05 0.000102767 0)
(-4.86887e-05 9.13716e-05 0)
(-4.35903e-05 8.11647e-05 0)
(-3.89886e-05 7.20312e-05 0)
(-3.484e-05 6.38659e-05 0)
(-3.11042e-05 5.65731e-05 0)
(-2.77438e-05 5.00654e-05 0)
(-2.47249e-05 4.42635e-05 0)
(-2.20158e-05 3.90953e-05 0)
(-1.95878e-05 3.44954e-05 0)
(-1.74145e-05 3.04044e-05 0)
(-1.54718e-05 2.67688e-05 0)
(-1.37376e-05 2.35398e-05 0)
(-1.21918e-05 2.06736e-05 0)
(-1.08164e-05 1.81304e-05 0)
(-9.59477e-06 1.58745e-05 0)
(-8.51197e-06 1.38733e-05 0)
(-7.55457e-06 1.20978e-05 0)
(-6.71046e-06 1.05215e-05 0)
(-5.9688e-06 9.12044e-06 0)
(-5.3199e-06 7.87317e-06 0)
(-4.75519e-06 6.76006e-06 0)
(-4.26709e-06 5.76334e-06 0)
(-3.84898e-06 4.8668e-06 0)
(-3.49511e-06 4.05559e-06 0)
(-3.20058e-06 3.31605e-06 0)
(-2.96125e-06 2.63553e-06 0)
(-2.77375e-06 2.00218e-06 0)
(-2.63543e-06 1.40484e-06 0)
(-2.54429e-06 8.32858e-07 0)
(-2.49904e-06 2.75952e-07 0)
(-0.00472993 0.0273277 0)
(-0.00494653 0.0264478 0)
(-0.00511202 0.0255335 0)
(-0.00523108 0.0245936 0)
(-0.00530848 0.0236361 0)
(-0.00534825 0.0226682 0)
(-0.00535429 0.0216962 0)
(-0.00533083 0.020726 0)
(-0.00528123 0.0197626 0)
(-0.00520857 0.0188105 0)
(-0.00511586 0.0178734 0)
(-0.00500602 0.0169549 0)
(-0.00488171 0.0160577 0)
(-0.00474536 0.0151842 0)
(-0.00459916 0.0143364 0)
(-0.00444509 0.013516 0)
(-0.00428494 0.0127241 0)
(-0.00412035 0.0119618 0)
(-0.00395279 0.0112296 0)
(-0.00378358 0.010528 0)
(-0.00361389 0.00985724 0)
(-0.00344477 0.00921721 0)
(-0.00327713 0.00860776 0)
(-0.00311177 0.00802855 0)
(-0.00294939 0.00747907 0)
(-0.00279057 0.00695876 0)
(-0.00263581 0.00646689 0)
(-0.00248552 0.00600271 0)
(-0.00234005 0.00556535 0)
(-0.00219964 0.00515393 0)
(-0.00206452 0.00476751 0)
(-0.00193482 0.0044051 0)
(-0.00181063 0.00406572 0)
(-0.001692 0.00374836 0)
(-0.00157894 0.003452 0)
(-0.00147142 0.00317565 0)
(-0.00136938 0.0029183 0)
(-0.00127274 0.00267896 0)
(-0.00118138 0.00245666 0)
(-0.00109517 0.00225045 0)
(-0.00101398 0.00205942 0)
(-0.000937646 0.00188266 0)
(-0.000865994 0.00171932 0)
(-0.000798849 0.00156855 0)
(-0.000736029 0.00142956 0)
(-0.000677348 0.00130158 0)
(-0.000622617 0.00118388 0)
(-0.000571647 0.00107575 0)
(-0.000524249 0.000976533 0)
(-0.000480235 0.000885597 0)
(-0.000439423 0.000802344 0)
(-0.000401631 0.000726211 0)
(-0.000366684 0.000656666 0)
(-0.000334411 0.000593209 0)
(-0.000304647 0.00053537 0)
(-0.000277233 0.000482708 0)
(-0.000252015 0.000434813 0)
(-0.000228848 0.000391298 0)
(-0.000207591 0.000351806 0)
(-0.000188111 0.000316002 0)
(-0.000170281 0.000283575 0)
(-0.000153982 0.000254238 0)
(-0.000139099 0.000227723 0)
(-0.000125526 0.000203784 0)
(-0.000113163 0.000182193 0)
(-0.000101914 0.000162738 0)
(-9.16908e-05 0.000145227 0)
(-8.24111e-05 0.000129481 0)
(-7.39973e-05 0.000115335 0)
(-6.63772e-05 0.00010264 0)
(-5.94839e-05 9.12589e-05 0)
(-5.32551e-05 8.10646e-05 0)
(-4.76332e-05 7.19424e-05 0)
(-4.25648e-05 6.37872e-05 0)
(-3.80006e-05 5.65034e-05 0)
(-3.38952e-05 5.00037e-05 0)
(-3.02069e-05 4.4209e-05 0)
(-2.68972e-05 3.90471e-05 0)
(-2.39309e-05 3.44529e-05 0)
(-2.12757e-05 3.0367e-05 0)
(-1.89022e-05 2.67358e-05 0)
(-1.67835e-05 2.35108e-05 0)
(-1.4895e-05 2.06481e-05 0)
(-1.32146e-05 1.81081e-05 0)
(-1.17221e-05 1.58549e-05 0)
(-1.03993e-05 1.38563e-05 0)
(-9.22958e-06 1.20829e-05 0)
(-8.19832e-06 1.05085e-05 0)
(-7.29221e-06 9.10923e-06 0)
(-6.49944e-06 7.8635e-06 0)
(-5.80952e-06 6.75176e-06 0)
(-5.2132e-06 5.75627e-06 0)
(-4.70239e-06 4.86082e-06 0)
(-4.27006e-06 4.05061e-06 0)
(-3.91022e-06 3.31198e-06 0)
(-3.61782e-06 2.63229e-06 0)
(-3.38876e-06 1.99972e-06 0)
(-3.21976e-06 1.40311e-06 0)
(-3.10842e-06 8.31837e-07 0)
(-3.05314e-06 2.75614e-07 0)
(-0.00558716 0.0272872 0)
(-0.00584302 0.0264086 0)
(-0.00603849 0.0254956 0)
(-0.00617914 0.0245571 0)
(-0.00627056 0.023601 0)
(-0.00631753 0.0226345 0)
(-0.00632469 0.021664 0)
(-0.00629697 0.0206953 0)
(-0.00623837 0.0197333 0)
(-0.00615253 0.0187826 0)
(-0.00604302 0.0178469 0)
(-0.00591328 0.0169297 0)
(-0.00576645 0.0160339 0)
(-0.00560539 0.0151617 0)
(-0.00543269 0.0143152 0)
(-0.0052507 0.0134959 0)
(-0.00506153 0.0127052 0)
(-0.00486711 0.011944 0)
(-0.00466918 0.0112129 0)
(-0.0044693 0.0105124 0)
(-0.00426885 0.00984261 0)
(-0.00406908 0.00920353 0)
(-0.00387105 0.00859499 0)
(-0.00367573 0.00801663 0)
(-0.00348392 0.00746798 0)
(-0.00329631 0.00694843 0)
(-0.00311351 0.0064573 0)
(-0.00293598 0.0059938 0)
(-0.00276414 0.00555709 0)
(-0.0025983 0.00514629 0)
(-0.00243868 0.00476043 0)
(-0.00228547 0.00439856 0)
(-0.00213877 0.00405969 0)
(-0.00199865 0.0037428 0)
(-0.0018651 0.00344688 0)
(-0.00173809 0.00317094 0)
(-0.00161756 0.00291397 0)
(-0.0015034 0.00267498 0)
(-0.00139548 0.00245301 0)
(-0.00129366 0.00224711 0)
(-0.00119775 0.00205636 0)
(-0.00110758 0.00187987 0)
(-0.00102294 0.00171677 0)
(-0.000943628 0.00156623 0)
(-0.000869423 0.00142744 0)
(-0.000800107 0.00129965 0)
(-0.000735457 0.00118212 0)
(-0.00067525 0.00107415 0)
(-0.000619261 0.000975085 0)
(-0.00056727 0.000884283 0)
(-0.000519061 0.000801154 0)
(-0.00047442 0.000725134 0)
(-0.000433139 0.000655692 0)
(-0.000395018 0.000592329 0)
(-0.000359859 0.000534576 0)
(-0.000327477 0.000481993 0)
(-0.000297689 0.000434168 0)
(-0.000270323 0.000390718 0)
(-0.000245214 0.000351284 0)
(-0.000222203 0.000315533 0)
(-0.000201142 0.000283155 0)
(-0.000181888 0.000253861 0)
(-0.000164309 0.000227386 0)
(-0.000148276 0.000203482 0)
(-0.000133672 0.000181923 0)
(-0.000120384 0.000162497 0)
(-0.000108308 0.000145012 0)
(-9.73469e-05 0.000129289 0)
(-8.74082e-05 0.000115164 0)
(-7.84071e-05 0.000102488 0)
(-7.02645e-05 9.11238e-05 0)
(-6.29068e-05 8.09446e-05 0)
(-5.6266e-05 7.18359e-05 0)
(-5.0279e-05 6.36928e-05 0)
(-4.48876e-05 5.64198e-05 0)
(-4.00382e-05 4.99297e-05 0)
(-3.56815e-05 4.41436e-05 0)
(-3.17719e-05 3.89894e-05 0)
(-2.8268e-05 3.44019e-05 0)
(-2.51316e-05 3.03221e-05 0)
(-2.2328e-05 2.66963e-05 0)
(-1.98252e-05 2.34761e-05 0)
(-1.75945e-05 2.06176e-05 0)
(-1.56096e-05 1.80813e-05 0)
(-1.38466e-05 1.58315e-05 0)
(-1.2284e-05 1.38358e-05 0)
(-1.09023e-05 1.20651e-05 0)
(-9.68415e-06 1.0493e-05 0)
(-8.61382e-06 9.09578e-06 0)
(-7.67738e-06 7.85189e-06 0)
(-6.86242e-06 6.74179e-06 0)
(-6.15803e-06 5.74777e-06 0)
(-5.55464e-06 4.85365e-06 0)
(-5.04395e-06 4.04464e-06 0)
(-4.6189e-06 3.3071e-06 0)
(-4.27351e-06 2.62841e-06 0)
(-4.00293e-06 1.99677e-06 0)
(-3.80331e-06 1.40105e-06 0)
(-3.67179e-06 8.30611e-07 0)
(-3.60649e-06 2.75208e-07 0)
(-0.00644301 0.0272399 0)
(-0.00673806 0.0263628 0)
(-0.00696348 0.0254515 0)
(-0.00712568 0.0245146 0)
(-0.0072311 0.0235601 0)
(-0.00728526 0.0225953 0)
(-0.00729352 0.0216265 0)
(-0.00726155 0.0206594 0)
(-0.00719396 0.0196991 0)
(-0.00709496 0.01875 0)
(-0.00696869 0.017816 0)
(-0.00681908 0.0169004 0)
(-0.00664976 0.0160061 0)
(-0.00646404 0.0151354 0)
(-0.00626489 0.0142904 0)
(-0.00605501 0.0134726 0)
(-0.00583686 0.0126832 0)
(-0.00561266 0.0119233 0)
(-0.00538441 0.0111935 0)
(-0.00515391 0.0104942 0)
(-0.00492276 0.00982555 0)
(-0.00469238 0.00918759 0)
(-0.00446403 0.0085801 0)
(-0.00423878 0.00800274 0)
(-0.00401759 0.00745503 0)
(-0.00380125 0.00693639 0)
(-0.00359044 0.00644611 0)
(-0.00338572 0.00598341 0)
(-0.00318756 0.00554746 0)
(-0.00299631 0.00513737 0)
(-0.00281224 0.00475218 0)
(-0.00263556 0.00439094 0)
(-0.00246639 0.00405265 0)
(-0.0023048 0.00373631 0)
(-0.00215079 0.00344091 0)
(-0.00200433 0.00316544 0)
(-0.00186534 0.00290892 0)
(-0.00173369 0.00267035 0)
(-0.00160925 0.00244876 0)
(-0.00149182 0.00224322 0)
(-0.00138123 0.0020528 0)
(-0.00127724 0.00187661 0)
(-0.00117964 0.00171379 0)
(-0.00108817 0.00156351 0)
(-0.0010026 0.00142497 0)
(-0.000922669 0.0012974 0)
(-0.000848116 0.00118007 0)
(-0.000778685 0.00107229 0)
(-0.00071412 0.000973396 0)
(-0.000654166 0.000882752 0)
(-0.000598572 0.000799766 0)
(-0.000547093 0.000723878 0)
(-0.000499488 0.000654557 0)
(-0.000455527 0.000591303 0)
(-0.000414983 0.00053365 0)
(-0.00037764 0.000481158 0)
(-0.00034329 0.000433417 0)
(-0.000311732 0.000390042 0)
(-0.000282776 0.000350676 0)
(-0.000256241 0.000314987 0)
(-0.000231953 0.000282665 0)
(-0.00020975 0.000253422 0)
(-0.000189478 0.000226992 0)
(-0.000170989 0.00020313 0)
(-0.000154148 0.000181608 0)
(-0.000138825 0.000162216 0)
(-0.000124899 0.000144761 0)
(-0.000112259 0.000129065 0)
(-0.000100798 0.000114965 0)
(-9.04177e-05 0.000102311 0)
(-8.10278e-05 9.09662e-05 0)
(-7.25431e-05 8.08046e-05 0)
(-6.4885e-05 7.17117e-05 0)
(-5.79809e-05 6.35827e-05 0)
(-5.17636e-05 5.63222e-05 0)
(-4.61714e-05 4.98434e-05 0)
(-4.11472e-05 4.40673e-05 0)
(-3.66388e-05 3.8922e-05 0)
(-3.25982e-05 3.43425e-05 0)
(-2.89814e-05 3.02697e-05 0)
(-2.57482e-05 2.66502e-05 0)
(-2.28621e-05 2.34355e-05 0)
(-2.02897e-05 2.0582e-05 0)
(-1.80007e-05 1.80501e-05 0)
(-1.59677e-05 1.58042e-05 0)
(-1.41657e-05 1.38119e-05 0)
(-1.25724e-05 1.20443e-05 0)
(-1.11676e-05 1.04749e-05 0)
(-9.93332e-06 9.08009e-06 0)
(-8.85343e-06 7.83834e-06 0)
(-7.91364e-06 6.73017e-06 0)
(-7.10134e-06 5.73786e-06 0)
(-6.40552e-06 4.84529e-06 0)
(-5.81661e-06 4.03767e-06 0)
(-5.32644e-06 3.3014e-06 0)
(-4.92815e-06 2.62388e-06 0)
(-4.61613e-06 1.99333e-06 0)
(-4.38592e-06 1.39863e-06 0)
(-4.23426e-06 8.2918e-07 0)
(-4.15896e-06 2.74734e-07 0)
(-0.00729727 0.0271859 0)
(-0.00763144 0.0263106 0)
(-0.00788675 0.025401 0)
(-0.00807046 0.024466 0)
(-0.00818984 0.0235134 0)
(-0.00825119 0.0225505 0)
(-0.00826056 0.0215836 0)
(-0.00822434 0.0206185 0)
(-0.00814777 0.0196601 0)
(-0.00803565 0.0187128 0)
(-0.00789264 0.0177807 0)
(-0.0077232 0.0168669 0)
(-0.00753144 0.0159743 0)
(-0.00732109 0.0151054 0)
(-0.00709554 0.014262 0)
(-0.00685783 0.0134459 0)
(-0.00661076 0.0126581 0)
(-0.00635683 0.0118997 0)
(-0.00609832 0.0111713 0)
(-0.00583725 0.0104734 0)
(-0.00557546 0.00980607 0)
(-0.00531453 0.00916937 0)
(-0.0050559 0.00856308 0)
(-0.00480079 0.00798687 0)
(-0.00455027 0.00744025 0)
(-0.00430524 0.00692264 0)
(-0.00406648 0.00643333 0)
(-0.00383462 0.00597155 0)
(-0.00361019 0.00553647 0)
(-0.00339358 0.00512718 0)
(-0.00318511 0.00474276 0)
(-0.002985 0.00438224 0)
(-0.0027934 0.00404462 0)
(-0.00261039 0.0037289 0)
(-0.00243596 0.00343409 0)
(-0.00227008 0.00315917 0)
(-0.00211266 0.00290315 0)
(-0.00196356 0.00266505 0)
(-0.00182261 0.00244391 0)
(-0.00168962 0.00223877 0)
(-0.00156436 0.00204873 0)
(-0.00144659 0.00187289 0)
(-0.00133604 0.0017104 0)
(-0.00123245 0.00156041 0)
(-0.00113553 0.00142215 0)
(-0.001045 0.00129483 0)
(-0.000960565 0.00117774 0)
(-0.000881929 0.00107017 0)
(-0.000808803 0.000971467 0)
(-0.0007409 0.000881002 0)
(-0.000677935 0.000798182 0)
(-0.00061963 0.000722444 0)
(-0.000565714 0.00065326 0)
(-0.000515924 0.000590132 0)
(-0.000470005 0.000532593 0)
(-0.000427711 0.000480205 0)
(-0.000388806 0.000432558 0)
(-0.000353064 0.000389269 0)
(-0.000320269 0.000349982 0)
(-0.000290215 0.000314363 0)
(-0.000262707 0.000282105 0)
(-0.000237561 0.00025292 0)
(-0.0002146 0.000226543 0)
(-0.00019366 0.000202728 0)
(-0.000174586 0.000181248 0)
(-0.000157231 0.000161895 0)
(-0.000141459 0.000144474 0)
(-0.000127143 0.00012881 0)
(-0.000114162 0.000114738 0)
(-0.000102406 0.000102109 0)
(-9.17711e-05 9.07862e-05 0)
(-8.21614e-05 8.06447e-05 0)
(-7.34879e-05 7.15698e-05 0)
(-6.56684e-05 6.34569e-05 0)
(-5.86269e-05 5.62108e-05 0)
(-5.22932e-05 4.97448e-05 0)
(-4.66029e-05 4.39801e-05 0)
(-4.14967e-05 3.8845e-05 0)
(-3.69203e-05 3.42746e-05 0)
(-3.28239e-05 3.02098e-05 0)
(-2.91621e-05 2.65975e-05 0)
(-2.58934e-05 2.33892e-05 0)
(-2.29799e-05 2.05413e-05 0)
(-2.03874e-05 1.80145e-05 0)
(-1.80848e-05 1.57729e-05 0)
(-1.60439e-05 1.37846e-05 0)
(-1.42393e-05 1.20205e-05 0)
(-1.26483e-05 1.04542e-05 0)
(-1.12504e-05 9.06216e-06 0)
(-1.00273e-05 7.82287e-06 0)
(-8.9629e-06 6.71688e-06 0)
(-8.04291e-06 5.72654e-06 0)
(-7.25483e-06 4.83572e-06 0)
(-6.58784e-06 4.0297e-06 0)
(-6.03268e-06 3.29489e-06 0)
(-5.58158e-06 2.61871e-06 0)
(-5.22818e-06 1.9894e-06 0)
(-4.96746e-06 1.39587e-06 0)
(-4.79569e-06 8.27545e-07 0)
(-4.71041e-06 2.74192e-07 0)
(-0.00814973 0.0271252 0)
(-0.00852294 0.0262518 0)
(-0.00880807 0.0253443 0)
(-0.00901325 0.0244113 0)
(-0.00914657 0.0234609 0)
(-0.00921508 0.0225001 0)
(-0.00922556 0.0215354 0)
(-0.0091851 0.0205724 0)
(-0.00909958 0.0196162 0)
(-0.00897435 0.0186711 0)
(-0.00881464 0.017741 0)
(-0.00862541 0.0168292 0)
(-0.00841125 0.0159387 0)
(-0.00817634 0.0150717 0)
(-0.00792444 0.0142302 0)
(-0.00765896 0.0134158 0)
(-0.00738303 0.0126298 0)
(-0.00709943 0.0118731 0)
(-0.00681072 0.0111464 0)
(-0.00651916 0.01045 0)
(-0.00622678 0.00978417 0)
(-0.00593537 0.00914889 0)
(-0.00564653 0.00854396 0)
(-0.00536161 0.00796904 0)
(-0.00508182 0.00742364 0)
(-0.00480818 0.00690718 0)
(-0.00454152 0.00641896 0)
(-0.00428258 0.00595821 0)
(-0.00403192 0.0055241 0)
(-0.00379001 0.00511573 0)
(-0.00355719 0.00473217 0)
(-0.00333371 0.00437245 0)
(-0.00311973 0.00403558 0)
(-0.00291533 0.00372058 0)
(-0.00272053 0.00342642 0)
(-0.00253527 0.00315212 0)
(-0.00235946 0.00289667 0)
(-0.00219294 0.0026591 0)
(-0.00203553 0.00243845 0)
(-0.001887 0.00223377 0)
(-0.00174711 0.00204416 0)
(-0.00161557 0.00186871 0)
(-0.00149212 0.00170658 0)
(-0.00137643 0.00155693 0)
(-0.00126819 0.00141897 0)
(-0.00116708 0.00129194 0)
(-0.00107278 0.00117511 0)
(-0.000984955 0.00106778 0)
(-0.000903287 0.000969298 0)
(-0.000827451 0.000879036 0)
(-0.00075713 0.0007964 0)
(-0.000692014 0.000720831 0)
(-0.0006318 0.000651802 0)
(-0.000576194 0.000588815 0)
(-0.00052491 0.000531404 0)
(-0.000477675 0.000479133 0)
(-0.000434225 0.000431593 0)
(-0.000394308 0.000388401 0)
(-0.000357682 0.000349201 0)
(-0.000324118 0.000313662 0)
(-0.000293397 0.000281475 0)
(-0.000265312 0.000252356 0)
(-0.000239669 0.000226037 0)
(-0.000216283 0.000202276 0)
(-0.000194981 0.000180844 0)
(-0.000175599 0.000161534 0)
(-0.000157985 0.000144152 0)
(-0.000141996 0.000128522 0)
(-0.000127498 0.000114482 0)
(-0.000114369 0.000101881 0)
(-0.000102492 9.05838e-05 0)
(-9.17595e-05 8.04649e-05 0)
(-8.20728e-05 7.14102e-05 0)
(-7.33398e-05 6.33154e-05 0)
(-6.54757e-05 5.60855e-05 0)
(-5.84021e-05 4.9634e-05 0)
(-5.2047e-05 4.38821e-05 0)
(-4.63444e-05 3.87585e-05 0)
(-4.12334e-05 3.41982e-05 0)
(-3.66585e-05 3.01425e-05 0)
(-3.25689e-05 2.65382e-05 0)
(-2.89183e-05 2.33371e-05 0)
(-2.56645e-05 2.04956e-05 0)
(-2.27691e-05 1.79743e-05 0)
(-2.01975e-05 1.57378e-05 0)
(-1.79182e-05 1.37539e-05 0)
(-1.59028e-05 1.19937e-05 0)
(-1.41259e-05 1.04309e-05 0)
(-1.25647e-05 9.042e-06 0)
(-1.11987e-05 7.80546e-06 0)
(-1.001e-05 6.70194e-06 0)
(-8.9825e-06 5.7138e-06 0)
(-8.10236e-06 4.82497e-06 0)
(-7.35745e-06 4.02074e-06 0)
(-6.73743e-06 3.28756e-06 0)
(-6.23364e-06 2.61289e-06 0)
(-5.83896e-06 1.98498e-06 0)
(-5.54778e-06 1.39277e-06 0)
(-5.35594e-06 8.25705e-07 0)
(-5.2607e-06 2.73582e-07 0)
(-0.00900017 0.0270578 0)
(-0.00941234 0.0261866 0)
(-0.00972722 0.0252813 0)
(-0.00995381 0.0243507 0)
(-0.010101 0.0234026 0)
(-0.0101767 0.0224442 0)
(-0.0101883 0.0214819 0)
(-0.0101436 0.0205213 0)
(-0.0100491 0.0195674 0)
(-0.00991084 0.0186247 0)
(-0.00973447 0.0176969 0)
(-0.0095255 0.0167874 0)
(-0.009289 0.0158991 0)
(-0.00902957 0.0150342 0)
(-0.00875138 0.0141948 0)
(-0.0084582 0.0133825 0)
(-0.00815347 0.0125984 0)
(-0.00784028 0.0118436 0)
(-0.00752144 0.0111187 0)
(-0.00719945 0.010424 0)
(-0.00687656 0.00975986 0)
(-0.00655475 0.00912616 0)
(-0.00623576 0.00852273 0)
(-0.00592111 0.00794923 0)
(-0.00561213 0.00740519 0)
(-0.00530992 0.00689001 0)
(-0.00501545 0.00640301 0)
(-0.00472948 0.00594341 0)
(-0.00445267 0.00551038 0)
(-0.00418551 0.00510302 0)
(-0.00392839 0.00472041 0)
(-0.00368159 0.00436158 0)
(-0.00344528 0.00402556 0)
(-0.00321955 0.00371133 0)
(-0.00300442 0.00341791 0)
(-0.00279983 0.00314428 0)
(-0.00260567 0.00288947 0)
(-0.00242178 0.00265249 0)
(-0.00224794 0.00243239 0)
(-0.00208391 0.00222822 0)
(-0.00192942 0.00203908 0)
(-0.00178416 0.00186407 0)
(-0.00164782 0.00170234 0)
(-0.00152006 0.00155306 0)
(-0.00140053 0.00141545 0)
(-0.00128887 0.00128873 0)
(-0.00118472 0.00117219 0)
(-0.00108774 0.00106513 0)
(-0.000997547 0.00096689 0)
(-0.000913798 0.000876852 0)