/*--------------------------------*- C++ -*----------------------------------*\
| =========                 |                                                 |
| \\      /  F ield         | OpenFOAM: The Open Source CFD Toolbox           |
|  \\    /   O peration     | Version:  2406                                  |
|   \\  /    A nd           | Website:  www.openfoam.com                      |
|    \\/     M anipulation  |                                                 |
\*---------------------------------------------------------------------------*/
FoamFile
{
    version     2.0;
    format      ascii;
    arch        "LSB;label=32;scalar=64";
    class       volVectorField;
    location    "165";
    object      flux;
}
// * * * * * * * * * * * * * * * * * * * * * * * * * * * * * * * * * * * * * //

dimensions      [0 1 -1 1 0 0 0];

internalField   nonuniform List<vector> 
20000
(
(0.000809336 -0.0163687 0)
(0.000780552 -0.0147779 0)
(0.000749926 -0.0132466 0)
(0.000717843 -0.0117783 0)
(0.000684647 -0.0103755 0)
(0.000650684 -0.00903991 0)
(0.000616242 -0.00777289 0)
(0.000581585 -0.0065751 0)
(0.000546961 -0.00544669 0)
(0.000512577 -0.00438739 0)
(0.000478614 -0.00339651 0)
(0.000445236 -0.00247305 0)
(0.000412585 -0.00161568 0)
(0.000380786 -0.000822809 0)
(0.000349942 -9.26263e-05 0)
(0.000320137 0.000576872 0)
(0.00029144 0.00118784 0)
(0.000263907 0.00174256 0)
(0.000237579 0.0022434 0)
(0.000212486 0.00269282 0)
(0.000188647 0.0030933 0)
(0.000166072 0.00344736 0)
(0.000144762 0.00375754 0)
(0.000124708 0.00402637 0)
(0.000105898 0.00425635 0)
(8.83112e-05 0.00444994 0)
(7.19225e-05 0.00460957 0)
(5.67022e-05 0.00473761 0)
(4.26168e-05 0.00483636 0)
(2.96295e-05 0.00490807 0)
(1.77011e-05 0.00495487 0)
(6.79013e-06 0.00497887 0)
(-3.14638e-06 0.00498203 0)
(-1.21526e-05 0.00496628 0)
(-2.02733e-05 0.00493343 0)
(-2.75539e-05 0.00488519 0)
(-3.40398e-05 0.00482322 0)
(-3.9776e-05 0.00474904 0)
(-4.48074e-05 0.00466412 0)
(-4.91779e-05 0.00456982 0)
(-5.29306e-05 0.00446742 0)
(-5.61079e-05 0.00435811 0)
(-5.87505e-05 0.00424301 0)
(-6.08982e-05 0.00412313 0)
(-6.25893e-05 0.00399943 0)
(-6.38605e-05 0.00387278 0)
(-6.47473e-05 0.003744 0)
(-6.52832e-05 0.00361381 0)
(-6.55006e-05 0.00348288 0)
(-6.54299e-05 0.00335183 0)
(-6.51001e-05 0.00322118 0)
(-6.45385e-05 0.00309144 0)
(-6.37708e-05 0.00296304 0)
(-6.28214e-05 0.00283637 0)
(-6.17127e-05 0.00271177 0)
(-6.0466e-05 0.00258954 0)
(-5.9101e-05 0.00246992 0)
(-5.7636e-05 0.00235315 0)
(-5.60879e-05 0.00223939 0)
(-5.44725e-05 0.00212881 0)
(-5.28039e-05 0.00202152 0)
(-5.10956e-05 0.00191761 0)
(-4.93595e-05 0.00181715 0)
(-4.76066e-05 0.00172018 0)
(-4.58469e-05 0.00162673 0)
(-4.40894e-05 0.00153681 0)
(-4.23422e-05 0.00145039 0)
(-4.06125e-05 0.00136745 0)
(-3.89069e-05 0.00128795 0)
(-3.7231e-05 0.00121183 0)
(-3.55899e-05 0.00113903 0)
(-3.39879e-05 0.00106948 0)
(-3.2429e-05 0.00100309 0)
(-3.09164e-05 0.000939771 0)
(-2.94528e-05 0.00087943 0)
(-2.80407e-05 0.000821967 0)
(-2.6682e-05 0.000767274 0)
(-2.53782e-05 0.000715245 0)
(-2.41307e-05 0.000665768 0)
(-2.29404e-05 0.000618728 0)
(-2.1808e-05 0.000574012 0)
(-2.0734e-05 0.000531502 0)
(-1.97186e-05 0.000491081 0)
(-1.87621e-05 0.000452632 0)
(-1.78643e-05 0.000416037 0)
(-1.70251e-05 0.000381179 0)
(-1.62444e-05 0.000347941 0)
(-1.55218e-05 0.000316206 0)
(-1.4857e-05 0.000285857 0)
(-1.42495e-05 0.000256781 0)
(-1.3699e-05 0.000228863 0)
(-1.3205e-05 0.000201989 0)
(-1.27671e-05 0.000176046 0)
(-1.23849e-05 0.000150924 0)
(-1.20581e-05 0.00012651 0)
(-1.17863e-05 0.000102694 0)
(-1.15692e-05 7.93674e-05 0)
(-1.14066e-05 5.64203e-05 0)
(-1.12983e-05 3.37439e-05 0)
(-1.12442e-05 1.12299e-05 0)
(0.00242782 -0.0163647 0)
(0.00234149 -0.0147742 0)
(0.0022496 -0.0132434 0)
(0.00215333 -0.0117754 0)
(0.00205377 -0.0103729 0)
(0.00195189 -0.00903768 0)
(0.00184857 -0.00777098 0)
(0.00174462 -0.00657348 0)
(0.00164075 -0.00544534 0)
(0.0015376 -0.0043863 0)
(0.00143572 -0.00339567 0)
(0.0013356 -0.00247244 0)
(0.00123765 -0.00161528 0)
(0.00114227 -0.000822606 0)
(0.00104974 -9.26024e-05 0)
(0.000960332 0.000576732 0)
(0.000874249 0.00118755 0)
(0.000791656 0.00174213 0)
(0.000712678 0.00224285 0)
(0.000637406 0.00269216 0)
(0.000565895 0.00309254 0)
(0.000498176 0.00344651 0)
(0.000434249 0.00375662 0)
(0.000374093 0.00402538 0)
(0.000317668 0.0042553 0)
(0.000264912 0.00444884 0)
(0.00021575 0.00460843 0)
(0.000170093 0.00473644 0)
(0.00012784 0.00483517 0)
(8.88812e-05 0.00490686 0)
(5.30989e-05 0.00495365 0)
(2.03687e-05 0.00497764 0)
(-9.43842e-06 0.00498081 0)
(-3.64547e-05 0.00496506 0)
(-6.0815e-05 0.00493221 0)
(-8.2655e-05 0.00488399 0)
(-0.000102111 0.00482203 0)
(-0.000119318 0.00474787 0)
(-0.000134411 0.00466297 0)
(-0.000147521 0.0045687 0)
(-0.000158779 0.00446632 0)
(-0.00016831 0.00435704 0)
(-0.000176237 0.00424196 0)
(-0.00018268 0.00412211 0)
(-0.000187752 0.00399844 0)
(-0.000191566 0.00387183 0)
(-0.000194226 0.00374308 0)
(-0.000195834 0.00361292 0)
(-0.000196486 0.00348203 0)
(-0.000196274 0.003351 0)
(-0.000195284 0.00322039 0)
(-0.0001936 0.00309068 0)
(-0.000191297 0.00296231 0)
(-0.000188449 0.00283567 0)
(-0.000185123 0.0027111 0)
(-0.000181383 0.0025889 0)
(-0.000177289 0.00246931 0)
(-0.000172894 0.00235257 0)
(-0.00016825 0.00223884 0)
(-0.000163404 0.00212829 0)
(-0.000158399 0.00202102 0)
(-0.000153274 0.00191713 0)
(-0.000148066 0.0018167 0)
(-0.000142808 0.00171976 0)
(-0.000137529 0.00162633 0)
(-0.000132257 0.00153643 0)
(-0.000127016 0.00145003 0)
(-0.000121828 0.00136711 0)
(-0.000116711 0.00128763 0)
(-0.000111684 0.00121153 0)
(-0.000106761 0.00113875 0)
(-0.000101955 0.00106921 0)
(-9.7279e-05 0.00100284 0)
(-9.27415e-05 0.000939539 0)
(-8.83512e-05 0.000879213 0)
(-8.41152e-05 0.000821764 0)
(-8.00394e-05 0.000767085 0)
(-7.61285e-05 0.000715069 0)
(-7.23862e-05 0.000665603 0)
(-6.88156e-05 0.000618575 0)
(-6.54186e-05 0.00057387 0)
(-6.21968e-05 0.00053137 0)
(-5.9151e-05 0.00049096 0)
(-5.62815e-05 0.00045252 0)
(-5.35884e-05 0.000415935 0)
(-5.10712e-05 0.000381085 0)
(-4.87293e-05 0.000347855 0)
(-4.65617e-05 0.000316128 0)
(-4.45673e-05 0.000285787 0)
(-4.2745e-05 0.000256718 0)
(-4.10936e-05 0.000228806 0)
(-3.96117e-05 0.000201939 0)
(-3.82982e-05 0.000176003 0)
(-3.71517e-05 0.000150886 0)
(-3.61713e-05 0.000126478 0)
(-3.53559e-05 0.000102669 0)
(-3.47047e-05 7.93478e-05 0)
(-3.42169e-05 5.64063e-05 0)
(-3.3892e-05 3.37356e-05 0)
(-3.37297e-05 1.12272e-05 0)
(0.00404569 -0.0163566 0)
(0.00390185 -0.0147669 0)
(0.00374872 -0.0132368 0)
(0.0035883 -0.0117696 0)
(0.00342238 -0.0103678 0)
(0.00325261 -0.00903322 0)
(0.00308045 -0.00776714 0)
(0.00290722 -0.00657023 0)
(0.00273414 -0.00544266 0)
(0.00256225 -0.00438413 0)
(0.00239248 -0.003394 0)
(0.00222562 -0.00247122 0)
(0.00206242 -0.00161449 0)
(0.00190346 -0.000822202 0)
(0.00174928 -9.25584e-05 0)
(0.00160029 0.000576446 0)
(0.00145684 0.00118696 0)
(0.00131921 0.00174127 0)
(0.0011876 0.00224175 0)
(0.00106217 0.00269083 0)
(0.000943004 0.00309101 0)
(0.000830156 0.00344481 0)
(0.000723629 0.00375477 0)
(0.000623386 0.00402339 0)
(0.000529359 0.0042532 0)
(0.000441447 0.00444665 0)
(0.000359523 0.00460616 0)
(0.000283441 0.00473411 0)
(0.000213031 0.00483279 0)
(0.000148111 0.00490444 0)
(8.84834e-05 0.00495121 0)
(3.3942e-05 0.00497518 0)
(-1.57283e-05 0.00497835 0)
(-6.0748e-05 0.00496261 0)
(-0.000101342 0.00492978 0)
(-0.000137736 0.00488158 0)
(-0.000170157 0.00481965 0)
(-0.000198831 0.00474553 0)
(-0.000223982 0.00466067 0)
(-0.000245829 0.00456644 0)
(-0.000264588 0.00446412 0)
(-0.00028047 0.00435489 0)
(-0.00029368 0.00423987 0)
(-0.000304416 0.00412008 0)
(-0.000312869 0.00399647 0)
(-0.000319224 0.00386992 0)
(-0.000323657 0.00374123 0)
(-0.000326336 0.00361114 0)
(-0.000327422 0.00348031 0)
(-0.000327069 0.00334934 0)
(-0.00032542 0.0032188 0)
(-0.000322613 0.00308915 0)
(-0.000318776 0.00296085 0)
(-0.000314029 0.00283427 0)
(-0.000308487 0.00270977 0)
(-0.000302256 0.00258762 0)
(-0.000295432 0.0024681 0)
(-0.000288109 0.00235141 0)
(-0.000280371 0.00223774 0)
(-0.000272295 0.00212723 0)
(-0.000263955 0.00202002 0)
(-0.000255415 0.00191619 0)
(-0.000246737 0.0018158 0)
(-0.000237974 0.00171891 0)
(-0.000229178 0.00162553 0)
(-0.000220393 0.00153567 0)
(-0.000211659 0.00144931 0)
(-0.000203013 0.00136644 0)
(-0.000194487 0.00128699 0)
(-0.000186109 0.00121093 0)
(-0.000177905 0.00113819 0)
(-0.000169898 0.00106869 0)
(-0.000162105 0.00100235 0)
(-0.000154544 0.000939075 0)
(-0.000147228 0.000878779 0)
(-0.000140169 0.000821358 0)
(-0.000133377 0.000766706 0)
(-0.00012686 0.000714716 0)
(-0.000120624 0.000665275 0)
(-0.000114674 0.00061827 0)
(-0.000109013 0.000573587 0)
(-0.000103644 0.000531108 0)
(-9.85687e-05 0.000490717 0)
(-9.37871e-05 0.000452297 0)
(-8.92993e-05 0.000415729 0)
(-8.51047e-05 0.000380897 0)
(-8.12021e-05 0.000347683 0)
(-7.759e-05 0.000315972 0)
(-7.42666e-05 0.000285646 0)
(-7.123e-05 0.000256591 0)
(-6.8478e-05 0.000228693 0)
(-6.60086e-05 0.000201839 0)
(-6.38197e-05 0.000175916 0)
(-6.19093e-05 0.000150812 0)
(-6.02756e-05 0.000126416 0)
(-5.89168e-05 0.000102618 0)
(-5.78316e-05 7.93086e-05 0)
(-5.70188e-05 5.63785e-05 0)
(-5.64774e-05 3.37189e-05 0)
(-5.62069e-05 1.12216e-05 0)
(0.00566257 -0.0163445 0)
(0.00546123 -0.014756 0)
(0.00524691 -0.013227 0)
(0.00502238 -0.0117609 0)
(0.00479016 -0.0103601 0)
(0.00455254 -0.00902653 0)
(0.00431156 -0.00776139 0)
(0.0040691 -0.00656537 0)
(0.00382685 -0.00543863 0)
(0.00358627 -0.00438089 0)
(0.00334864 -0.00339149 0)
(0.00311511 -0.00246939 0)
(0.00288667 -0.00161329 0)
(0.00266419 -0.000821595 0)
(0.00244839 -9.24908e-05 0)
(0.00223985 0.000576019 0)
(0.00203908 0.00118609 0)
(0.00184644 0.00173999 0)
(0.00166223 0.00224009 0)
(0.00148667 0.00268884 0)
(0.00131988 0.00308872 0)
(0.00116193 0.00344226 0)
(0.00101283 0.00375199 0)
(0.000872526 0.00402042 0)
(0.00074092 0.00425005 0)
(0.000617873 0.00444335 0)
(0.000503209 0.00460275 0)
(0.000396719 0.0047306 0)
(0.00029817 0.00482921 0)
(0.000207304 0.0049008 0)
(0.000123846 0.00494754 0)
(4.75071e-05 0.0049715 0)
(-2.20141e-05 0.00497466 0)
(-8.50263e-05 0.00495893 0)
(-0.000141843 0.00492613 0)
(-0.000192783 0.00487796 0)
(-0.000238161 0.00481608 0)
(-0.000278295 0.00474201 0)
(-0.000313497 0.00465722 0)
(-0.000344075 0.00456306 0)
(-0.000370332 0.00446081 0)
(-0.000392562 0.00435166 0)
(-0.000411051 0.00423673 0)
(-0.000426077 0.00411702 0)
(-0.000437909 0.00399351 0)
(-0.000446803 0.00386705 0)
(-0.000453007 0.00373846 0)
(-0.000456757 0.00360846 0)
(-0.000458278 0.00347773 0)
(-0.000457783 0.00334686 0)
(-0.000455476 0.00321641 0)
(-0.000451547 0.00308687 0)
(-0.000446176 0.00295866 0)
(-0.000439533 0.00283218 0)
(-0.000431776 0.00270776 0)
(-0.000423053 0.00258571 0)
(-0.000413503 0.00246627 0)
(-0.000403253 0.00234967 0)
(-0.000392422 0.00223608 0)
(-0.000381119 0.00212566 0)
(-0.000369445 0.00201853 0)
(-0.000357493 0.00191477 0)
(-0.000345346 0.00181446 0)
(-0.000333082 0.00171764 0)
(-0.00032077 0.00162433 0)
(-0.000308474 0.00153453 0)
(-0.000296249 0.00144824 0)
(-0.000284148 0.00136542 0)
(-0.000272214 0.00128604 0)
(-0.000260488 0.00121004 0)
(-0.000249006 0.00113735 0)
(-0.000237798 0.0010679 0)
(-0.000226891 0.0010016 0)
(-0.000216308 0.000938379 0)
(-0.000206068 0.000878129 0)
(-0.000196188 0.00082075 0)
(-0.000186682 0.000766139 0)
(-0.00017756 0.000714186 0)
(-0.000168832 0.000664782 0)
(-0.000160504 0.000617812 0)
(-0.000152581 0.000573162 0)
(-0.000145066 0.000530715 0)
(-0.000137962 0.000490354 0)
(-0.00013127 0.000451962 0)
(-0.000124988 0.000415421 0)
(-0.000119117 0.000380615 0)
(-0.000113655 0.000347426 0)
(-0.000108599 0.000315738 0)
(-0.000103948 0.000285434 0)
(-9.96974e-05 0.000256401 0)
(-9.58456e-05 0.000228524 0)
(-9.23893e-05 0.00020169 0)
(-8.93256e-05 0.000175786 0)
(-8.66517e-05 0.0001507 0)
(-8.4365e-05 0.000126322 0)
(-8.24632e-05 0.000102542 0)
(-8.09443e-05 7.92499e-05 0)
(-7.98066e-05 5.63367e-05 0)
(-7.90489e-05 3.3694e-05 0)
(-7.86703e-05 1.12133e-05 0)
(0.00727804 -0.0163283 0)
(0.00701926 -0.0147414 0)
(0.00674381 -0.013214 0)
(0.00645522 -0.0117493 0)
(0.00615675 -0.0103499 0)
(0.00585133 -0.00901762 0)
(0.00554161 -0.00775373 0)
(0.00522998 -0.00655889 0)
(0.00491862 -0.00543326 0)
(0.0046094 -0.00437657 0)
(0.00430397 -0.00338814 0)
(0.00400382 -0.00246695 0)
(0.00371022 -0.0016117 0)
(0.00342427 -0.000820781 0)
(0.00314689 -9.23961e-05 0)
(0.00287887 0.000575454 0)
(0.00262081 0.00118492 0)
(0.00237321 0.00173827 0)
(0.00213645 0.00223788 0)
(0.0019108 0.00268619 0)
(0.00169643 0.00308568 0)
(0.00149342 0.00343887 0)
(0.00130178 0.00374828 0)
(0.00112145 0.00401645 0)
(0.000952297 0.00424586 0)
(0.000794146 0.00443897 0)
(0.000646769 0.00459821 0)
(0.000509899 0.00472593 0)
(0.000383235 0.00482444 0)
(0.000266446 0.00489597 0)
(0.000159178 0.00494266 0)
(6.10602e-05 0.00496659 0)
(-2.82948e-05 0.00496975 0)
(-0.000109284 0.00495404 0)
(-0.00018231 0.00492126 0)
(-0.000247782 0.00487315 0)
(-0.000306107 0.00481132 0)
(-0.00035769 0.00473733 0)
(-0.000402935 0.00465262 0)
(-0.000442237 0.00455855 0)
(-0.000475985 0.00445641 0)
(-0.000504556 0.00434737 0)
(-0.00052832 0.00423254 0)
(-0.000547634 0.00411296 0)
(-0.000562841 0.00398956 0)
(-0.000574273 0.00386323 0)
(-0.000582247 0.00373477 0)
(-0.000587066 0.0036049 0)
(-0.000589021 0.00347429 0)
(-0.000588385 0.00334356 0)
(-0.000585419 0.00321324 0)
(-0.000580369 0.00308382 0)
(-0.000573466 0.00295573 0)
(-0.000564928 0.00282938 0)
(-0.000554958 0.00270508 0)
(-0.000543747 0.00258315 0)
(-0.000531472 0.00246383 0)
(-0.000518298 0.00234734 0)
(-0.000504377 0.00223387 0)
(-0.000489849 0.00212356 0)
(-0.000474845 0.00201653 0)
(-0.000459482 0.00191288 0)
(-0.00044387 0.00181267 0)
(-0.000428107 0.00171594 0)
(-0.000412283 0.00162272 0)
(-0.000396478 0.00153301 0)
(-0.000380766 0.00144681 0)
(-0.000365212 0.00136407 0)
(-0.000349874 0.00128477 0)
(-0.000334804 0.00120884 0)
(-0.000320046 0.00113622 0)
(-0.00030564 0.00106684 0)
(-0.000291621 0.00100061 0)
(-0.000278018 0.000937452 0)
(-0.000264857 0.000877261 0)
(-0.000252159 0.000819939 0)
(-0.00023994 0.000765382 0)
(-0.000228216 0.000713481 0)
(-0.000216998 0.000664125 0)
(-0.000206294 0.000617202 0)
(-0.000196111 0.000572596 0)
(-0.000186452 0.00053019 0)
(-0.000177322 0.000489869 0)
(-0.00016872 0.000451515 0)
(-0.000160646 0.000415011 0)
(-0.0001531 0.000380239 0)
(-0.00014608 0.000347083 0)
(-0.000139582 0.000315426 0)
(-0.000133603 0.000285152 0)
(-0.00012814 0.000256148 0)
(-0.00012319 0.000228298 0)
(-0.000118747 0.00020149 0)
(-0.000114809 0.000175612 0)
(-0.000111373 0.000150551 0)
(-0.000108434 0.000126197 0)
(-0.000105989 0.000102441 0)
(-0.000104037 7.91716e-05 0)
(-0.000102575 5.62811e-05 0)
(-0.000101601 3.36607e-05 0)
(-0.000101114 1.12022e-05 0)
(0.00889173 -0.0163082 0)
(0.00857557 -0.0147232 0)
(0.00823905 -0.0131976 0)
(0.00788647 -0.0117348 0)
(0.00752182 -0.0103371 0)
(0.00714869 -0.00900648 0)
(0.00677029 -0.00774415 0)
(0.00638957 -0.00655079 0)
(0.00600917 -0.00542655 0)
(0.00563139 -0.00437116 0)
(0.00525825 -0.00338395 0)
(0.00489154 -0.00246391 0)
(0.00453284 -0.00160971 0)
(0.00418349 -0.000819766 0)
(0.00384462 -9.228e-05 0)
(0.00351717 0.000574746 0)
(0.00320189 0.00118346 0)
(0.0028994 0.00173613 0)
(0.00261015 0.00223512 0)
(0.00233446 0.00268287 0)
(0.00207256 0.00308187 0)
(0.00182454 0.00343462 0)
(0.00159041 0.00374366 0)
(0.0013701 0.00401149 0)
(0.00116344 0.00424061 0)
(0.000970224 0.00443349 0)
(0.00079017 0.00459253 0)
(0.000622954 0.00472009 0)
(0.000468205 0.00481848 0)
(0.000325522 0.00488992 0)
(0.000194471 0.00493655 0)
(7.45981e-05 0.00496046 0)
(-3.45686e-05 0.00496361 0)
(-0.000133514 0.00494792 0)
(-0.000222732 0.00491518 0)
(-0.00030272 0.00486713 0)
(-0.000373977 0.00480538 0)
(-0.000436997 0.00473148 0)
(-0.000492274 0.00464687 0)
(-0.00054029 0.00455292 0)
(-0.00058152 0.0044509 0)
(-0.000616426 0.004342 0)
(-0.000645459 0.00422731 0)
(-0.000669055 0.00410788 0)
(-0.000687634 0.00398464 0)
(-0.0007016 0.00385846 0)
(-0.000711342 0.00373015 0)
(-0.00071723 0.00360045 0)
(-0.000719618 0.00347 0)
(-0.000718842 0.00333943 0)
(-0.000715218 0.00320927 0)
(-0.000709048 0.00308001 0)
(-0.000700614 0.00295208 0)
(-0.000690183 0.00282588 0)
(-0.000678003 0.00270174 0)
(-0.000664306 0.00257996 0)
(-0.00064931 0.00246079 0)
(-0.000633214 0.00234444 0)
(-0.000616207 0.00223111 0)
(-0.000598458 0.00212094 0)
(-0.000580127 0.00201404 0)
(-0.000561358 0.00191051 0)
(-0.000542285 0.00181043 0)
(-0.000523027 0.00171382 0)
(-0.000503694 0.00162072 0)
(-0.000484385 0.00153112 0)
(-0.00046519 0.00144502 0)
(-0.000446187 0.00136239 0)
(-0.000427448 0.00128318 0)
(-0.000409036 0.00120735 0)
(-0.000391006 0.00113482 0)
(-0.000373406 0.00106552 0)
(-0.000356279 0.000999377 0)
(-0.000339661 0.000936294 0)
(-0.000323581 0.000876177 0)
(-0.000308067 0.000818926 0)
(-0.00029314 0.000764436 0)
(-0.000278816 0.000712599 0)
(-0.000265111 0.000663305 0)
(-0.000252033 0.000616439 0)
(-0.000239592 0.000571888 0)
(-0.000227792 0.000529535 0)
(-0.000216637 0.000489264 0)
(-0.000206128 0.000450958 0)
(-0.000196265 0.000414498 0)
(-0.000187046 0.000379769 0)
(-0.000178468 0.000346654 0)
(-0.00017053 0.000315036 0)
(-0.000163225 0.0002848 0)
(-0.000156551 0.000255831 0)
(-0.000150503 0.000228016 0)
(-0.000145076 0.000201241 0)
(-0.000140265 0.000175395 0)
(-0.000136066 0.000150365 0)
(-0.000132475 0.000126042 0)
(-0.000129489 0.000102314 0)
(-0.000127104 7.90738e-05 0)
(-0.000125318 5.62115e-05 0)
(-0.000124128 3.36191e-05 0)
(-0.000123533 1.11884e-05 0)
(0.0105032 -0.016284 0)
(0.0101298 -0.0147014 0)
(0.00973226 -0.0131781 0)
(0.00931577 -0.0117174 0)
(0.00888503 -0.0103218 0)
(0.00844428 -0.00899312 0)
(0.0079973 -0.00773267 0)
(0.00754758 -0.00654107 0)
(0.00709824 -0.0054185 0)
(0.00665199 -0.00436468 0)
(0.00621123 -0.00337893 0)
(0.00577806 -0.00246025 0)
(0.00535436 -0.00160732 0)
(0.00494169 -0.000818549 0)
(0.00454141 -9.21411e-05 0)
(0.00415461 0.000573896 0)
(0.00378219 0.0011817 0)
(0.00342487 0.00173355 0)
(0.0030832 0.00223181 0)
(0.00275755 0.00267889 0)
(0.00244818 0.0030773 0)
(0.00215521 0.00342953 0)
(0.00187865 0.00373811 0)
(0.0016184 0.00400554 0)
(0.0013743 0.00423432 0)
(0.00114606 0.00442691 0)
(0.000933376 0.00458572 0)
(0.000735854 0.00471309 0)
(0.00055306 0.00481133 0)
(0.000384517 0.00488267 0)
(0.000229715 0.00492923 0)
(8.81175e-05 0.0049531 0)
(-4.0834e-05 0.00495625 0)
(-0.000157712 0.00494058 0)
(-0.0002631 0.00490789 0)
(-0.000357584 0.00485991 0)
(-0.000441754 0.00479825 0)
(-0.000516197 0.00472446 0)
(-0.000581491 0.00463998 0)
(-0.00063821 0.00454617 0)
(-0.000686912 0.0044443 0)
(-0.000728144 0.00433555 0)
(-0.000762439 0.00422104 0)
(-0.000790311 0.00410178 0)
(-0.000812257 0.00397872 0)
(-0.000828755 0.00385274 0)
(-0.000840262 0.00372462 0)
(-0.000847218 0.0035951 0)
(-0.000850038 0.00346485 0)
(-0.000849121 0.00333447 0)
(-0.000844841 0.0032045 0)
(-0.000837552 0.00307544 0)
(-0.00082759 0.0029477 0)
(-0.000815268 0.00282169 0)
(-0.000800881 0.00269773 0)
(-0.000784702 0.00257613 0)
(-0.000766987 0.00245714 0)
(-0.000747975 0.00234097 0)
(-0.000727885 0.0022278 0)
(-0.00070692 0.00211779 0)
(-0.000685266 0.00201105 0)
(-0.000663096 0.00190768 0)
(-0.000640566 0.00180774 0)
(-0.000617817 0.00171128 0)
(-0.000594981 0.00161831 0)
(-0.000572173 0.00152885 0)
(-0.000549498 0.00144288 0)
(-0.000527052 0.00136037 0)
(-0.000504917 0.00128128 0)
(-0.000483168 0.00120555 0)
(-0.00046187 0.00113313 0)
(-0.00044108 0.00106394 0)
(-0.000420849 0.000997894 0)
(-0.000401219 0.000934905 0)
(-0.000382226 0.000874877 0)
(-0.0003639 0.000817711 0)
(-0.000346267 0.000763302 0)
(-0.000329348 0.000711542 0)
(-0.000313158 0.00066232 0)
(-0.00029771 0.000615524 0)
(-0.000283014 0.000571039 0)
(-0.000269076 0.00052875 0)
(-0.000255899 0.000488538 0)
(-0.000243486 0.000450288 0)
(-0.000231835 0.000413883 0)
(-0.000220945 0.000379206 0)
(-0.000210813 0.000346139 0)
(-0.000201435 0.000314568 0)
(-0.000192807 0.000284377 0)
(-0.000184924 0.000255452 0)
(-0.000177779 0.000227678 0)
(-0.000171368 0.000200943 0)
(-0.000165686 0.000175135 0)
(-0.000160726 0.000150142 0)
(-0.000156485 0.000125854 0)
(-0.000152957 0.000102162 0)
(-0.00015014 7.89564e-05 0)
(-0.000148029 5.61281e-05 0)
(-0.000146624 3.35692e-05 0)
(-0.000145922 1.11718e-05 0)
(0.0121121 -0.0162557 0)
(0.0116815 -0.0146759 0)
(0.0112231 -0.0131552 0)
(0.0107428 -0.0116971 0)
(0.0102461 -0.0103039 0)
(0.00973778 -0.00897754 0)
(0.00922234 -0.00771927 0)
(0.00870374 -0.00652974 0)
(0.00818557 -0.00540912 0)
(0.00767096 -0.00435712 0)
(0.00716267 -0.00337308 0)
(0.00666316 -0.00245599 0)
(0.00617455 -0.00160453 0)
(0.00569867 -0.000817127 0)
(0.00523707 -9.19776e-05 0)
(0.00479102 0.000572905 0)
(0.00436155 0.00117966 0)
(0.0039495 0.00173055 0)
(0.00355549 0.00222794 0)
(0.00317996 0.00267426 0)
(0.0028232 0.00307197 0)
(0.00248535 0.00342359 0)
(0.00216642 0.00373163 0)
(0.00186631 0.0039986 0)
(0.00158481 0.00422699 0)
(0.00132162 0.00441924 0)
(0.00107635 0.00457777 0)
(0.000848573 0.00470493 0)
(0.000637778 0.004803 0)
(0.000443417 0.00487421 0)
(0.000264903 0.00492069 0)
(0.000101615 0.00494452 0)
(-4.70895e-05 0.00494766 0)
(-0.000181871 0.00493202 0)
(-0.000303402 0.00489939 0)
(-0.00041236 0.00485149 0)
(-0.000509423 0.00478994 0)
(-0.000595269 0.00471627 0)
(-0.000670565 0.00463194 0)
(-0.000735972 0.00453829 0)
(-0.000792134 0.0044366 0)
(-0.000839683 0.00432804 0)
(-0.000879231 0.00421373 0)
(-0.000911372 0.00409468 0)
(-0.00093668 0.00397183 0)
(-0.000955705 0.00384606 0)
(-0.000968975 0.00371817 0)
(-0.000976996 0.00358887 0)
(-0.000980249 0.00345885 0)
(-0.000979191 0.0033287 0)
(-0.000974255 0.00319895 0)
(-0.00096585 0.00307011 0)
(-0.000954362 0.0029426 0)
(-0.000940152 0.0028168 0)
(-0.000923561 0.00269306 0)
(-0.000904903 0.00257167 0)
(-0.000884475 0.00245288 0)
(-0.000862551 0.00233691 0)
(-0.000839383 0.00222394 0)
(-0.000815207 0.00211412 0)
(-0.000790236 0.00200757 0)
(-0.00076467 0.00190437 0)
(-0.000738688 0.00180461 0)
(-0.000712456 0.00170831 0)
(-0.000686121 0.00161551 0)
(-0.000659819 0.0015262 0)
(-0.000633671 0.00144038 0)
(-0.000607786 0.00135801 0)
(-0.000582261 0.00127906 0)
(-0.00055718 0.00120347 0)
(-0.00053262 0.00113117 0)
(-0.000508646 0.0010621 0)
(-0.000485316 0.000996165 0)
(-0.000462678 0.000933285 0)
(-0.000440775 0.000873361 0)
(-0.000419643 0.000816294 0)
(-0.000399309 0.000761979 0)
(-0.000379798 0.000710309 0)
(-0.000361128 0.000661173 0)
(-0.000343314 0.000614458 0)
(-0.000326367 0.00057005 0)
(-0.000310294 0.000527833 0)
(-0.000295098 0.000487692 0)
(-0.000280783 0.000449508 0)
(-0.000267347 0.000413166 0)
(-0.000254789 0.000378548 0)
(-0.000243106 0.000345539 0)
(-0.000232292 0.000314023 0)
(-0.000222342 0.000283884 0)
(-0.000213251 0.000255009 0)
(-0.000205012 0.000227283 0)
(-0.000197619 0.000200595 0)
(-0.000191066 0.000174831 0)
(-0.000185346 0.000149882 0)
(-0.000180455 0.000125636 0)
(-0.000176387 0.000101985 0)
(-0.000173138 7.88196e-05 0)
(-0.000170705 5.60308e-05 0)
(-0.000169084 3.3511e-05 0)
(-0.000168274 1.11524e-05 0)
(0.013718 -0.0162235 0)
(0.0132303 -0.0146468 0)
(0.0127111 -0.0131292 0)
(0.0121671 -0.0116739 0)
(0.0116045 -0.0102835 0)
(0.0110289 -0.00895975 0)
(0.0104451 -0.00770398 0)
(0.00985774 -0.0065168 0)
(0.00927087 -0.0053984 0)
(0.00868803 -0.00434848 0)
(0.00811236 -0.00336639 0)
(0.00754661 -0.00245112 0)
(0.00699322 -0.00160135 0)
(0.00645425 -0.000815504 0)
(0.00593144 -9.17914e-05 0)
(0.00542624 0.000571774 0)
(0.00493984 0.00117733 0)
(0.00447315 0.00172713 0)
(0.0040269 0.00222353 0)
(0.00360158 0.00266896 0)
(0.00319752 0.00306588 0)
(0.00281487 0.00341681 0)
(0.00245366 0.00372424 0)
(0.00211376 0.00399068 0)
(0.00179494 0.00421861 0)
(0.00149684 0.00441049 0)
(0.00121906 0.0045687 0)
(0.000961082 0.0046956 0)
(0.000722338 0.00479348 0)
(0.000502208 0.00486455 0)
(0.000300025 0.00491094 0)
(0.000115087 0.00493472 0)
(-5.33336e-05 0.00493785 0)
(-0.000205986 0.00492224 0)
(-0.00034363 0.00488968 0)
(-0.000467034 0.00484187 0)
(-0.000576967 0.00478044 0)
(-0.000674194 0.00470693 0)
(-0.000759474 0.00462276 0)
(-0.000833553 0.0045293 0)
(-0.000897161 0.0044278 0)
(-0.000951014 0.00431946 0)
(-0.000995806 0.00420537 0)
(-0.00103221 0.00408656 0)
(-0.00106087 0.00396396 0)
(-0.00108242 0.00383844 0)
(-0.00109745 0.00371079 0)
(-0.00110653 0.00358176 0)
(-0.00111022 0.00345199 0)
(-0.00110902 0.0033221 0)
(-0.00110343 0.00319261 0)
(-0.00109391 0.00306402 0)
(-0.0010809 0.00293676 0)
(-0.0010648 0.00281122 0)
(-0.00104601 0.00268772 0)
(-0.00102488 0.00256657 0)
(-0.00100175 0.00244802 0)
(-0.000976914 0.00233228 0)
(-0.000950675 0.00221953 0)
(-0.000923293 0.00210993 0)
(-0.000895012 0.00200359 0)
(-0.000866056 0.0019006 0)
(-0.000836629 0.00180103 0)
(-0.000806918 0.00170492 0)
(-0.000777092 0.0016123 0)
(-0.000747303 0.00152317 0)
(-0.000717688 0.00143752 0)
(-0.000688371 0.00135532 0)
(-0.000659461 0.00127652 0)
(-0.000631055 0.00120108 0)
(-0.000603238 0.00112893 0)
(-0.000576086 0.00105999 0)
(-0.000549662 0.00099419 0)
(-0.000524023 0.000931434 0)
(-0.000499217 0.000871629 0)
(-0.000475282 0.000814675 0)
(-0.000452252 0.000760468 0)
(-0.000430154 0.0007089 0)
(-0.000409009 0.000659862 0)
(-0.000388833 0.00061324 0)
(-0.000369639 0.00056892 0)
(-0.000351435 0.000526787 0)
(-0.000334225 0.000486725 0)
(-0.000318011 0.000448617 0)
(-0.000302794 0.000412347 0)
(-0.000288571 0.000377798 0)
(-0.000275338 0.000344854 0)
(-0.00026309 0.0003134 0)
(-0.000251822 0.000283322 0)
(-0.000241525 0.000254503 0)
(-0.000232194 0.000226833 0)
(-0.000223821 0.000200197 0)
(-0.000216399 0.000174484 0)
(-0.000209921 0.000149585 0)
(-0.000204381 0.000125387 0)
(-0.000199774 0.000101783 0)
(-0.000196094 7.86633e-05 0)
(-0.000193338 5.59197e-05 0)
(-0.000191502 3.34445e-05 0)
(-0.000190585 1.11303e-05 0)
(0.0153206 -0.0161873 0)
(0.0147758 -0.0146141 0)
(0.014196 -0.0130999 0)
(0.0135885 -0.0116478 0)
(0.0129602 -0.0102605 0)
(0.0123173 -0.00893975 0)
(0.0116653 -0.00768678 0)
(0.0110093 -0.00650225 0)
(0.0103539 -0.00538634 0)
(0.00970296 -0.00433877 0)
(0.00906004 -0.00335887 0)
(0.0084282 -0.00244564 0)
(0.00781016 -0.00159777 0)
(0.00720823 -0.00081368 0)
(0.00662435 -9.15832e-05 0)
(0.00606013 0.0005705 0)
(0.00551691 0.0011747 0)
(0.0049957 0.00172328 0)
(0.00449732 0.00221857 0)
(0.00402231 0.002663 0)
(0.00357104 0.00305904 0)
(0.0031437 0.00340918 0)
(0.0027403 0.00371592 0)
(0.00236069 0.00398177 0)
(0.00200462 0.0042092 0)
(0.0016717 0.00440064 0)
(0.00136147 0.0045585 0)
(0.00107335 0.00468512 0)
(0.00080672 0.00478278 0)
(0.000560875 0.00485369 0)
(0.000335073 0.00489997 0)
(0.000128531 0.0049237 0)
(-5.95647e-05 0.00492683 0)
(-0.000230049 0.00491125 0)
(-0.000383773 0.00487876 0)
(-0.000521593 0.00483106 0)
(-0.000644368 0.00476977 0)
(-0.000752954 0.00469642 0)
(-0.000848196 0.00461244 0)
(-0.000930928 0.00451918 0)
(-0.00100197 0.00441792 0)
(-0.00106211 0.00430982 0)
(-0.00111214 0.00419598 0)
(-0.00115279 0.00407743 0)
(-0.0011848 0.0039551 0)
(-0.00120887 0.00382986 0)
(-0.00122565 0.00370251 0)
(-0.0012358 0.00357376 0)
(-0.00123991 0.00344428 0)
(-0.00123857 0.00331468 0)
(-0.00123233 0.00318548 0)
(-0.0012217 0.00305718 0)
(-0.00120717 0.0029302 0)
(-0.00118919 0.00280494 0)
(-0.00116821 0.00268172 0)
(-0.00114461 0.00256084 0)
(-0.00111877 0.00244255 0)
(-0.00109104 0.00232707 0)
(-0.00106173 0.00221457 0)
(-0.00103115 0.00210522 0)
(-0.000999566 0.00199911 0)
(-0.000967227 0.00189635 0)
(-0.000934363 0.00179701 0)
(-0.000901181 0.00170112 0)
(-0.000867871 0.0016087 0)
(-0.000834602 0.00151977 0)
(-0.000801528 0.00143431 0)
(-0.000768786 0.00135229 0)
(-0.000736498 0.00127367 0)
(-0.000704774 0.0011984 0)
(-0.000673708 0.00112641 0)
(-0.000643383 0.00105762 0)
(-0.000613873 0.00099197 0)
(-0.000585239 0.000929354 0)
(-0.000557534 0.000869683 0)
(-0.000530804 0.000812856 0)
(-0.000505083 0.00075877 0)
(-0.000480404 0.000707317 0)
(-0.000456789 0.000658388 0)
(-0.000434256 0.00061187 0)
(-0.00041282 0.000567649 0)
(-0.000392489 0.00052561 0)
(-0.000373268 0.000485638 0)
(-0.000355161 0.000447615 0)
(-0.000338166 0.000411426 0)
(-0.000322282 0.000376954 0)
(-0.000307503 0.000344084 0)
(-0.000293824 0.0003127 0)
(-0.000281239 0.000282689 0)
(-0.00026974 0.000253935 0)
(-0.000259318 0.000226326 0)
(-0.000249967 0.00019975 0)
(-0.000241678 0.000174095 0)
(-0.000234443 0.00014925 0)
(-0.000228257 0.000125107 0)
(-0.000223111 0.000101556 0)
(-0.000219002 7.84876e-05 0)
(-0.000215924 5.57948e-05 0)
(-0.000213873 3.33698e-05 0)
(-0.000212849 1.11054e-05 0)
(0.0169193 -0.0161471 0)
(0.0163177 -0.0145778 0)
(0.0156774 -0.0130673 0)
(0.0150065 -0.0116189 0)
(0.0143126 -0.010235 0)
(0.0136026 -0.00891754 0)
(0.0128826 -0.00766768 0)
(0.0121582 -0.0064861 0)
(0.0114344 -0.00537296 0)
(0.0107155 -0.00432799 0)
(0.0100055 -0.00335053 0)
(0.00930772 -0.00243956 0)
(0.00862518 -0.0015938 0)
(0.00796043 -0.000811656 0)
(0.00731562 -9.13527e-05 0)
(0.00669253 0.000569086 0)
(0.00609261 0.00117179 0)
(0.00551702 0.001719 0)
(0.00496662 0.00221306 0)
(0.00444205 0.00265639 0)
(0.00394369 0.00305144 0)
(0.00347176 0.00340071 0)
(0.00302625 0.00370669 0)
(0.00260703 0.00397188 0)
(0.0022138 0.00419874 0)
(0.00184615 0.00438971 0)
(0.00150354 0.00454718 0)
(0.00118536 0.00467348 0)
(0.000890903 0.0047709 0)
(0.000619403 0.00484163 0)
(0.000370038 0.0048878 0)
(0.000141943 0.00491147 0)
(-6.57812e-05 0.00491459 0)
(-0.000254056 0.00489905 0)
(-0.000423821 0.00486664 0)
(-0.000576023 0.00481906 0)
(-0.00071161 0.00475792 0)
(-0.000831527 0.00468475 0)
(-0.000936708 0.00460098 0)
(-0.00102807 0.00450795 0)
(-0.00110653 0.00440694 0)
(-0.00117295 0.00429911 0)
(-0.00122819 0.00418556 0)
(-0.00127309 0.0040673 0)
(-0.00130844 0.00394528 0)
(-0.00133502 0.00382035 0)
(-0.00135355 0.00369331 0)
(-0.00136476 0.00356488 0)
(-0.0013693 0.00343573 0)
(-0.00136782 0.00330644 0)
(-0.00136093 0.00317757 0)
(-0.00134919 0.00304958 0)
(-0.00133314 0.00292292 0)
(-0.00131329 0.00279797 0)
(-0.00129011 0.00267505 0)
(-0.00126405 0.00255447 0)
(-0.00123552 0.00243648 0)