/*--------------------------------*- C++ -*----------------------------------*\
| =========                 |                                                 |
| \\      /  F ield         | OpenFOAM: The Open Source CFD Toolbox           |
|  \\    /   O peration     | Version:  2406                                  |
|   \\  /    A nd           | Website:  www.openfoam.com                      |
|    \\/     M anipulation  |                                                 |
\*---------------------------------------------------------------------------*/
FoamFile
{
    version     2.0;
    format      ascii;
    arch        "LSB;label=32;scalar=64";
    class       volScalarField;
    location    "165";
    object      T;
}
// * * * * * * * * * * * * * * * * * * * * * * * * * * * * * * * * * * * * * //

dimensions      [0 0 0 1 0 0 0];

internalField   nonuniform List<scalar> 
20000
(
299.652
299.686
299.718
299.75
299.779
299.808
299.835
299.86
299.884
299.907
299.928
299.947
299.966
299.983
299.998
300.012
300.025
300.037
300.048
300.057
300.066
300.073
300.08
300.086
300.09
300.095
300.098
300.101
300.103
300.104
300.105
300.106
300.106
300.106
300.105
300.104
300.103
300.101
300.099
300.097
300.095
300.093
300.09
300.088
300.085
300.082
300.08
300.077
300.074
300.071
300.068
300.066
300.063
300.06
300.058
300.055
300.052
300.05
300.048
300.045
300.043
300.041
300.039
300.037
300.035
300.033
300.031
300.029
300.027
300.026
300.024
300.023
300.021
300.02
300.019
300.017
300.016
300.015
300.014
300.013
300.012
300.011
300.01
300.01
300.009
300.008
300.007
300.007
300.006
300.005
300.005
300.004
300.004
300.003
300.003
300.002
300.002
300.001
300.001
300
298.956
299.058
299.155
299.249
299.339
299.424
299.504
299.581
299.653
299.72
299.783
299.842
299.897
299.948
299.994
300.037
300.076
300.111
300.143
300.172
300.197
300.22
300.24
300.257
300.271
300.284
300.294
300.302
300.308
300.313
300.316
300.317
300.318
300.317
300.315
300.311
300.307
300.303
300.297
300.291
300.285
300.278
300.271
300.263
300.255
300.247
300.239
300.23
300.222
300.214
300.205
300.197
300.189
300.181
300.173
300.165
300.157
300.15
300.143
300.136
300.129
300.122
300.116
300.11
300.104
300.098
300.092
300.087
300.082
300.077
300.073
300.068
300.064
300.06
300.056
300.052
300.049
300.046
300.042
300.039
300.037
300.034
300.031
300.029
300.027
300.024
300.022
300.02
300.018
300.016
300.015
300.013
300.011
300.01
300.008
300.007
300.005
300.004
300.002
300.001
298.261
298.43
298.593
298.749
298.898
299.04
299.174
299.301
299.421
299.534
299.639
299.737
299.828
299.913
299.99
300.061
300.126
300.185
300.238
300.286
300.329
300.366
300.399
300.428
300.452
300.473
300.49
300.503
300.514
300.521
300.526
300.529
300.529
300.528
300.524
300.519
300.512
300.505
300.496
300.485
300.475
300.463
300.451
300.438
300.425
300.411
300.398
300.384
300.37
300.356
300.342
300.328
300.315
300.301
300.288
300.275
300.262
300.25
300.238
300.226
300.215
300.204
300.193
300.183
300.173
300.163
300.154
300.145
300.137
300.129
300.121
300.114
300.107
300.1
300.093
300.087
300.082
300.076
300.071
300.066
300.061
300.056
300.052
300.048
300.044
300.04
300.037
300.034
300.03
300.027
300.024
300.021
300.019
300.016
300.013
300.011
300.008
300.006
300.004
300.001
297.566
297.803
298.03
298.249
298.457
298.656
298.844
299.022
299.19
299.348
299.495
299.632
299.76
299.878
299.986
300.086
300.177
300.259
300.334
300.4
300.46
300.513
300.559
300.599
300.633
300.662
300.685
300.704
300.719
300.73
300.737
300.74
300.741
300.738
300.734
300.726
300.717
300.706
300.694
300.68
300.664
300.648
300.631
300.613
300.595
300.576
300.557
300.537
300.518
300.498
300.479
300.46
300.441
300.422
300.403
300.385
300.367
300.35
300.333
300.317
300.301
300.285
300.27
300.256
300.242
300.229
300.216
300.203
300.192
300.18
300.169
300.159
300.149
300.14
300.131
300.122
300.114
300.106
300.099
300.092
300.085
300.079
300.073
300.067
300.062
300.057
300.052
300.047
300.043
300.038
300.034
300.03
300.026
300.022
300.019
300.015
300.012
300.008
300.005
300.002
296.872
297.176
297.468
297.749
298.017
298.272
298.514
298.743
298.959
299.161
299.351
299.527
299.691
299.843
299.982
300.11
300.227
300.333
300.429
300.515
300.591
300.659
300.718
300.77
300.813
300.85
300.881
300.905
300.924
300.938
300.947
300.952
300.952
300.949
300.943
300.934
300.922
300.908
300.891
300.873
300.854
300.833
300.811
300.788
300.764
300.74
300.716
300.691
300.666
300.641
300.616
300.591
300.566
300.542
300.518
300.495
300.472
300.45
300.428
300.407
300.386
300.366
300.347
300.329
300.311
300.294
300.277
300.261
300.246
300.232
300.218
300.204
300.192
300.18
300.168
300.157
300.147
300.137
300.127
300.118
300.11
300.102
300.094
300.087
300.08
300.073
300.066
300.06
300.055
300.049
300.044
300.039
300.034
300.029
300.024
300.02
300.015
300.011
300.006
300.002
296.178
296.549
296.907
297.25
297.577
297.889
298.185
298.465
298.728
298.976
299.207
299.423
299.623
299.808
299.978
300.135
300.277
300.407
300.524
300.629
300.722
300.805
300.877
300.94
300.994
301.039
301.076
301.106
301.129
301.146
301.157
301.163
301.163
301.16
301.152
301.141
301.126
301.109
301.089
301.067
301.043
301.018
300.991
300.963
300.934
300.904
300.874
300.844
300.813
300.783
300.752
300.722
300.692
300.662
300.633
300.605
300.577
300.549
300.523
300.497
300.472
300.448
300.424
300.402
300.38
300.359
300.339
300.319
300.301
300.283
300.266
300.25
300.234
300.219
300.205
300.192
300.179
300.167
300.155
300.144
300.134
300.124
300.115
300.106
300.097
300.089
300.081
300.074
300.067
300.06
300.053
300.047
300.041
300.035
300.03
300.024
300.019
300.013
300.008
300.003
295.485
295.924
296.346
296.751
297.138
297.507
297.856
298.187
298.498
298.79
299.063
299.318
299.554
299.773
299.974
300.159
300.328
300.481
300.619
300.743
300.853
300.951
301.036
301.111
301.174
301.227
301.271
301.307
301.334
301.354
301.367
301.373
301.374
301.37
301.361
301.347
301.33
301.31
301.286
301.26
301.232
301.202
301.17
301.137
301.103
301.068
301.033
300.997
300.961
300.924
300.888
300.853
300.817
300.782
300.748
300.714
300.681
300.649
300.618
300.587
300.558
300.529
300.501
300.474
300.449
300.424
300.4
300.377
300.355
300.334
300.314
300.295
300.277
300.259
300.243
300.227
300.212
300.197
300.184
300.171
300.158
300.147
300.135
300.125
300.115
300.105
300.096
300.087
300.079
300.071
300.063
300.056
300.049
300.042
300.035
300.028
300.022
300.016
300.009
300.003
294.794
295.3
295.787
296.254
296.7
297.125
297.528
297.909
298.268
298.605
298.92
299.213
299.486
299.738
299.971
300.183
300.378
300.554
300.714
300.856
300.984
301.096
301.195
301.281
301.354
301.415
301.466
301.507
301.538
301.561
301.576
301.584
301.585
301.58
301.569
301.554
301.534
301.51
301.483
301.453
301.421
301.386
301.35
301.311
301.272
301.232
301.191
301.149
301.108
301.066
301.025
300.983
300.942
300.902
300.863
300.824
300.786
300.748
300.712
300.677
300.643
300.61
300.578
300.547
300.517
300.489
300.461
300.435
300.41
300.385
300.362
300.34
300.319
300.299
300.28
300.261
300.244
300.227
300.212
300.197
300.183
300.169
300.156
300.144
300.132
300.121
300.111
300.101
300.091
300.082
300.073
300.064
300.056
300.048
300.04
300.033
300.025
300.018
300.011
300.004
294.103
294.677
295.228
295.757
296.262
296.744
297.2
297.631
298.038
298.42
298.776
299.109
299.418
299.704
299.967
300.208
300.428
300.628
300.808
300.97
301.114
301.242
301.354
301.45
301.533
301.603
301.661
301.707
301.742
301.768
301.785
301.794
301.795
301.789
301.777
301.76
301.737
301.711
301.68
301.646
301.609
301.57
301.528
301.485
301.441
301.395
301.349
301.302
301.255
301.207
301.16
301.114
301.067
301.022
300.977
300.933
300.89
300.848
300.807
300.767
300.728
300.691
300.655
300.62
300.586
300.554
300.522
300.493
300.464
300.437
300.41
300.385
300.361
300.339
300.317
300.296
300.276
300.258
300.24
300.223
300.207
300.191
300.177
300.163
300.15
300.137
300.125
300.114
300.103
300.093
300.082
300.073
300.063
300.054
300.046
300.037
300.029
300.02
300.012
300.004
293.415
294.055
294.671
295.261
295.826
296.363
296.873
297.355
297.809
298.235
298.634
299.005
299.35
299.669
299.963
300.232
300.478
300.701
300.903
301.083
301.244
301.387
301.512
301.62
301.712
301.79
301.855
301.906
301.946
301.975
301.993
302.003
302.004
301.998
301.985
301.965
301.94
301.911
301.876
301.839
301.797
301.753
301.707
301.659
301.609
301.558
301.506
301.454
301.401
301.348
301.296
301.244
301.192
301.141
301.091
301.042
300.994
300.947
300.901
300.856
300.813
300.771
300.731
300.692
300.654
300.618
300.584
300.55
300.518
300.488
300.458
300.43
300.404
300.378
300.354
300.331
300.309
300.288
300.268
300.249
300.231
300.214
300.198
300.182
300.167
300.153
300.14
300.127
300.115
300.103
300.092
300.081
300.071
300.061
300.051
300.041
300.032
300.023
300.014
300.005
292.727
293.434
294.115
294.767
295.39
295.984
296.547
297.079
297.58
298.051
298.491
298.901
299.282
299.634
299.959
300.256
300.528
300.774
300.997
301.196
301.374
301.532
301.669
301.789
301.891
301.977
302.048
302.105
302.149
302.181
302.201
302.212
302.214
302.207
302.192
302.17
302.143
302.11
302.072
302.03
301.985
301.936
301.885
301.832
301.777
301.721
301.663
301.606
301.547
301.489
301.431
301.374
301.316
301.26
301.205
301.151
301.097
301.045
300.995
300.946
300.898
300.852
300.807
300.764
300.723
300.683
300.644
300.608
300.572
300.538
300.506
300.475
300.446
300.418
300.391
300.365
300.341
300.318
300.296
300.275
300.255
300.236
300.218
300.201
300.185
300.169
300.155
300.14
300.127
300.114
300.102
300.09
300.078
300.067
300.056
300.046
300.035
300.025
300.015
300.005
292.042
292.815
293.56
294.274
294.956
295.605
296.221
296.803
297.352
297.867
298.349
298.798
299.215
299.6
299.955
300.28
300.578
300.847
301.091
301.309
301.504
301.676
301.827
301.958
302.069
302.163
302.241
302.303
302.351
302.386
302.409
302.421
302.422
302.414
302.398
302.375
302.345
302.309
302.268
302.222
302.172
302.119
302.063
302.005
301.944
301.883
301.82
301.757
301.693
301.63
301.566
301.503
301.441
301.379
301.318
301.259
301.201
301.144
301.089
301.035
300.983
300.932
300.883
300.836
300.791
300.747
300.705
300.665
300.626
300.589
300.554
300.52
300.488
300.457
300.428
300.4
300.373
300.348
300.324
300.301
300.279
300.258
300.239
300.22
300.202
300.185
300.169
300.154
300.139
300.125
300.111
300.098
300.086
300.073
300.062
300.05
300.039
300.027
300.016
300.005
291.359
292.198
293.007
293.782
294.523
295.228
295.896
296.529
297.125
297.684
298.207
298.694
299.147
299.566
299.951
300.305
300.627
300.92
301.184
301.422
301.633
301.82
301.984
302.126
302.247
302.349
302.434
302.501
302.553
302.591
302.616
302.628
302.63
302.622
302.604
302.579
302.546
302.507
302.462
302.413
302.358
302.301
302.24
302.177
302.111
302.045
301.977
301.908
301.839
301.77
301.701
301.632
301.564
301.497
301.432
301.367
301.304
301.242
301.182
301.124
301.067
301.012
300.959
300.908
300.859
300.811
300.766
300.722
300.68
300.64
300.601
300.565
300.53
300.496
300.464
300.434
300.405
300.378
300.351
300.327
300.303
300.281
300.259
300.239
300.22
300.201
300.184
300.167
300.151
300.136
300.121
300.107
300.093
300.08
300.067
300.054
300.042
300.03
300.018
300.006
290.677
291.583
292.455
293.292
294.091
294.851
295.573
296.255
296.898
297.501
298.066
298.591
299.08
299.531
299.947
300.329
300.677
300.992
301.278
301.534
301.762
301.963
302.14
302.293
302.424
302.534
302.625
302.698
302.755
302.795
302.822
302.836
302.838
302.829
302.81
302.782
302.747
302.705
302.656
302.603
302.544
302.482
302.417
302.348
302.278
302.206
302.132
302.058
301.984
301.909
301.835
301.761
301.688
301.615
301.544
301.475
301.407
301.34
301.275
301.212
301.151
301.092
301.035
300.98
300.927
300.875
300.826
300.779
300.734
300.69
300.649
300.609
300.571
300.535
300.501
300.468
300.437
300.407
300.379
300.352
300.327
300.303
300.28
300.258
300.237
300.217
300.198
300.18
300.163
300.146
300.13
300.115
300.1
300.086
300.072
300.058
300.045
300.032
300.019
300.006
289.998
290.97
291.906
292.803
293.66
294.476
295.251
295.982
296.672
297.319
297.925
298.489
299.013
299.497
299.943
300.352
300.726
301.065
301.371
301.645
301.89
302.106
302.296
302.46
302.601
302.719
302.817
302.895
302.955
302.999
303.028
303.042
303.044
303.035
303.014
302.985
302.947
302.902
302.85
302.792
302.73
302.663
302.593
302.519
302.444
302.366
302.288
302.208
302.128
302.048
301.968
301.889
301.811
301.733
301.657
301.582
301.509
301.438
301.368
301.301
301.235
301.172
301.11
301.051
300.994
300.939
300.886
300.836
300.787
300.74
300.696
300.653
300.613
300.574
300.537
300.502
300.469
300.437
300.407
300.378
300.351
300.325
300.3
300.277
300.254
300.233
300.213
300.193
300.175
300.157
300.14
300.123
300.108
300.092
300.077
300.063
300.048
300.034
300.021
300.007
289.322
290.359
291.358
292.316
293.231
294.103
294.929
295.711
296.447
297.138
297.784
298.387
298.946
299.463
299.94
300.376
300.775
301.137
301.464
301.757
302.018
302.249
302.451
302.627
302.777
302.903
303.007
303.091
303.155
303.202
303.232
303.248
303.25
303.24
303.218
303.187
303.146
303.098
303.043
302.981
302.914
302.843
302.768
302.69
302.609
302.526
302.442
302.358
302.272
302.187
302.101
302.017
301.933
301.85
301.769
301.689
301.611
301.535
301.461
301.389
301.319
301.251
301.185
301.122
301.061
301.003
300.946
300.892
300.84
300.791
300.743
300.698
300.654
300.613
300.574
300.536
300.501
300.467
300.434
300.404
300.374
300.347
300.32
300.295
300.271
300.249
300.227
300.206
300.186
300.168
300.149
300.132
300.115
300.098
300.083
300.067
300.052
300.037
300.022
300.007
288.648
289.751
290.813
291.831
292.804
293.731
294.609
295.44
296.223
296.957
297.644
298.285
298.879
299.429
299.936
300.4
300.824
301.209
301.556
301.868
302.145
302.391
302.606
302.792
302.952
303.086
303.197
303.286
303.354
303.404
303.436
303.453
303.455
303.444
303.421
303.388
303.345
303.294
303.235
303.169
303.098
303.022
302.943
302.86
302.774
302.686
302.597
302.506
302.415
302.325
302.234
302.144
302.055
301.967
301.881
301.796
301.713
301.632
301.553
301.476
301.402
301.33
301.26
301.193
301.128
301.066
301.006
300.948
300.893
300.84
300.79
300.742
300.696
300.652
300.61
300.57
300.532
300.496
300.462
300.429
300.398
300.369
300.341
300.314
300.289
300.264
300.241
300.219
300.198
300.178
300.159
300.14
300.122
300.105
300.088
300.071
300.055
300.039
300.023
300.008
287.977
289.145
290.27
291.348
292.379
293.36
294.291
295.17
295.999
296.777
297.505
298.183
298.813
299.396
299.932
300.424
300.873
301.28
301.648
301.978
302.272
302.532
302.76
302.958
303.126
303.269
303.386
303.48
303.552
303.605
303.64
303.657
303.659
303.648
303.624
303.588
303.543
303.488
303.426
303.357
303.281
303.201
303.117
303.029
302.938
302.845
302.75
302.654
302.558
302.462
302.366
302.271
302.176
302.083
301.992
301.902
301.814
301.728
301.645
301.564
301.485
301.409
301.335
301.264
301.195
301.129
301.065
301.004
300.946
300.89
300.837
300.786
300.737
300.69
300.646
300.604
300.564
300.525
300.489
300.454
300.422
300.39
300.361
300.332
300.306
300.28
300.256
300.232
300.21
300.189
300.168
300.148
300.129
300.111
300.093
300.075
300.058
300.041
300.025
300.008
287.309
288.542
289.729
290.868
291.955
292.991
293.973
294.902
295.777
296.598
297.367
298.083
298.747
299.362
299.928
300.447
300.921
301.351
301.739
302.088
302.398
302.673
302.913
303.122
303.3
303.45
303.574
303.673
303.75
303.805
303.842
303.86
303.863
303.851
303.825
303.788
303.74
303.682
303.616
303.543
303.464
303.379
303.29
303.197
303.101
303.003
302.903
302.802
302.7
302.599
302.498
302.397
302.297
302.199
302.103
302.008
301.915
301.825
301.736
301.651
301.567
301.487
301.409
301.334
301.261
301.192
301.125
301.06
300.999
300.94
300.883
300.829
300.778
300.729
300.682
300.637
300.595
300.555
300.516
300.48
300.445
300.412
300.381
300.351
300.323
300.296
300.27
300.245
300.222
300.199
300.177
300.157
300.136
300.117
300.098
300.08
300.062
300.044
300.026
300.009
286.643
287.942
289.191
290.389
291.534
292.624
293.657
294.635
295.556
296.42
297.229
297.982
298.682
299.329
299.924
300.471
300.969
301.422
301.831
302.197
302.524
302.813
303.066
303.285
303.473
303.631
303.761
303.866
303.946
304.005
304.043
304.063
304.065
304.052
304.026
303.986
303.936
303.875
303.806
303.729
303.645
303.556
303.462
303.364
303.263
303.16
303.055
302.949
302.842
302.735
302.628
302.523
302.418
302.314
302.213
302.113
302.015
301.92
301.827
301.737
301.65
301.565
301.483
301.404
301.327
301.254
301.183
301.116
301.051
300.989
300.929
300.873
300.818
300.767
300.718
300.671
300.626
300.584
300.543
300.505
300.468
300.434
300.401
300.369
300.339
300.311
300.284
300.258
300.233
300.21
300.187
300.165
300.144
300.123
300.103
300.084
300.065
300.046
300.028
300.009
285.982
287.344
288.656
289.913
291.114
292.258
293.343
294.369
295.335
296.243
297.091
297.882
298.616
299.295
299.921
300.494
301.017
301.492
301.921
302.306
302.649
302.952
303.218
303.448
303.645
303.811
303.948
304.057
304.142
304.203
304.243
304.264
304.267
304.253
304.225
304.184
304.131
304.067
303.994
303.914
303.826
303.732
303.634
303.531
303.425
303.317
303.206
303.095
302.983
302.871
302.759
302.648
302.538
302.429
302.322
302.218
302.115
302.015
301.918
301.823
301.731
301.642
301.556
301.473
301.393
301.316
301.242
301.171
301.103
301.038
300.975
300.916
300.859
300.805
300.753
300.704
300.657
300.613
300.57
300.53
300.492
300.455
300.421
300.388
300.356
300.326
300.298
300.271
300.245
300.22
300.196
300.173
300.151
300.129
300.108
300.088
300.068
300.048
300.029
300.01
285.324
286.75
288.123
289.439
290.697
291.895
293.031
294.105
295.116
296.066
296.955
297.783
298.551
299.262
299.917
300.517
301.065
301.562
302.012
302.414
302.774
303.091
303.369
303.61
303.816
303.99
304.133
304.248
304.336
304.401
304.443
304.464
304.467
304.453
304.423
304.38
304.325
304.258
304.182
304.097
304.006
303.908
303.804
303.697
303.586
303.472
303.357
303.24
303.123
303.005
302.888
302.772
302.657
302.543
302.431
302.322
302.215
302.11
302.008
301.909
301.813
301.719
301.629
301.542
301.459
301.378
301.3
301.226
301.155
301.087
301.021
300.959
300.899
300.843
300.789
300.737
300.688
300.641
300.597
300.555
300.515
300.477
300.44
300.406
300.373
300.342
300.312
300.284
300.256
300.23
300.205
300.181
300.158
300.135
300.113
300.092
300.071
300.051
300.03
300.01
284.669
286.159
287.593
288.968
290.282
291.533
292.72
293.842
294.899
295.891
296.819
297.684
298.487
299.229
299.913
300.54
301.113
301.632
302.101
302.522
302.897
303.229
303.519
303.771
303.987
304.168
304.317
304.437
304.53
304.597
304.641
304.663
304.666
304.651
304.621
304.576
304.517
304.448
304.368
304.28
304.184
304.082
303.974
303.862
303.746
303.627
303.507
303.385
303.262
303.139
303.017
302.895
302.775
302.657
302.54
302.425
302.313
302.204
302.097
301.994
301.893
301.796
301.702
301.611
301.524
301.439
301.358
301.281
301.206
301.135
301.067
301.002
300.94
300.88
300.824
300.77
300.719
300.67
300.624
300.58
300.538
300.498
300.46
300.424
300.39
300.357
300.326
300.296
300.268
300.241
300.214
300.189
300.165
300.141
300.118
300.096
300.074
300.053
300.032
300.011
284.018
285.571
287.066
288.5
289.87
291.174
292.411
293.58
294.682
295.716
296.684
297.585
298.423
299.197
299.91
300.563
301.16
301.701
302.19
302.629
303.02
303.366
303.669
303.931
304.156
304.345
304.501
304.626
304.722
304.792
304.838
304.861
304.864
304.849
304.817
304.77
304.709
304.637
304.554
304.462
304.362
304.255
304.143
304.026
303.905
303.781
303.656
303.528
303.401
303.273
303.145
303.018
302.893
302.769
302.648
302.528
302.412
302.298
302.186
302.079
301.974
301.872
301.774
301.68
301.588
301.5
301.416
301.335
301.258
301.183
301.112
301.044
300.979
300.918
300.859
300.803
300.749
300.698
300.65
300.604
300.56
300.519
300.479
300.442
300.406
300.372
300.34
300.309
300.279
300.251
300.223
300.197
300.172
300.147
300.124
300.1
300.077
300.055
300.033
300.011
283.371
284.987
286.543
288.034
289.46
290.816
292.104
293.32
294.467
295.543
296.55
297.488
298.359
299.164
299.906
300.586
301.207
301.77
302.279
302.736
303.142
303.502
303.817
304.09
304.324
304.521
304.683
304.813
304.913
304.986
305.034
305.058
305.061
305.045
305.012
304.963
304.9
304.825
304.738
304.642
304.538
304.427
304.31
304.189
304.063
303.934
303.804
303.671
303.538
303.405
303.272
303.141
303.01
302.881
302.755
302.631
302.509
302.391
302.275
302.163
302.054
301.948
301.846
301.748
301.653
301.561
301.473
301.389
301.308
301.231
301.157
301.086
301.019
300.955
300.893
300.835
300.779
300.727
300.676
300.629
300.583
300.54
300.499
300.46
300.423
300.387
300.353
300.321
300.29
300.261
300.233
300.205
300.179
300.153
300.129
300.104
300.081
300.057
300.034
300.011
282.728
284.407
286.023
287.572
289.052
290.461
291.798
293.062
294.253
295.371
296.416
297.391
298.295
299.132
299.902
300.609
301.253
301.839
302.367
302.841
303.264
303.638
303.965
304.249
304.491
304.695
304.864
304.999
305.103
305.179
305.228
305.254
305.257
305.24
305.206
305.155
305.089
305.011
304.921
304.822
304.714
304.599
304.477
304.351
304.22
304.086
303.951
303.813
303.675
303.537
303.399
303.262
303.126
302.993
302.861
302.732
302.606
302.483
302.363
302.246
302.133
302.023
301.917
301.815
301.716
301.622
301.53
301.443
301.359
301.279
301.202
301.128
301.058
300.992
300.928
300.867
300.81
300.755
300.702
300.653
300.606
300.561
300.518
300.478
300.439
300.402
300.367
300.334
300.302
300.271
300.241
300.213
300.186
300.159
300.133
300.108
300.084
300.06
300.036
300.012
282.09
283.83
285.506
287.112
288.647
290.109
291.495
292.806
294.04
295.199
296.284
297.294
298.232
299.1
299.899
300.631
301.3
301.907
302.455
302.946
303.385
303.772
304.111
304.406
304.657
304.869
305.044
305.184
305.292
305.37
305.422
305.448
305.451
305.434
305.398
305.345
305.277
305.196
305.103
305
304.888
304.769
304.643
304.511
304.376
304.238
304.097
303.954
303.811
303.667
303.525
303.383
303.242
303.103
302.967
302.833
302.703
302.575
302.45
302.329
302.212
302.098
301.988
301.882
301.78
301.682
301.587
301.496
301.409
301.326
301.246
301.17
301.098
301.028
300.962
300.899
300.84
300.783
300.728
300.677
300.628
300.582
300.537
300.495
300.455
300.417
300.381
300.346
300.313
300.281
300.25
300.221
300.193
300.165
300.138
300.112
300.087
300.062
300.037
300.012
281.456
283.258
284.993
286.656
288.245
289.759
291.194
292.551
293.829
295.029
296.152
297.198
298.17
299.068
299.895
300.654
301.346
301.974
302.542
303.051
303.504
303.906
304.257
304.562
304.822
305.041
305.222
305.367
305.479
305.56
305.613
305.641
305.644
305.626
305.589
305.535
305.464
305.38
305.284
305.177
305.061
304.937
304.807
304.671
304.531
304.388
304.242
304.094
303.946
303.797
303.649
303.502
303.357
303.213
303.072
302.934
302.798
302.666
302.537
302.412
302.29
302.172
302.059
301.949
301.843
301.741
301.643
301.549
301.459
301.373
301.29
301.212
301.136
301.065
300.996
300.931
300.869
300.81
300.754
300.701
300.65
300.602
300.556
300.513
300.471
300.432
300.394
300.358
300.324
300.291
300.259
300.229
300.199
300.171
300.143
300.116
300.09
300.064
300.038
300.013
280.826
282.69
284.483
286.203
287.846
289.411
290.895
292.298
293.62
294.861
296.021
297.103
298.107
299.036
299.892
300.676
301.391
302.041
302.628
303.154
303.623
304.038
304.402
304.716
304.986
305.213
305.4
305.55
305.665
305.749
305.804
305.832
305.836
305.817
305.779
305.722
305.65
305.563
305.463
305.353
305.233
305.105
304.97
304.83
304.685
304.536
304.386
304.233
304.08
303.926
303.773
303.621
303.471
303.322
303.177
303.033
302.893
302.756
302.623
302.494
302.368
302.246
302.129
302.015
301.906
301.8
301.699
301.602
301.509
301.42
301.334
301.253
301.175
301.101
301.03
300.963
300.899
300.838
300.78
300.725
300.672
300.623
300.575
300.53
300.487
300.447
300.408
300.37
300.335
300.301
300.268
300.237
300.206
300.177
300.148
300.12
300.093
300.066
300.04
300.013
280.201
282.125
283.978
285.754
287.45
289.066
290.598
292.047
293.412
294.693
295.892
297.009
298.046
299.005
299.888
300.698
301.437
302.108
302.714
303.257
303.742
304.17
304.545
304.87
305.148
305.382
305.576
305.73
305.85
305.937
305.993
306.022
306.026
306.007
305.967
305.909
305.834
305.744
305.641
305.527
305.404
305.271
305.132
304.987
304.837
304.684
304.529
304.371
304.213
304.054
303.896
303.739
303.584
303.431
303.28
303.132
302.987
302.846
302.709
302.575
302.445
302.319
302.198
302.081
301.968
301.859
301.754
301.654
301.558
301.466
301.378
301.294
301.213
301.137
301.064
300.994
300.928
300.865
300.805
300.748
300.694
300.643
300.594
300.547
300.503
300.461
300.421
300.382
300.346
300.311
300.277
300.244
300.213
300.183
300.153
300.124
300.096
300.068
300.041
300.014
279.581
281.566
283.476
285.307
287.057
288.723
290.304
291.798
293.206
294.527
295.763
296.915
297.985
298.974
299.884
300.72
301.482
302.174
302.799
303.359
303.859
304.3
304.687
305.023
305.309
305.551
305.75
305.91
306.033
306.122
306.181
306.211
306.215
306.195
306.154
306.094
306.017
305.924
305.818
305.7
305.573
305.436
305.293
305.143
304.989
304.831
304.67
304.508
304.345
304.181
304.018
303.856
303.696
303.538
303.383
303.23
303.081
302.935
302.793
302.656
302.522
302.392
302.267
302.146
302.029
301.917
301.809
301.706
301.607
301.512
301.421
301.334
301.251
301.172
301.097
301.025
300.957
300.892
300.83
300.772
300.716
300.663
300.613
300.565
300.519
300.475
300.434
300.394
300.357
300.32
300.285
300.252
300.22
300.188
300.158
300.128
300.099
300.07
300.042
300.014
278.966
281.011
282.978
284.865
286.668
288.384
290.012
291.551
293.001
294.362
295.636
296.822
297.924
298.943
299.881
300.741
301.526
302.239
302.883
303.46
303.975
304.43
304.828
305.174
305.469
305.718
305.923
306.088
306.215
306.307
306.367
306.398
306.402
306.382
306.339
306.277
306.198
306.102
305.993
305.872
305.741
305.6
305.452
305.298
305.139
304.976
304.811
304.644
304.475
304.307
304.139
303.972
303.807
303.645
303.485
303.328
303.174
303.024
302.878
302.735
302.598
302.464
302.335
302.21
302.09
301.975
301.864
301.757
301.655
301.557
301.464
301.374
301.289
301.208
301.13
301.056
300.986
300.919
300.856
300.795
300.738
300.683
300.631
300.582
300.535
300.49
300.447
300.406
300.367
300.33
300.294
300.26
300.226
300.194
300.163
300.132
300.102
300.072
300.043
300.014
278.357
280.46
282.485
284.426
286.281
288.047
289.722
291.306
292.798
294.199
295.509
296.73
297.864
298.912
299.878
300.763
301.571
302.304
302.966
303.561
304.09
304.558
304.968
305.324
305.628
305.884
306.095
306.264
306.395
306.49
306.552
306.583
306.587
306.567
306.523
306.459
306.377
306.279
306.167
306.042
305.907
305.762
305.61
305.452
305.288
305.121
304.95
304.778
304.605
304.432
304.259
304.088
303.918
303.75
303.586
303.424
303.266
303.111
302.961
302.815
302.673
302.536
302.403
302.274
302.151
302.032
301.918
301.808
301.703
301.602
301.506
301.414
301.326
301.243
301.163
301.087
301.015
300.946
300.88
300.818
300.759
300.703
300.649
300.598
300.55
300.504
300.46
300.418
300.378
300.34
300.303
300.267
300.233
300.2
300.167
300.136
300.105
300.075
300.045
300.015
277.752
279.915
281.996
283.991
285.898
287.713
289.435
291.063
292.597
294.037
295.384
296.639
297.804
298.882
299.874
300.784
301.615
302.368
303.049
303.66
304.204
304.686
305.107
305.472
305.785
306.048
306.265
306.439
306.573
306.671
306.734
306.767
306.771
306.75
306.705
306.64
306.556
306.455
306.339
306.211
306.072
305.923
305.767
305.604
305.436
305.264
305.089
304.912
304.734
304.556
304.378
304.202
304.027
303.855
303.686
303.52
303.357
303.198
303.044
302.893
302.748
302.606
302.47
302.338
302.211
302.089
301.971
301.859
301.751
301.647
301.548
301.454
301.363
301.277
301.195
301.117
301.043
300.972
300.905
300.841
300.78
300.722
300.667
300.615
300.565
300.518
300.473
300.43
300.389
300.349
300.311
300.275
300.239
300.205
300.172
300.14
300.108
300.077
300.046
300.015
277.153
279.374
281.511
283.56
285.518
287.383
289.151
290.823
292.398
293.876
295.259
296.548
297.745
298.852
299.871
300.805
301.658
302.432
303.131
303.759
304.317
304.812
305.245
305.62
305.941
306.211
306.434
306.613
306.75
306.85
306.916
306.949
306.954
306.932
306.886
306.818
306.732
306.628
306.51
306.378
306.235
306.083
305.922
305.755
305.582
305.405
305.226
305.044
304.861
304.678
304.496
304.315
304.136
303.959
303.785
303.614
303.447
303.284
303.126
302.971
302.822
302.676
302.536
302.401
302.271
302.145
302.024
301.909
301.798
301.691
301.59
301.493
301.4
301.312
301.227
301.147
301.071
300.998
300.929
300.864
300.801
300.742
300.685
300.632
300.581
300.532
300.486
300.441
300.399
300.358
300.319
300.282
300.246
300.211
300.177
300.143
300.111
300.079
300.047
300.016
276.56
278.838
281.031
283.134
285.142
287.055
288.869
290.585
292.2
293.717
295.136
296.459
297.686
298.822
299.867
300.826
301.701
302.495
303.213
303.856
304.43
304.937
305.381
305.766
306.095
306.372
306.601
306.784
306.926
307.028
307.095
307.13
307.134
307.112
307.065
306.996
306.907
306.801
306.679
306.544
306.397
306.241
306.076
305.904
305.727
305.546
305.361
305.175
304.987
304.8
304.613
304.427
304.243
304.062
303.883
303.708
303.537
303.37
303.207
303.048
302.895
302.746
302.602
302.463
302.329
302.201
302.077
301.958
301.844
301.735
301.631
301.531
301.436
301.346
301.259
301.177
301.099
301.024
300.953
300.886
300.822
300.761
300.703
300.648
300.596
300.546
300.498
300.453
300.409
300.368
300.328
300.289
300.252
300.216
300.181
300.147
300.114
300.081
300.048
300.016
275.973
278.308
280.556
282.711
284.77
286.73
288.59
290.349
292.005
293.56
295.014
296.37
297.628
298.792
299.864
300.847
301.744
302.558
303.293
303.953
304.541
305.06
305.516
305.91
306.248
306.532
306.766
306.954
307.099
307.204
307.273
307.308
307.313
307.29
307.242
307.171
307.08
306.971
306.846
306.708
306.558
306.397
306.228
306.052
305.871
305.685
305.496
305.305
305.112
304.92
304.728
304.538
304.349
304.163
303.981
303.801
303.626
303.454
303.287
303.125
302.967
302.815
302.667
302.525
302.388
302.256
302.129
302.007
301.891
301.779
301.672
301.57
301.472
301.379
301.291
301.207
301.126
301.05
300.977
300.908
300.843
300.78
300.721
300.664
300.611
300.56
300.511