/*--------------------------------*- C++ -*----------------------------------*\
| =========                 |                                                 |
| \\      /  F ield         | OpenFOAM: The Open Source CFD Toolbox           |
|  \\    /   O peration     | Version:  2406                                  |
|   \\  /    A nd           | Website:  www.openfoam.com                      |
|    \\/     M anipulation  |                                                 |
\*---------------------------------------------------------------------------*/
FoamFile
{
    version     2.0;
    format      ascii;
    arch        "LSB;label=32;scalar=64";
    class       volScalarField;
    location    "180";
    object      gradTy;
}
// * * * * * * * * * * * * * * * * * * * * * * * * * * * * * * * * * * * * * //

dimensions      [0 -1 0 1 0 0 0];

internalField   nonuniform List<scalar> 
20000
(
-262.086
-252.8
-243.487
-234.172
-224.878
-215.628
-206.44
-197.334
-188.328
-179.435
-170.67
-162.047
-153.577
-145.269
-137.134
-129.18
-121.413
-113.841
-106.469
-99.3007
-92.3401
-85.5902
-79.0535
-72.7315
-66.6253
-60.7354
-55.0616
-49.6034
-44.3597
-39.329
-34.5094
-29.8989
-25.4947
-21.2942
-17.2941
-13.4914
-9.88223
-6.46307
-3.22996
-0.178863
2.69438
5.39404
7.92447
10.2901
12.4955
14.545
16.4434
18.195
19.8046
21.2767
22.6158
23.8264
24.9129
25.8799
26.7317
27.4726
28.1068
28.6385
29.0718
29.4108
29.6593
29.8212
29.9003
29.9002
29.8244
29.6766
29.46
29.1779
28.8335
28.4299
27.9701
27.457
26.8934
26.282
25.6254
24.9261
24.1866
23.4092
22.5962
21.7497
20.872
19.965
19.0306
18.0708
17.0874
16.0821
15.0567
14.0128
12.9519
11.8756
10.7854
9.68281
8.56916
7.44585
6.31423
5.17563
4.03135
2.88267
1.73085
0.577159
-262.022
-252.738
-243.427
-234.114
-224.822
-215.574
-206.389
-197.286
-188.281
-179.391
-170.628
-162.007
-153.539
-145.233
-137.1
-129.148
-121.384
-113.813
-106.443
-99.2762
-92.3173
-85.5691
-79.0339
-72.7135
-66.6089
-60.7204
-55.0481
-49.5912
-44.3488
-39.3193
-34.5009
-29.8915
-25.4884
-21.2889
-17.2899
-13.488
-9.87979
-6.46147
-3.22916
-0.178818
2.69371
5.39271
7.92252
10.2876
12.4924
14.5414
16.4393
18.1906
19.7998
21.2715
22.6102
23.8205
24.9068
25.8735
26.7251
27.4658
28.0998
28.6314
29.0646
29.4035
29.652
29.8138
29.8929
29.8928
29.8171
29.6693
29.4527
29.1707
28.8264
28.4229
27.9632
27.4503
26.8868
26.2755
25.619
24.9199
24.1806
23.4034
22.5906
21.7444
20.8668
19.96
19.0259
18.0664
17.0832
16.0782
15.053
14.0093
12.9487
11.8727
10.7828
9.68042
8.56704
7.44401
6.31267
5.17436
4.03036
2.88196
1.73042
0.577016
-261.892
-252.613
-243.307
-233.998
-224.712
-215.468
-206.288
-197.189
-188.188
-179.302
-170.544
-161.927
-153.463
-145.162
-137.033
-129.084
-121.324
-113.757
-106.39
-99.2272
-92.2717
-85.5268
-78.9949
-72.6776
-66.576
-60.6905
-55.0209
-49.5667
-44.3269
-39.2999
-34.4839
-29.8767
-25.4758
-21.2784
-17.2813
-13.4814
-9.87492
-6.45828
-3.22756
-0.178727
2.69239
5.39005
7.91861
10.2825
12.4862
14.5343
16.4312
18.1816
19.79
21.261
22.599
23.8087
24.8945
25.8608
26.7119
27.4522
28.086
28.6173
29.0503
29.389
29.6373
29.7991
29.8781
29.878
29.8024
29.6546
29.4382
29.1563
28.8122
28.4089
27.9494
27.4367
26.8735
26.2625
25.6064
24.9076
24.1687
23.3918
22.5794
21.7336
20.8566
19.9502
19.0165
18.0574
17.0748
16.0702
15.0456
14.0024
12.9423
11.8668
10.7774
9.67565
8.56281
7.44034
6.30956
5.1718
4.02837
2.88054
1.72957
0.576732
-261.698
-252.426
-243.127
-233.825
-224.545
-215.308
-206.135
-197.043
-188.049
-179.169
-170.418
-161.807
-153.349
-145.054
-136.931
-128.989
-121.234
-113.673
-106.311
-99.1537
-92.2033
-85.4635
-78.9364
-72.6238
-66.5267
-60.6455
-54.9802
-49.53
-44.2941
-39.2708
-34.4584
-29.8546
-25.457
-21.2626
-17.2685
-13.4714
-9.8676
-6.4535
-3.22517
-0.178594
2.69039
5.38606
7.91275
10.2749
12.477
14.5235
16.419
18.1681
19.7753
21.2452
22.5823
23.7911
24.8761
25.8416
26.6921
27.4319
28.0652
28.5961
29.0288
29.3672
29.6154
29.7771
29.856
29.8559
29.7803
29.6327
29.4164
29.1347
28.7908
28.3879
27.9287
27.4164
26.8536
26.2431
25.5874
24.8892
24.1508
23.3745
22.5627
21.7175
20.8411
19.9354
19.0024
18.0441
17.0621
16.0583
15.0344
13.992
12.9327
11.858
10.7695
9.66848
8.55647
7.43483
6.30489
5.16797
4.02538
2.8784
1.72829
0.576305
-261.44
-252.176
-242.886
-233.594
-224.323
-215.096
-205.931
-196.848
-187.863
-178.992
-170.25
-161.647
-153.198
-144.911
-136.796
-128.861
-121.114
-113.561
-106.206
-99.0557
-92.1122
-85.379
-78.8584
-72.5521
-66.461
-60.5857
-54.9259
-49.4811
-44.2503
-39.232
-34.4243
-29.8251
-25.4318
-21.2416
-17.2515
-13.4581
-9.85785
-6.44712
-3.22198
-0.178416
2.68774
5.38074
7.90493
10.2647
12.4646
14.5092
16.4028
18.1502
19.7558
21.2242
22.56
23.7676
24.8515
25.8161
26.6658
27.4048
28.0374
28.5679
29.0001
29.3382
29.5861
29.7476
29.8265
29.8264
29.7509
29.6034
29.3873
29.1059
28.7624
28.3598
27.9012
27.3893
26.8271
26.2172
25.5622
24.8646
24.1269
23.3514
22.5404
21.6961
20.8205
19.9157
18.9837
18.0263
17.0453
16.0425
15.0196
13.9782
12.9199
11.8463
10.7588
9.65893
8.54802
7.42748
6.29866
5.16287
4.02141
2.87556
1.72658
0.575735
-261.117
-251.865
-242.586
-233.305
-224.046
-214.83
-205.677
-196.605
-187.631
-178.771
-170.039
-161.448
-153.008
-144.732
-136.627
-128.702
-120.965
-113.42
-106.075
-98.9333
-91.9984
-85.2735
-78.761
-72.4625
-66.3789
-60.5108
-54.858
-49.42
-44.1957
-39.1835
-34.3818
-29.7883
-25.4004
-21.2154
-17.2302
-13.4414
-9.84567
-6.43915
-3.218
-0.178192
2.68442
5.37409
7.89517
10.2521
12.4492
14.4912
16.3825
18.1278
19.7314
21.198
22.5321
23.7382
24.8208
25.7842
26.6328
27.3709
28.0028
28.5326
28.9643
29.302
29.5496
29.7109
29.7897
29.7896
29.7141
29.5668
29.351
29.07
28.7269
28.3248
27.8667
27.3555
26.7939
26.1848
25.5306
24.8339
24.0971
23.3226
22.5126
21.6693
20.7948
19.8911
18.9602
18.004
17.0242
16.0227
15.001
13.9609
12.904
11.8317
10.7455
9.64699
8.53746
7.41831
6.29088
5.15649
4.01644
2.87201
1.72445
0.575024
-260.73
-251.491
-242.226
-232.959
-223.714
-214.511
-205.371
-196.313
-187.353
-178.506
-169.787
-161.208
-152.781
-144.517
-136.424
-128.511
-120.785
-113.252
-105.918
-98.7865
-91.8619
-85.147
-78.6441
-72.355
-66.2804
-60.421
-54.7766
-49.3467
-44.1301
-39.1254
-34.3308
-29.7441
-25.3627
-21.1839
-17.2046
-13.4215
-9.83106
-6.42959
-3.21322
-0.177925
2.68044
5.36612
7.88346
10.2369
12.4308
14.4697
16.3582
18.1009
19.7021
21.1666
22.4987
23.703
24.784
25.7459
26.5933
27.3303
27.9613
28.4902
28.9213
29.2585
29.5057
29.6668
29.7455
29.7454
29.67
29.5229
29.3075
29.0268
28.6842
28.2827
27.8253
27.3149
26.7542
26.1459
25.4927
24.797
24.0613
23.288
22.4792
21.6371
20.7639
19.8616
18.9321
17.9773
16.9989
15.9989
14.9788
13.9402
12.8848
11.8141
10.7296
9.63268
8.52479
7.4073
6.28154
5.14884
4.01048
2.86774
1.72189
0.574171
-260.278
-251.056
-241.807
-232.556
-223.326
-214.139
-205.016
-195.973
-187.028
-178.197
-169.493
-160.929
-152.517
-144.267
-136.188
-128.288
-120.576
-113.056
-105.734
-98.6153
-91.7027
-84.9995
-78.5079
-72.2296
-66.1656
-60.3164
-54.6817
-49.2612
-44.0536
-39.0576
-34.2713
-29.6925
-25.3188
-21.1472
-17.1748
-13.3982
-9.81402
-6.41845
-3.20765
-0.177616
2.6758
5.35682
7.8698
10.2191
12.4092
14.4447
16.3299
18.0695
19.668
21.1299
22.4597
23.6619
24.741
25.7013
26.5472
27.283
27.9128
28.4409
28.8712
29.2078
29.4546
29.6154
29.6939
29.6938
29.6186
29.4718
29.2567
28.9765
28.6345
28.2337
27.7771
27.2676
26.7078
26.1006
25.4485
24.7541
24.0196
23.2476
22.4402
21.5996
20.728
19.8272
18.8993
17.9461
16.9695
15.9712
14.9528
13.9161
12.8625
11.7937
10.711
9.61599
8.51002
7.39446
6.27066
5.13992
4.00353
2.86277
1.71891
0.573176
-259.762
-250.558
-241.327
-232.095
-222.883
-213.715
-204.609
-195.584
-186.657
-177.843
-169.157
-160.61
-152.214
-143.981
-135.918
-128.034
-120.337
-112.832
-105.525
-98.4198
-91.5209
-84.831
-78.3523
-72.0864
-66.0345
-60.1968
-54.5734
-49.1635
-43.9663
-38.9802
-34.2034
-29.6337
-25.2686
-21.1053
-17.1407
-13.3717
-9.79456
-6.40572
-3.20129
-0.177261
2.67049
5.34621
7.8542
10.1989
12.3846
14.416
16.2975
18.0337
19.629
21.088
22.4152
23.615
24.692
25.6504
26.4946
27.2289
27.8575
28.3845
28.814
29.1499
29.3962
29.5567
29.6351
29.6349
29.5599
29.4134
29.1987
28.9191
28.5778
28.1778
27.7221
27.2135
26.6549
26.0489
25.3981
24.705
23.972
23.2015
22.3957
21.5568
20.6869
19.7879
18.8618
17.9105
16.9358
15.9395
14.9232
13.8885
12.837
11.7703
10.6898
9.59693
8.49315
7.3798
6.25823
5.12973
3.99559
2.8571
1.7155
0.572039
-259.182
-249.998
-240.788
-231.576
-222.386
-213.238
-204.152
-195.148
-186.241
-177.446
-168.779
-160.251
-151.875
-143.659
-135.614
-127.748
-120.068
-112.58
-105.289
-98.2
-91.3165
-84.6415
-78.1773
-71.9254
-65.887
-60.0624
-54.4515
-49.0537
-43.8681
-38.8931
-34.127
-29.5675
-25.2121
-21.0581
-17.1025
-13.3418
-9.77269
-6.39142
-3.19414
-0.176862
2.66453
5.33427
7.83666
10.1761
12.357
14.3838
16.2611
17.9934
19.5852
21.0409
22.3651
23.5623
24.6368
25.5931
26.4354
27.1681
27.7953
28.3211
28.7496
29.0848
29.3306
29.4907
29.5689
29.5688
29.4939
29.3477
29.1335
28.8545
28.5139
28.1148
27.6601
27.1527
26.5953
25.9907
25.3414
24.6498
23.9185
23.1497
22.3457
21.5087
20.6407
19.7437
18.8197
17.8705
16.898
15.9039
14.8898
13.8575
12.8083
11.744
10.6659
9.57549
8.47418
7.36332
6.24425
5.11827
3.98667
2.85072
1.71167
0.570762
-258.538
-249.377
-240.19
-231.001
-221.833
-212.708
-203.645
-194.663
-185.778
-177.005
-168.36
-159.853
-151.497
-143.302
-135.277
-127.431
-119.77
-112.3
-105.027
-97.956
-91.0896
-84.4312
-77.983
-71.7467
-65.7233
-59.9131
-54.3162
-48.9319
-43.7591
-38.7965
-34.0422
-29.494
-25.1495
-21.0058
-17.06
-13.3087
-9.7484
-6.37553
-3.1862
-0.17642
2.65791
5.32102
7.81719
10.1508
12.3263
14.3481
16.2207
17.9487
19.5365
20.9886
22.3096
23.5038
24.5756
25.5295
26.3697
27.1006
27.7262
28.2507
28.6782
29.0125
29.2577
29.4174
29.4954
29.4953
29.4206
29.2748
29.0611
28.7828
28.4431
28.045
27.5914
27.0853
26.5293
25.9261
25.2784
24.5886
23.8591
23.0922
22.2902
21.4552
20.5894
19.6946
18.7729
17.8261
16.856
15.8644
14.8528
13.823
12.7765
11.7148
10.6394
9.5517
8.45312
7.34503
6.22873
5.10555
3.97676
2.84364
1.70741
0.569344
-257.83
-248.694
-239.532
-230.368
-221.226
-212.125
-203.087
-194.13
-185.269
-176.521
-167.899
-159.415
-151.082
-142.91
-134.907
-127.082
-119.442
-111.993
-104.74
-97.6878
-90.8402
-84.2001
-77.7696
-71.5503
-65.5434
-59.7491
-54.1675
-48.7979
-43.6393
-38.6903
-33.949
-29.4133
-25.0806
-20.9483
-17.0132
-13.2722
-9.72171
-6.35807
-3.17747
-0.175935
2.65064
5.30645
7.79579
10.123
12.2925
14.3088
16.1763
17.8996
19.483
20.9312
22.2485
23.4394
24.5083
25.4596
26.2976
27.0264
27.6503
28.1734
28.5997
28.9331
29.1776
29.3369
29.4147
29.4145
29.3401
29.1946
28.9815
28.704
28.3652
27.9682
27.5159
27.0111
26.4566
25.8551
25.2092
24.5212
23.7937
23.029
22.2292
21.3965
20.533
19.6407
18.7215
17.7773
16.8099
15.8209
14.8122
13.7852
12.7415
11.6827
10.6103
9.52555
8.42998
7.32492
6.21168
5.09157
3.96588
2.83585
1.70274
0.567785
-257.058
-247.95
-238.816
-229.679
-220.564
-211.491
-202.48
-193.549
-184.715
-175.993
-167.396
-158.938
-150.63
-142.482
-134.503
-126.702
-119.084
-111.658
-104.426
-97.3955
-90.5684
-83.9481
-77.5369
-71.3362
-65.3473
-59.5703
-54.0054
-48.6519
-43.5087
-38.5745
-33.8474
-29.3253
-25.0056
-20.8856
-16.9623
-13.2325
-9.69262
-6.33905
-3.16796
-0.175405
2.64271
5.29058
7.77247
10.0927
12.2558
14.266
16.1279
17.846
19.4247
20.8685
22.1819
23.3693
24.435
25.3834
26.2189
26.9455
27.5676
28.0891
28.5141
28.8465
29.0903
29.2491
29.3266
29.3265
29.2523
29.1073
28.8948
28.6181
28.2804
27.8845
27.4335
26.9303
26.3775
25.7778
25.1337
24.4479
23.7225
22.9601
22.1627
21.3325
20.4716
19.5819
18.6655
17.7241
16.7596
15.7736
14.7678
13.7439
12.7034
11.6478
10.5785
9.49705
8.40476
7.303
6.19309
5.07634
3.95401
2.82736
1.69765
0.566086
-256.224
-247.145
-238.04
-228.933
-219.847
-210.804
-201.822
-192.92
-184.115
-175.421
-166.853
-158.422
-150.141
-142.02
-134.067
-126.29
-118.698
-111.295
-104.087
-97.0792
-90.2743
-83.6755
-77.2851
-71.1046
-65.135
-59.3769
-53.83
-48.4939
-43.3674
-38.4492
-33.7375
-29.23
-24.9244
-20.8178
-16.9073
-13.1895
-9.66114
-6.31846
-3.15767
-0.174833
2.63413
5.2734
7.74723
10.06
12.216
14.2197
16.0755
17.788
19.3616
20.8008
22.1099
23.2934
24.3556
25.301
26.1337
26.858
27.478
27.9979
28.4215
28.7529
28.9958
29.1541
29.2314
29.2313
29.1573
29.0127
28.801
28.5252
28.1885
27.794
27.3444
26.8428
26.2918
25.694
25.0521
24.3685
23.6455
22.8855
22.0907
21.2632
20.4051
19.5183
18.6049
17.6666
16.7052
15.7224
14.7199
13.6993
12.6621
11.6099
10.5442
9.4662
8.37746
7.27928
6.17298
5.05985
3.94117
2.81818
1.69213
0.564247
-255.326
-246.279
-237.206
-228.131
-219.077
-210.065
-201.115
-192.244
-183.47
-174.806
-166.268
-157.867
-149.615
-141.522
-133.597
-125.848
-118.282
-110.905
-103.722
-96.739
-89.9579
-83.3822
-77.0142
-70.8553
-64.9067
-59.1688
-53.6413
-48.3239
-43.2154
-38.3145
-33.6192
-29.1276
-24.837
-20.7448
-16.848
-13.1433
-9.62727
-6.29631
-3.1466
-0.174219
2.6249
5.25492
7.72008
10.0247
12.1731
14.1698
16.0192
17.7257
19.2938
20.7279
22.0324
23.2117
24.2703
25.2123
26.0421
26.7639
27.3817
27.8997
28.3219
28.6521
28.8942
29.0519
29.1289
29.1288
29.0551
28.911
28.7
28.4252
28.0897
27.6965
27.2486
26.7487
26.1996
25.604
24.9643
24.2831
23.5626
22.8053
22.0133
21.1887
20.3336
19.4499
18.5397
17.6046
16.6466
15.6673
14.6683
13.6513
12.6178
11.5692
10.5072
9.43302
8.3481
7.25377
6.15134
5.04212
3.92735
2.8083
1.6862
0.56227
-254.364
-245.352
-236.313
-227.272
-218.252
-209.274
-200.358
-191.52
-182.779
-174.148
-165.642
-157.273
-149.052
-140.989
-133.094
-125.374
-117.836
-110.487
-103.332
-96.3748
-89.6193
-83.0684
-76.7243
-70.5886
-64.6624
-58.946
-53.4394
-48.142
-43.0528
-38.1702
-33.4927
-29.0179
-24.7435
-20.6667
-16.7846
-13.0938
-9.59103
-6.27261
-3.13476
-0.173561
2.61502
5.23514
7.69102
9.98696
12.1273
14.1165
15.9589
17.659
19.2211
20.6498
21.9494
23.1244
24.1789
25.1174
25.9441
26.6631
27.2786
27.7947
28.2153
28.5442
28.7854
28.9425
29.0193
29.0192
28.9457
28.8022
28.592
28.3182
27.984
27.5923
27.146
26.648
26.101
25.5076
24.8703
24.1917
23.4739
22.7194
21.9304
21.1089
20.257
19.3767
18.4699
17.5384
16.5839
15.6083
14.6131
13.5999
12.5703
11.5257
10.4676
9.39751
8.31667
7.22646
6.12819
5.02314
3.91257
2.79773
1.67985
0.560153
-253.341
-244.364
-235.362
-226.357
-217.374
-208.432
-199.551
-190.75
-182.043
-173.447
-164.975
-156.64
-148.452
-140.422
-132.558
-124.869
-117.362
-110.043
-102.916
-95.9869
-89.2586
-82.734
-76.4155
-70.3045
-64.4021
-58.7088
-53.2243
-47.9482
-42.8795
-38.0166
-33.3579
-28.9011
-24.6439
-20.5835
-16.717
-13.0411
-9.55243
-6.24736
-3.12214
-0.17286
2.6045
5.21407
7.66006
9.94676
12.0785
14.0597
15.8947
17.5879
19.1438
20.5667
21.8611
23.0313
24.0816
25.0163
25.8397
26.5558
27.1688
27.6828
28.1017
28.4293
28.6695
28.8261
28.9025
28.9024
28.8292
28.6863
28.4769
28.2042
27.8713
27.4812
27.0368
26.5408
25.996
25.4049
24.7702
24.0943
23.3794
22.628
21.8421
21.0239
20.1755
19.2987
18.3956
17.4678
16.5172
15.5455
14.5543
13.5451
12.5197
11.4793
10.4255
9.35969
8.2832
7.19737
6.10352
5.00292
3.89682
2.78647
1.67309
0.557898
-252.254
-243.316
-234.352
-225.387
-216.442
-207.538
-198.696
-189.932
-181.263
-172.703
-164.268
-155.968
-147.815
-139.819
-131.99
-124.334
-116.859
-109.571
-102.475
-95.5753
-88.8758
-82.3792
-76.0878
-70.003
-64.126
-58.457
-52.9961
-47.7426
-42.6956
-37.8536
-33.2148
-28.7772
-24.5382
-20.4953
-16.6453
-12.9852
-9.51146
-6.22057
-3.10875
-0.172116
2.59333
5.19171
7.62722
9.90411
12.0267
13.9994
15.8265
17.5125
19.0617
20.4785
21.7674
22.9325
23.9783
24.909
25.7289
26.4419
27.0523
27.5641
27.9812
28.3074
28.5466
28.7024
28.7785
28.7784
28.7056
28.5633
28.3548
28.0833
27.7518
27.3634
26.9208
26.427
25.8845
25.296
24.664
23.991
23.2792
22.531
21.7485
20.9338
20.089
19.216
18.3167
17.3929
16.4464
15.4788
14.4918
13.4871
12.466
11.4301
10.3808
9.31955
8.24768
7.16651
6.07735
4.98146
3.88011
2.77452
1.66592
0.555506
-251.106
-242.208
-233.285
-224.36
-215.456
-206.593
-197.791
-189.067
-180.437
-171.917
-163.52
-155.258
-147.142
-139.183
-131.389
-123.768
-116.327
-109.072
-102.008
-95.1401
-88.4712
-82.0042
-75.7413
-69.6843
-63.834
-58.1909
-52.7548
-47.5252
-42.5012
-37.6812
-33.0636
-28.6461
-24.4265
-20.4019
-16.5695
-12.9261
-9.46815
-6.19224
-3.09459
-0.17133
2.58153
5.16807
7.59249
9.85902
11.972
13.9357
15.7545
17.4327
18.9749
20.3853
21.6682
22.8281
23.8692
24.7956
25.6117
26.3215
26.9292
27.4386
27.8538
28.1785
28.4166
28.5718
28.6475
28.6474
28.5749
28.4332
28.2257
27.9554
27.6254
27.2388
26.7982
26.3066
25.7666
25.1808
24.5517
23.8817
23.1732
22.4284
21.6494
20.8385
19.9975
19.1285
18.2333
17.3137
16.3715
15.4083
14.4259
13.4256
12.4092
11.378
10.3335
9.27712
8.21012
7.13388
6.04968
4.95878
3.86244
2.76189
1.65833
0.552977
-249.895
-241.041
-232.161
-223.279
-214.417
-205.597
-196.837
-188.155
-179.567
-171.088
-162.731
-154.509
-146.433
-138.512
-130.755
-123.171
-115.766
-108.546
-101.516
-94.6815
-88.0447
-81.6088
-75.3762
-69.3484
-63.5263
-57.9103
-52.5005
-47.2961
-42.2963
-37.4996
-32.9042
-28.508
-24.3087
-20.3036
-16.4896
-12.8637
-9.4225
-6.16238
-3.07967
-0.170502
2.56908
5.14316
7.55589
9.81149
11.9142
13.8685
15.6785
17.3487
18.8834
20.287
21.5638
22.7181
23.7541
24.6761
25.4882
26.1946
26.7993
27.3063
27.7195
28.0427
28.2796
28.434
28.5094
28.5093
28.4371
28.2961
28.0896
27.8206
27.4923
27.1075
26.6691
26.1798
25.6424
25.0594
24.4333
23.7666
23.0615
22.3202
21.5451
20.738
19.9011
19.0363
18.1454
17.2302
16.2926
15.334
14.3563
13.3609
12.3494
11.3232
10.2837
9.23239
8.17054
7.09949
6.02051
4.93488
3.84382
2.74857
1.65034
0.550311
-248.623
-239.814
-230.979
-222.142
-213.326
-204.551
-195.835
-187.197
-178.653
-170.217
-161.903
-153.723
-145.687
-137.807
-130.09
-122.544
-115.177
-107.993
-101
-94.1995
-87.5964
-81.1934
-74.9925
-68.9953
-63.2029
-57.6155
-52.2332
-47.0553
-42.081
-37.3087
-32.7367
-28.3629
-24.185
-20.2002
-16.4057
-12.7982
-9.37453
-6.13101
-3.06399
-0.169633
2.55601
5.11698
7.51742
9.76154
11.8536
13.7979
15.5987
17.2604
18.7873
20.1837
21.454
22.6024
23.6332
24.5505
25.3585
26.0613
26.6629
27.1673
27.5784
27.8999
28.1357
28.2893
28.3643
28.3642
28.2923
28.1521
27.9466
27.679
27.3523
26.9695
26.5333
26.0465
25.5119
24.9318
24.309
23.6456
22.9441
22.2066
21.4354
20.6324
19.7998
18.9393
18.053
17.1425
16.2096
15.256
14.2832
13.2929
12.2865
11.2655
10.2314
9.18539
8.12895
7.06334
5.98986
4.90975
3.82425
2.73458
1.64193
0.547509
-247.289
-238.527
-229.74
-220.951
-212.182
-203.453
-194.785
-186.193
-177.695
-169.304
-161.035
-152.898
-144.906
-137.067
-129.392
-121.887
-114.559
-107.414
-100.458
-93.6942
-87.1266
-80.7579
-74.5902
-68.6252
-62.8639
-57.3065
-51.953
-46.803
-41.8553
-37.1085
-32.5611
-28.2108
-24.0553
-20.0919
-16.3177
-12.7296
-9.32425
-6.09812
-3.04755
-0.168722
2.5423
5.08953
7.4771
9.70919
11.79
13.7239
15.515
17.1678
18.6865
20.0755
21.3389
22.4812
23.5064
24.4188
25.2225
25.9215
26.5199
27.0216
27.4305
27.7503
27.9847
28.1375
28.2121
28.212
28.1406
28.0011
27.7967
27.5305
27.2056
26.8248
26.391
25.9068
25.375
24.7981
24.1786
23.5188
22.821
22.0875
21.3204
20.5218
19.6936
18.8378
17.9562
17.0505
16.1227
15.1741
14.2066
13.2216
12.2206
11.2051
10.1765
9.13612
8.08534
7.02546
5.95773
4.88342
3.80374
2.71991
1.63313
0.544572
-245.895
-237.182
-228.444
-219.705
-210.985
-202.306
-193.686
-185.143
-176.693
-168.35
-160.126
-152.036
-144.089
-136.295
-128.662
-121.199
-113.913
-106.808
-99.8914
-93.1658
-86.6352
-80.3024
-74.1696
-68.2382
-62.5093
-56.9833
-51.6601
-46.539
-41.6192
-36.8993
-32.3775
-28.0517
-23.9196
-19.9786
-16.2257
-12.6578
-9.27167
-6.06373
-3.03037
-0.16777
2.52796
5.06083
7.43494
9.65443
11.7235
13.6465
15.4275
17.071
18.5811
19.9622
21.2186
22.3544
23.3738
24.2811
25.0802
25.7753
26.3703
26.8692
27.2758
27.5938
27.8269
27.9788
28.053
28.0529
27.9819
27.8432
27.6399
27.3753
27.0522
26.6735
26.2421
25.7607
25.2319
24.6583
24.0422
23.3861
22.6923
21.9629
21.2002
20.406
19.5825
18.7315
17.8549
16.9544
16.0317
15.0886
14.1265
13.147
12.1517
11.1419
10.1191
9.0846
8.03975
6.98584
5.92413
4.85588
3.78229
2.70457
1.62392
0.541501
-244.44
-235.779
-227.092
-218.404
-209.736
-201.109
-192.54
-184.048
-175.647
-167.353
-159.179
-151.136
-143.236
-135.488
-127.901
-120.482
-113.239
-106.176
-99.3002
-92.6145
-86.1225
-79.8272
-73.7307
-67.8344
-62.1394
-56.6461
-51.3543
-46.2636
-41.3729
-36.6809
-32.1858
-27.8857
-23.778
-19.8603
-16.1296
-12.5829
-9.21679
-6.02785
-3.01243
-0.166776
2.513
5.03088
7.39094
9.5973
11.6541
13.5657
15.3362
16.97
18.4712
19.8441
21.093
22.2221
23.2355
24.1374
24.9318
25.6228
26.2143
26.7102
27.1143
27.4305
27.6622
27.8133
27.887
27.8869
27.8163
27.6784
27.4763
27.2133
26.8921
26.5157
26.0868
25.6083
25.0826
24.5123
23.8999
23.2477
22.558
21.833
21.0747
20.2853
19.4666
18.6207
17.7492
16.8541
15.9369
14.9993
14.0429
13.0692
12.0798
11.076
10.0592
9.03083
7.99217
6.94449
5.88907
4.82714
3.75991
2.68857
1.61431
0.538297
-242.924
-234.317
-225.684
-217.05
-208.436
-199.862
-191.346
-182.907
-174.558
-166.316
-158.192
-150.199
-142.348
-134.648
-127.108
-119.735
-112.536
-105.518
-98.6846
-92.0403
-85.5886
-79.3323
-73.2735
-67.4138
-61.7541
-56.2949
-51.0359
-45.9768
-41.1164
-36.4535
-31.9863
-27.7128
-23.6306
-19.7372
-16.0296
-12.5049
-9.15965
-5.99047
-2.99375
-0.165742
2.49742
4.99969
7.34511
9.53779
11.5819
13.4816
15.2411
16.8647
18.3566
19.7211
20.9622
22.0843
23.0914
23.9877
24.7772
25.4639
26.0517
26.5446
26.9462
27.2604
27.4907
27.6408
27.7141
27.714
27.6438
27.5068
27.306
27.0445
26.7253
26.3513
25.9251
25.4495
24.9271
24.3604
23.7517
23.1036
22.4181
21.6976
20.944
20.1595
19.3459
18.5052
17.6392
16.7496
15.838
14.9063
13.9558
12.9882
12.0049
11.0073
9.99684
8.97484
7.94261
6.90144
5.85256
4.79721
3.73659
2.6719
1.6043
0.534959
-241.349
-232.797
-224.221
-215.643
-207.084
-198.566
-190.105
-181.72
-173.426
-165.237
-157.166
-149.225
-141.425
-133.775
-126.283
-118.958
-111.807
-104.834
-98.0445
-91.4433
-85.0335
-78.8178
-72.7983
-66.9766
-61.3536
-55.9298
-50.7049
-45.6786
-40.8497
-36.217
-31.7788
-27.533
-23.4774
-19.6092
-15.9257
-12.4238
-9.10024
-5.95162
-2.97434
-0.164666
2.48122
4.96727
7.29748
9.47594
11.5068
13.3942
15.1423
16.7554
18.2376
19.5932
20.8263
21.9411
22.9417
23.8321
24.6165
25.2988
25.8828
26.3724
26.7715
27.0836
27.3124
27.4615
27.5344
27.5343
27.4645
27.3284
27.1289
26.8691
26.552
26.1804
25.7569
25.2844
24.7654
24.2024
23.5977
22.9537
22.2727
21.5569
20.8082
20.0287
19.2205
18.3852
17.5248
16.6409
15.7353
14.8096
13.8653
12.904
11.927
10.9359
9.93201
8.91663
7.8911
6.85668
5.8146
4.7661
3.71236
2.65457
1.59389
0.53149
-239.714
-231.22
-222.702
-214.182
-205.681
-197.221
-188.818
-180.489
-172.251
-164.118
-156.101
-148.214
-140.467
-132.868
-125.428
-118.153
-111.049
-104.124
-97.3803
-90.8238
-84.4574
-78.2838
-72.3051
-66.5229
-60.938
-55.5509
-50.3614
-45.3691
-40.573
-35.9717
-31.5635
-27.3465
-23.3183
-19.4763
-15.8178
-12.3396
-9.03859
-5.9113
-2.95419
-0.16355
2.46441
4.93362
7.24804
9.41174
11.4288
13.3034
15.0397
16.6419
18.114
19.4604
20.6852
21.7924
22.7863
23.6707
24.4498
25.1274
25.7074
26.1938
26.5901
26.9001
27.1274
27.2755
27.3478
27.3477
27.2785
27.1432
26.9451
26.6871
26.3721
26.003
25.5825
25.1131
24.5976
24.0384
23.4378
22.7982
22.1219
21.4108
20.6672
19.8931
19.0902
18.2606
17.406
16.5282
15.6287
14.7093
13.7714
12.8165
11.8462
10.8618
9.86472
8.85623
7.83764
6.81022
5.77521
4.73381
3.68721
2.63659
1.5831
0.527889
-238.019
-229.586
-221.128
-212.668
-204.228
-195.827
-187.483
-179.214
-171.034
-162.958
-154.998
-147.167
-139.474
-131.929
-124.541
-117.318
-110.264
-103.388
-96.6921
-90.1819
-83.8605
-77.7305
-71.7941
-66.0527
-60.5073
-55.1583
-50.0055
-45.0485
-40.2862
-35.7175
-31.3405
-27.1532
-23.1535
-19.3387
-15.706
-12.2524
-8.97471
-5.86952
-2.93331
-0.162394
2.447
4.89875
7.19681
9.34522
11.348
13.2094
14.9334
16.5242
17.986
19.3229
20.539
21.6384
22.6252
23.5034
24.277
24.9498
25.5257
26.0086
26.4022
26.71
26.9357
27.0827
27.1545
27.1544
27.0857
26.9514
26.7547
26.4985
26.1857
25.8192
25.4016
24.9357
24.4238
23.8685
23.2722
22.6371
21.9655
21.2595
20.5212
19.7525
18.9553
18.1316
17.283
16.4114
15.5183
14.6053
13.674
12.726
11.7625
10.7851
9.795
8.79363
7.78225
6.76209
5.73439
4.70035
3.66115
2.61795
1.57191
0.524158
-236.267
-227.895
-219.499
-211.102
-202.724
-194.385
-186.102
-177.894
-169.774
-161.758
-153.857
-146.083
-138.447
-130.958
-123.624
-116.454
-109.452
-102.626
-95.98
-89.5178
-83.2429
-77.1581
-71.2654
-65.5663
-60.0617
-54.752
-49.6372
-44.7167
-39.9895
-35.4544
-31.1097
-26.9533
-22.983
-19.1963
-15.5903
-12.1622
-8.90862
-5.8263
-2.9117
-0.161198
2.42898
4.86267
7.14381
9.2764
11.2645
13.1121
14.8234
16.4025
17.8536
19.1806
20.3877
21.4791
22.4586
23.3303
24.0982
24.766
25.3378
25.8171
26.2077
26.5133
26.7373
26.8833
26.9546
26.9545
26.8862
26.7529
26.5576
26.3033
25.9929
25.6291
25.2146
24.752
24.2439
23.6927
23.1008
22.4704
21.8037
21.1029
20.37
19.607
18.8157
17.998
17.1557
16.2905
15.404
14.4978
13.5733
12.6322
11.6759
10.7056
9.72286
8.72887
7.72493
6.71229
5.69216
4.66574
3.63419
2.59867
1.56033
0.520298
-234.455
-226.148
-217.817
-209.483
-201.17
-192.894
-184.676
-176.53
-168.473
-160.518
-152.677
-144.963
-137.385
-129.954
-122.676
-115.561
-108.613
-101.839
-95.2442
-88.8315
-82.6048
-76.5666
-70.7191
-65.0636
-59.6013
-54.3323
-49.2567
-44.3739
-39.683
-35.1826
-30.8712
-26.7467
-22.8068
-19.0491
-15.4708
-12.0689
-8.84032
-5.78163
-2.88938
-0.159963
2.41035
4.82539
7.08905
9.20528
11.1781
13.0116
14.7098
16.2768
17.7167
19.0336
20.2314
21.3144
22.2864
23.1515
23.9134
24.5762
25.1435
25.6192
26.0068
26.31
26.5323
26.6772
26.7479
26.7478
26.6801
26.5478
26.354
26.1017
25.7936
25.4326
25.0213
24.5623
24.0581
23.5111
22.9237
22.2981
21.6366
20.9412
20.2139
19.4567
18.6715
17.8601
17.0242
16.1656
15.2859
14.3866
13.4693
12.5354
11.5864
10.6236
9.64833
8.66196
7.66571
6.66083
5.64852
4.62997
3.60633
2.57875
1.54837
0.516309
-232.586
-224.345
-216.08
-207.814
-199.566
-191.357
-183.204
-175.123
-167.13
-159.238
-151.46
-143.807
-136.29
-128.918
-121.698
-114.64
-107.747
-101.028
-94.485
-88.1234
-81.9463
-75.9562
-70.1553
-64.545
-59.1261
-53.8992
-48.864
-44.0202
-39.3666
-34.9022
-30.6251
-26.5334
-22.625
-18.8973
-15.3475
-11.9727
-8.76985
-5.73554
-2.86635
-0.158689
2.39114
4.78692
7.03253
9.1319
11.089
12.9079
14.5925
16.147
17.5755
18.8818
20.0702
21.1445
22.1088
22.9669
23.7228
24.3803
24.9431
25.4149
25.7995
26.1003
26.3208
26.4645
26.5347
26.5346
26.4674
26.3362
26.1439
25.8936
25.588
25.2298
24.8218
24.3665
23.8663
23.3237
22.741
22.1204
21.4641
20.7742
20.0527
19.3016
18.5226
17.7177
16.8885
16.0368
15.164
14.2719
13.3619
12.4355
11.494
10.5389
9.57141
8.5929
7.6046
6.60773
5.60349
4.59306
3.57758
2.55819
1.53602
0.512193
-230.66
-222.487
-214.29
-206.092
-197.913
-189.772
-181.686
-173.672
-165.745
-157.919
-150.205
-142.616
-135.161
-127.85
-120.691
-113.69
-106.855
-100.191
-93.7024
-87.3935
-81.2675
-75.3271
-69.5742
-64.0104
-58.6364
-53.4528
-48.4593
-43.6556
-39.0406
-34.6131
-30.3714
-26.3137
-22.4376
-18.7407
-15.2204
-11.8736
-8.69721
-5.68804
-2.84261
-0.157375
2.37133
4.74727
6.97428
9.05626
10.9972
12.801
14.4717
16.0133
17.4299
18.7254
19.9039
20.9693
21.9256
22.7767
23.5263
24.1783
24.7365
25.2044
25.5858
25.8841
26.1028
26.2453
26.3149
26.3148
26.2482
26.118
25.9274
25.6791
25.3761
25.0209
24.6162
24.1646
23.6686
23.1305
22.5526
21.9372
21.2863
20.6021
19.8866
19.1417
18.3692
17.5709
16.7486
15.9039
15.0384
14.1537
13.2512
12.3325
11.3988
10.4516
9.49213
8.52173
7.54162
6.553
5.55708
4.55501
3.54795
2.537
1.5233
0.507951
-228.676
-220.574
-212.448
-204.32
-196.211
-188.14
-180.124
-172.179
-164.32
-156.561
-148.914
-141.39
-133.999
-126.751
-119.653
-112.712
-105.936
-99.3293
-92.8967
-86.642
-80.5687
-74.6794
-68.976
-63.46
-58.1322
-52.9931
-48.0426
-43.2802
-38.7049
-34.3154
-30.1103
-26.0874
-22.2447
-18.5796
-15.0895
-11.7715
-8.62243
-5.63913
-2.81817
-0.156023
2.35094
4.70645
6.91431
8.97839
10.9026
12.6909
14.3472
15.8756
17.28
18.5644
19.7328
20.789
21.7371
22.5808
23.324
23.9704
24.5238
24.9877
25.3658
25.6615
25.8784
26.0196
26.0886
26.0885
26.0225
25.8935
25.7045
25.4583
25.1579
24.8057
24.4045
23.9568
23.4651
22.9316
22.3587
21.7485
21.1033
20.425
19.7156
18.9771
18.2113
17.4199
16.6046
15.7672
14.9091
14.032
13.1373
12.2264
11.3008
10.3617
9.41051
8.44845
7.47677
6.49666
5.5093
4.51585
3.51744
2.51519
1.5102
0.503583
-226.637
-218.606
-210.553
-202.498
-194.461
-186.462
-178.517
-170.643
-162.855
-155.165
-147.586
-140.129
-132.804
-125.62
-118.585
-111.707
-104.991
-98.4433
-92.068
-85.8692
-79.8501
-74.0133
-68.3607
-62.8939
-57.6137
-52.5204
-47.6141
-42.8941
-38.3596
-34.0094
-29.8417
-25.8547
-22.0462
-18.4139
-14.9549
-11.6665
-8.54552
-5.58883
-2.79303
-0.154632
2.32997
4.66447
6.85264
8.8983
10.8053
12.5777
14.2192
15.734
17.1259
18.3988
19.5568
20.6036
21.5432
22.3794
23.116
23.7566
24.305
24.7648
25.1395
25.4326
25.6475
25.7875
25.8559
25.8558
25.7903
25.6625
25.4752
25.2312
24.9334
24.5845
24.1869
23.7432
23.2558
22.727
22.1592
21.5545
20.915
20.2428
19.5398
18.8078
18.0488
17.2645
16.4565
15.6265
14.7761
13.9068
13.0201
12.1174
11.2
10.2693
9.32657
8.37309
7.41007
6.43871
5.46016
4.47557
3.48606
2.49275
1.49673
0.499091
-224.541
-216.585
-208.606
-200.625
-192.663
-184.738
-176.866
-169.065
-161.349
-153.73
-146.221
-138.833
-131.576
-124.458
-117.489
-110.674
-104.02
-97.533
-91.2167
-85.0752
-79.1117
-73.3289
-67.7286
-62.3123
-57.0809
-52.0348
-47.1738
-42.4975
-38.0049
-33.6949
-29.5657
-25.6156
-21.8424
-18.2436
-14.8166
-11.5586
-8.4665
-5.53715
-2.76721
-0.153204
2.30842
4.62134
6.78927
8.81602
10.7054
12.4614
14.0878
15.5885
16.9675
18.2287
19.3759
20.4131
21.344
22.1725
22.9022
23.5369
24.0803
24.5358
24.9071
25.1975
25.4104
25.5491
25.6168
25.6167
25.5519
25.4252
25.2396
24.9979
24.7029
24.3571
23.9632
23.5236
23.0407
22.5169
21.9543
21.3552
20.7216
20.0556
19.3591
18.6339
17.8819
17.1048
16.3043
15.482
14.6395
13.7782
12.8997
12.0053
11.0964
10.1743
9.24033
8.29567
7.34155
6.37917
5.40967
4.43418
3.45383
2.4697
1.48289
0.494476
-222.39
-214.51