/*--------------------------------*- C++ -*----------------------------------*\
| =========                 |                                                 |
| \\      /  F ield         | OpenFOAM: The Open Source CFD Toolbox           |
|  \\    /   O peration     | Version:  2406                                  |
|   \\  /    A nd           | Website:  www.openfoam.com                      |
|    \\/     M anipulation  |                                                 |
\*---------------------------------------------------------------------------*/
FoamFile
{
    version     2.0;
    format      ascii;
    arch        "LSB;label=32;scalar=64";
    class       volScalarField;
    location    "135";
    object      gradTy;
}
// * * * * * * * * * * * * * * * * * * * * * * * * * * * * * * * * * * * * * //

dimensions      [0 -1 0 1 0 0 0];

internalField   nonuniform List<scalar> 
20000
(
-58.3646
-45.1104
-32.5751
-20.7395
-9.58115
0.920572
10.7873
20.0393
28.6974
36.7838
44.3179
51.3197
57.8103
63.8097
69.3373
74.4118
79.0524
83.2779
87.1065
90.5561
93.644
96.3871
98.8019
100.905
102.711
104.236
105.495
106.502
107.272
107.816
108.15
108.284
108.231
108.004
107.613
107.068
106.381
105.561
104.619
103.562
102.4
101.141
99.794
98.3655
96.863
95.2935
93.6635
91.9792
90.2466
88.4711
86.658
84.8122
82.9384
81.041
79.124
77.1912
75.2463
73.2925
71.3329
69.3703
67.4074
65.4465
63.4899
61.5397
59.5974
57.665
55.7437
53.8348
51.9396
50.059
48.1937
46.3446
44.5122
42.6969
40.899
39.1187
37.3562
35.6115
33.8843
32.1747
30.4821
28.8064
27.1471
25.5036
23.8755
22.262
20.6625
19.0763
17.5025
15.9403
14.3889
12.8473
11.3145
9.78971
8.27179
6.75974
5.25254
3.7491
2.24838
0.749278
-58.3501
-45.0996
-32.5675
-20.7343
-9.57851
0.92051
10.7843
20.0343
28.6907
36.7746
44.3066
51.307
57.7962
63.7941
69.3201
74.3933
79.0328
83.2573
87.0851
90.5339
93.6209
96.3633
98.7775
100.88
102.685
104.21
105.469
106.476
107.245
107.79
108.123
108.257
108.205
107.977
107.586
107.042
106.355
105.535
104.593
103.536
102.375
101.116
99.7694
98.3412
96.8391
95.27
93.6404
91.9565
90.2243
88.4492
86.6366
84.7913
82.918
81.021
79.1045
77.1722
75.2277
73.2744
71.3153
69.3532
67.3907
65.4304
63.4743
61.5245
59.5827
57.6507
55.7299
53.8215
51.9268
50.0466
48.1818
46.3332
44.5012
42.6863
40.8889
39.1091
37.347
35.6027
33.876
32.1667
30.4746
28.7993
27.1404
25.4973
23.8696
22.2565
20.6574
19.0716
17.4982
15.9364
14.3853
12.8441
11.3117
9.78729
8.26975
6.75808
5.25124
3.74818
2.24782
0.749093
-58.3209
-45.0771
-32.5517
-20.7243
-9.57405
0.920172
10.7791
20.0244
28.6765
36.7564
44.2846
51.2817
57.7678
63.7627
69.2858
74.3565
78.9938
83.2163
87.0422
90.4892
93.5748
96.3157
98.7287
100.83
102.635
104.159
105.417
106.423
107.192
107.736
108.07
108.204
108.151
107.924
107.533
106.989
106.302
105.483
104.541
103.485
102.324
101.067
99.7202
98.2927
96.7913
95.2229
93.5942
91.9111
90.1798
88.4056
86.5938
84.7494
82.877
80.981
79.0654
77.1341
75.1906
73.2382
71.2801
69.3189
67.3575
65.3981
63.443
61.4941
59.5533
57.6223
55.7024
53.795
51.9012
50.0219
48.1581
46.3103
44.4792
42.6653
40.8687
39.0898
37.3286
35.5851
33.8593
32.1508
30.4596
28.7851
27.127
25.4848
23.8578
22.2455
20.6472
19.0622
17.4895
15.9285
14.3782
12.8378
11.3062
9.78246
8.26566
6.75474
5.24865
3.74633
2.24671
0.748724
-58.2777
-45.043
-32.5274
-20.7089
-9.56708
0.919448
10.7712
20.0095
28.6552
36.7292
44.2519
51.2439
57.7251
63.7154
69.2344
74.3014
78.9353
83.1547
86.9778
90.4222
93.5055
96.2444
98.6555
100.755
102.559
104.082
105.339
106.345
107.113
107.657
107.989
108.124
108.071
107.844
107.453
106.91
106.224
105.405
104.464
103.409
102.248
100.992
99.6463
98.2199
96.7196
95.1524
93.5249
91.8431
90.113
88.3401
86.5297
84.6867
82.8157
80.921
79.0069
77.077
75.1349
73.184
71.2273
69.2676
67.3076
65.3497
63.396
61.4486
59.5092
57.5796
55.6612
53.7551
51.8627
49.9849
48.1224
46.276
44.4463
42.6337
40.8384
39.0608
37.3009
35.5588
33.8342
32.127
30.437
28.7638
27.1069
25.4659
23.8401
22.2291
20.6319
19.048
17.4766
15.9167
14.3676
12.8282
11.2978
9.77522
8.25954
6.74974
5.24476
3.74355
2.24505
0.748169
-58.2208
-44.9985
-32.4951
-20.6883
-9.55751
0.918478
10.7605
19.9897
28.6269
36.6929
44.2083
51.1932
57.668
63.6524
69.166
74.228
78.8574
83.0726
86.8919
90.3329
93.4131
96.1493
98.5581
100.656
102.457
103.979
105.235
106.24
107.007
107.55
107.883
108.017
107.965
107.738
107.347
106.804
106.119
105.301
104.361
103.306
102.147
100.892
99.5479
98.1229
96.6241
95.0584
93.4325
91.7524
90.024
88.2529
86.4442
84.603
82.7339
80.8411
78.9288
77.0008
75.0607
73.1117
71.1569
69.1992
67.2411
65.2851
63.3334
61.3879
59.4505
57.5227
55.6062
53.702
51.8115
49.9355
48.0749
46.2303
44.4024
42.5916
40.7981
39.0223
37.2641
35.5236
33.8008
32.0953
30.4069
28.7354
27.0801
25.4407
23.8166
22.2071
20.6116
19.0292
17.4593
15.901
14.3534
12.8156
11.2866
9.76556
8.25139
6.74307
5.23958
3.73986
2.24283
0.74743
-58.1492
-44.9432
-32.4549
-20.6627
-9.54566
0.917307
10.7472
19.965
28.5916
36.6476
44.1537
51.13
57.5967
63.5737
69.0805
74.1363
78.76
82.97
86.7845
90.2213
93.2976
96.0305
98.4363
100.531
102.331
103.851
105.105
106.108
106.875
107.418
107.75
107.883
107.831
107.604
107.214
106.672
105.988
105.171
104.232
103.179
102.021
100.767
99.4249
98.0016
96.5047
94.941
93.317
91.639
89.9128
88.1438
86.3374
84.4985
82.6316
80.7412
78.8313
76.9057
74.968
73.0214
71.069
69.1137
67.158
65.2044
63.2551
61.312
59.377
57.4517
55.5375
53.6357
51.7475
49.8738
48.0155
46.1732
44.3475
42.5389
40.7477
38.974
37.2181
35.4797
33.759
32.0556
30.3694
28.6999
27.0467
25.4093
23.7872
22.1797
20.5861
19.0057
17.4377
15.8813
14.3356
12.7997
11.2727
9.7535
8.24119
6.73474
5.23311
3.73524
2.24006
0.746507
-58.0627
-44.8767
-32.4068
-20.6321
-9.53152
0.91594
10.7313
19.9354
28.5492
36.5933
44.0881
51.0541
57.5112
63.4794
68.9781
74.0263
78.6431
82.8469
86.6558
90.0874
93.1592
95.888
98.2902
100.382
102.179
103.696
104.949
105.951
106.716
107.258
107.59
107.723
107.671
107.445
107.055
106.514
105.83
105.015
104.077
103.026
101.87
100.618
99.2774
97.8562
96.3615
94.8001
93.1786
91.503
89.7793
88.013
86.2093
84.3731
82.509
80.6214
78.7143
76.7916
74.8567
72.913
70.9635
69.0111
67.0584
65.1077
63.1612
61.221
59.2889
57.3664
55.4551
53.5561
51.6707
49.7998
47.9442
46.1047
44.2817
42.4758
40.6872
38.9162
37.1628
35.4271
33.7089
32.0081
30.3243
28.6573
27.0065
25.3716
23.7519
22.1468
20.5555
18.9775
17.4119
15.8578
14.3144
12.7807
11.256
9.73902
8.22896
6.72475
5.22534
3.72969
2.23674
0.745399
-57.9619
-44.7989
-32.3507
-20.5964
-9.51501
0.914364
10.7127
19.9009
28.4997
36.5298
44.0117
50.9656
57.4116
63.3694
68.8586
73.8981
78.5069
82.7033
86.5056
89.9313
92.9978
95.7218
98.1199
100.208
102.002
103.517
104.767
105.767
106.531
107.072
107.403
107.537
107.485
107.259
106.87
106.329
105.647
104.833
103.897
102.847
101.693
100.443
99.1054
97.6867
96.1945
94.6359
93.0171
91.3445
89.6238
87.8605
86.0599
84.2269
82.3661
80.4817
78.578
76.6585
74.727
72.7867
70.8406
68.8916
66.9422
64.9949
63.0518
61.115
59.1862
57.267
55.359
53.4633
51.5812
49.7135
47.8611
46.0248
44.205
42.4022
40.6167
38.8488
37.0984
35.3657
33.6505
31.9526
30.2718
28.6076
26.9598
25.3276
23.7107
22.1084
20.5199
18.9446
17.3817
15.8303
14.2896
12.7586
11.2364
9.72215
8.2147
6.7131
5.21629
3.72323
2.23286
0.744108
-57.8469
-44.7101
-32.2866
-20.5556
-9.49615
0.912564
10.6915
19.8615
28.4432
36.4574
43.9245
50.8646
57.2978
63.2438
68.7221
73.7516
78.3512
82.5394
86.3341
89.753
92.8134
95.532
97.9254
100.009
101.8
103.312
104.559
105.558
106.32
106.86
107.19
107.323
107.272
107.046
106.658
106.118
105.437
104.625
103.691
102.643
101.492
100.244
98.9089
97.493
96.0038
94.4482
92.8327
91.1634
89.4461
87.6864
85.8893
84.0599
82.2028
80.3222
78.4222
76.5066
74.5789
72.6424
70.7001
68.755
66.8095
64.866
62.9268
60.9938
59.0688
57.1535
55.2492
53.3573
51.4789
49.6149
47.7663
45.9335
44.1174
42.3182
40.5362
38.7718
37.0249
35.2956
33.5838
31.8893
30.2118
28.5509
26.9063
25.2774
23.6637
22.0646
20.4792
18.9071
17.3472
15.7989
14.2612
12.7333
11.2142
9.70288
8.19842
6.69979
5.20595
3.71585
2.22844
0.742632
-57.7177
-44.6103
-32.2145
-20.5096
-9.47493
0.910535
10.6676
19.8171
28.3797
36.376
43.8264
50.751
57.1698
63.1026
68.5686
73.5869
78.1763
82.3551
86.1413
89.5526
92.6061
95.3187
97.7067
99.7861
101.572
103.081
104.326
105.322
106.083
106.621
106.951
107.084
107.032
106.807
106.42
105.881
105.202
104.391
103.459
102.414
101.265
100.02
98.688
97.2753
95.7894
94.2373
92.6254
90.9598
89.2464
87.4905
85.6975
83.8722
82.0192
80.1428
78.247
76.3357
74.4123
72.4802
70.5423
68.6014
66.6603
64.7212
62.7863
60.8576
58.9369
57.0259
55.1258
53.2382
51.3639
49.5041
47.6596
45.831
44.0188
42.2236
40.4457
38.6852
36.9422
35.2168
33.5088
31.8181
30.1443
28.4872
26.8462
25.221
23.6109
22.0153
20.4335
18.8648
17.3085
15.7636
14.2294
12.7049
11.1891
9.68121
8.18011
6.68482
5.19432
3.70755
2.22346
0.740974
-57.5743
-44.4994
-32.1344
-20.4587
-9.45138
0.908274
10.6411
19.7678
28.3091
36.2856
43.7175
50.6249
57.0278
62.9458
68.3982
73.4041
77.982
82.1504
85.9272
89.33
92.376
95.0818
97.4639
99.5381
101.32
102.825
104.067
105.06
105.819
106.356
106.685
106.818
106.766
106.542
106.155
105.618
104.941
104.132
103.202
102.16
101.014
99.7719
98.4428
97.0336
95.5514
94.0032
92.3952
90.7338
89.0246
87.2731
85.4846
83.6638
81.8154
79.9437
78.0526
76.146
74.2274
72.3001
70.367
68.431
66.4946
64.5603
62.6303
60.7064
58.7905
56.8842
54.9889
53.1059
51.2363
49.3811
47.5412
45.7171
43.9095
42.1187
40.3452
38.5891
36.8504
35.1293
33.4255
31.739
30.0694
28.4164
26.7795
25.1583
23.5522
21.9606
20.3827
18.818
17.2655
15.7245
14.194
12.6733
11.1613
9.65715
8.15978
6.66821
5.18141
3.69834
2.21793
0.739133
-57.4167
-44.3776
-32.0464
-20.4027
-9.4255
0.90578
10.6119
19.7137
28.2316
36.1862
43.5978
50.4863
56.8716
62.7735
68.211
73.2031
77.7685
81.9255
85.692
89.0855
92.1231
94.8215
97.1971
99.2656
101.043
102.543
103.782
104.773
105.529
106.065
106.393
106.525
106.474
106.25
105.865
105.329
104.653
103.847
102.919
101.88
100.737
99.4988
98.1733
96.7679
95.2898
93.7458
92.1423
90.4854
88.7809
87.0342
85.2505
83.4348
81.5914
79.7248
77.8389
75.9376
74.0242
72.1021
70.1743
68.2436
66.3126
64.3836
62.4588
60.5402
58.6295
56.7284
54.8383
52.9605
51.096
49.2459
47.411
45.5919
43.7892
42.0034
40.2347
38.4834
36.7495
35.0331
33.334
31.6521
29.9871
28.3386
26.7062
25.0894
23.4877
21.9004
20.3269
18.7665
17.2182
15.6814
14.1552
12.6386
11.1308
9.63071
8.13744
6.64996
5.16723
3.68821
2.21186
0.737109
-57.2449
-44.2448
-31.9505
-20.3416
-9.39731
0.903061
10.5802
19.6547
28.1472
36.078
43.4673
50.3352
56.7015
62.5857
68.0069
72.9841
77.5358
81.6804
85.4356
88.8189
91.8474
94.5378
96.9062
98.9686
100.74
102.236
103.471
104.459
105.214
105.748
106.075
106.207
106.155
105.932
105.548
105.014
104.34
103.536
102.612
101.575
100.436
99.2011
97.8795
96.4784
95.0047
93.4653
91.8666
90.2146
88.5152
86.7738
84.9955
83.1851
81.3473
79.4863
77.606
75.7103
73.8027
71.8864
69.9644
68.0394
66.1142
64.191
62.2719
60.359
58.4541
56.5587
54.6742
52.802
50.9432
49.0986
47.2691
45.4555
43.6582
41.8777
40.1143
38.3683
36.6396
34.9283
33.2343
31.5574
29.8973
28.2538
26.6263
25.0144
23.4174
21.8349
20.2661
18.7103
17.1667
15.6345
14.1128
12.6008
11.0975
9.6019
8.1131
6.63006
5.15177
3.67718
2.20524
0.734904
-57.059
-44.1011
-31.8468
-20.2756
-9.3668
0.900122
10.5458
19.5909
28.0557
35.9608
43.3262
50.1718
56.5173
62.3824
67.786
72.747
77.284
81.4151
85.1581
88.5304
91.5491
94.2308
96.5915
98.6472
100.413
101.904
103.135
104.12
104.872
105.405
105.73
105.862
105.81
105.588
105.205
104.673
104.001
103.2
102.278
101.245
100.109
98.8789
97.5616
96.165
94.6962
93.1618
91.5682
89.9216
88.2278
86.492
84.7194
82.915
81.0831
79.2281
77.354
75.4645
73.563
71.6529
69.7371
67.8185
65.8995
63.9825
62.0697
60.163
58.2642
56.375
54.4967
52.6305
50.7777
48.9391
47.1156
45.3079
43.5164
41.7417
39.9841
38.2436
36.5206
34.8148
33.1263
31.4549
29.8002
28.162
26.5398
24.9331
23.3414
21.764
20.2003
18.6495
17.1109
15.5837
14.067
12.5599
11.0614
9.57071
8.08675
6.60853
5.13504
3.66524
2.19808
0.732517
-56.859
-43.9465
-31.7352
-20.2045
-9.33397
0.896966
10.5089
19.5222
27.9574
35.8348
43.1743
49.9959
56.3192
62.1637
67.5484
72.492
77.0131
81.1297
84.8596
88.2201
91.2282
93.9005
96.253
98.3014
100.061
101.547
102.774
103.755
104.504
105.035
105.36
105.491
105.44
105.218
104.837
104.306
103.637
102.838
101.92
100.89
99.7585
98.5323
97.2197
95.828
94.3642
92.8352
91.2473
89.6065
87.9185
86.1888
84.4225
82.6243
80.7989
78.9504
77.0828
75.1999
73.3052
71.4018
69.4927
67.5807
65.6685
63.7582
61.8521
59.9521
58.06
56.1774
54.3057
52.4461
50.5997
48.7676
46.9505
45.1491
43.3639
41.5954
39.8439
38.1096
36.3926
34.6928
33.0102
31.3446
29.6958
28.0633
26.4468
24.8457
23.2596
21.6877
20.1295
18.5842
17.051
15.5291
14.0177
12.5158
11.0227
9.53716
8.0584
6.58536
5.11704
3.65239
2.19038
0.729949
-56.645
-43.7811
-31.6157
-20.1284
-9.29883
0.893592
10.4693
19.4488
27.8522
35.6999
43.0118
49.8077
56.1073
61.9297
67.2941
72.2192
76.7232
80.8243
84.5402
87.8881
90.8849
93.547
95.8907
97.9314
99.6846
101.165
102.387
103.364
104.111
104.64
104.963
105.094
105.043
104.822
104.442
103.914
103.247
102.451
101.536
100.511
99.383
98.1614
96.8537
95.4673
94.009
92.4858
90.9038
89.2692
87.5876
85.8644
84.1047
82.3133
80.4947
78.6532
76.7927
74.9169
73.0292
71.133
69.2311
67.3264
65.4213
63.5182
61.6193
59.7265
57.8415
55.9659
54.1012
52.2486
50.4093
48.584
46.7738
44.9791
43.2007
41.4388
39.6939
37.9661
36.2556
34.5622
32.886
31.2267
29.584
27.9577
26.3472
24.7522
23.172
21.6061
20.0537
18.5142
16.9868
15.4706
13.9649
12.4687
10.9812
9.50126
8.02807
6.56058
5.09778
3.63864
2.18213
0.727202
-56.417
-43.6049
-31.4885
-20.0474
-9.2614
0.89
10.4272
19.3705
27.7401
35.5562
42.8387
49.6072
55.8814
61.6805
67.0233
71.9285
76.4144
80.499
84.1999
87.5343
90.519
93.1705
95.5047
97.5372
99.2833
100.758
101.975
102.948
103.692
104.219
104.541
104.671
104.62
104.4
104.022
103.495
102.831
102.039
101.127
100.106
98.9829
97.7663
96.4639
95.083
93.6306
92.1135
90.5379
88.9099
87.235
85.5188
83.7662
81.982
80.1707
78.3366
76.4836
74.6153
72.7353
70.8467
68.9524
67.0554
65.158
63.2625
61.3713
59.4861
57.6087
55.7407
53.8835
52.0383
50.2064
48.3885
46.5855
44.7981
43.0268
41.2721
39.5342
37.8133
36.1096
34.4231
32.7536
31.101
29.4649
27.8451
26.2412
24.6526
23.0788
21.5191
19.973
18.4397
16.9184
15.4084
13.9087
12.4185
10.937
9.46302
7.99575
6.53417
5.07726
3.62399
2.17335
0.724275
-56.1751
-43.4179
-31.3534
-19.9615
-9.22168
0.88619
10.3825
19.2874
27.6211
35.4037
42.655
49.3945
55.6418
61.416
66.7359
71.62
76.0867
80.1538
83.8388
87.159
90.1309
92.771
95.0952
97.119
98.8576
100.326
101.538
102.507
103.247
103.772
104.092
104.222
104.171
103.952
103.575
103.051
102.39
101.601
100.694
99.6768
98.5585
97.3471
96.0502
94.6753
93.2291
91.7185
90.1497
88.5286
86.8609
85.1521
83.407
81.6305
79.827
78.0007
76.1556
74.2954
72.4234
70.5429
68.6568
66.7678
64.8785
62.9913
61.1081
59.231
57.3616
55.5016
53.6524
51.8152
49.9911
48.181
46.3857
44.606
42.8423
41.0951
39.3646
37.6512
35.9548
34.2755
32.6132
30.9676
29.3386
27.7257
26.1287
24.5469
22.9798
21.4268
19.8874
18.3606
16.8459
15.3423
13.8491
12.3653
10.8901
9.42244
7.96147
6.50615
5.05548
3.60845
2.16403
0.721169
-55.9193
-43.2202
-31.2107
-19.8706
-9.17969
0.88216
10.3352
19.1996
27.4954
35.2425
42.4608
49.1696
55.3884
61.1363
66.432
71.2939
75.7403
79.7888
83.4571
86.7621
89.7205
92.3486
94.6622
96.6768
98.4075
99.8689
101.075
102.04
102.777
103.299
103.618
103.747
103.697
103.479
103.104
102.582
101.924
101.139
100.235
99.2229
98.1097
96.9038
95.6129
94.2442
92.8046
91.3009
89.7392
88.1255
86.4654
84.7643
83.0272
81.2588
79.4635
77.6456
75.8089
73.9571
72.0936
70.2217
68.3442
66.4638
64.5831
62.7044
60.8299
58.9613
57.1004
55.2489
53.4081
51.5793
49.7634
47.9616
46.1745
44.4029
42.6472
40.908
39.1854
37.4797
35.7911
34.1194
32.4647
30.8266
29.205
27.5995
26.0097
24.4351
22.8752
21.3293
19.7968
18.277
16.7692
15.2724
13.786
12.309
10.8405
9.37954
7.92522
6.47652
5.03247
3.59202
2.15418
0.717885
-55.6497
-43.0118
-31.0602
-19.7748
-9.13543
0.87791
10.2854
19.107
27.3628
35.0726
42.256
48.9325
55.1214
60.8416
66.1117
70.9502
75.3751
79.4042
83.0548
86.3438
89.288
91.9034
94.2058
96.2107
97.9331
99.3875
100.588
101.548
102.282
102.801
103.119
103.247
103.197
102.98
102.607
102.088
101.433
100.651
99.7521
98.7446
97.6368
96.4367
95.152
93.7898
92.3572
90.8607
89.3066
87.7007
86.0486
84.3557
82.6269
80.867
79.0804
77.2712
75.4434
73.6005
71.7461
69.8831
68.0147
66.1434
64.2718
62.4022
60.5366
58.677
56.8252
54.9826
53.1506
51.3306
49.5235
47.7304
45.9519
44.1888
42.4416
40.7107
38.9965
37.2991
35.6185
33.9549
32.3081
30.678
29.0642
27.4664
25.8843
24.3173
22.7649
21.2265
19.7014
18.1889
16.6883
15.1988
13.7195
12.2496
10.7882
9.33432
7.88701
6.4453
5.0082
3.57471
2.14379
0.714424
-55.3664
-42.7929
-30.9021
-19.6741
-9.08892
0.87344
10.233
19.0098
27.2235
34.8941
42.0409
48.6834
54.8408
60.5318
65.7752
70.589
74.9914
78.9999
82.6319
85.9043
88.8334
91.4355
93.7262
95.7209
97.4345
98.8815
100.076
101.031
101.761
102.278
102.594
102.721
102.672
102.456
102.084
101.568
100.916
100.139
99.2443
98.2419
97.1397
95.9457
94.6675
93.3124
91.8871
90.3982
88.8519
87.2542
85.6105
83.9262
82.2063
80.4553
78.6778
76.8778
75.0593
73.2258
71.3808
69.5274
67.6684
65.8067
63.9446
62.0845
60.2284
58.3783
56.5359
54.7027
52.8801
51.0693
49.2714
47.4874
45.718
43.9638
42.2255
40.5035
38.798
37.1092
35.4372
33.7821
32.1437
30.5218
28.9162
27.3266
25.7525
24.1935
22.649
21.1184
19.6011
18.0963
16.6034
15.1214
13.6497
12.1873
10.7333
9.2868
7.84686
6.41249
4.98271
3.55651
2.13288
0.710787
-55.0694
-42.5633
-30.7363
-19.5686
-9.04017
0.86875
10.1781
18.9078
27.0775
34.7069
41.8154
48.4223
54.5466
60.2072
65.4224
70.2104
74.5892
78.5762
82.1887
85.4435
88.3569
90.9451
93.2235
95.2075
96.9119
98.3511
99.5391
100.489
101.215
101.729
102.044
102.17
102.121
101.906
101.537
101.023
100.375
99.6015
98.712
97.7149
96.6187
95.4311
94.1598
92.8119
91.3942
89.9133
88.3753
86.7862
85.1513
83.4761
81.7653
80.0238
78.2558
76.4655
74.6567
72.8331
70.9979
69.1544
67.3055
65.4537
63.6016
61.7515
59.9054
58.0652
56.2326
54.4092
52.5964
50.7954
49.0071
47.2327
45.4727
43.728
41.9991
40.2862
38.5899
36.9101
35.2471
33.6009
31.9713
30.3581
28.7611
27.18
25.6144
24.0637
22.5275
21.0051
19.4959
17.9992
16.5143
15.0403
13.5765
12.1219
10.6757
9.23699
7.80477
6.37809
4.95598
3.53743
2.12144
0.706975
-54.7588
-42.3233
-30.563
-19.4582
-8.9892
0.863843
10.1207
18.8012
26.9248
34.5112
41.5796
48.1492
54.239
59.8676
65.0534
69.8145
74.1685
78.1331
81.7252
84.9617
87.8587
90.4322
92.6978
94.6706
96.3654
97.7965
98.9778
99.9227
100.644
101.156
101.468
101.594
101.545
101.332
100.964
100.453
99.8089
99.0398
98.1553
97.1639
96.0738
94.8929
93.6288
92.2885
90.8788
89.4062
87.877
86.2968
84.6711
83.0053
81.3042
79.5725
77.8145
76.0343
74.2357
72.4223
70.5976
68.7644
66.9259
65.0846
63.2429
61.4032
59.5675
57.7377
55.9155
54.1024
52.2998
50.5089
48.7308
46.9663
45.2163
43.4814
41.7622
40.059
38.3722
36.702
35.0484
33.4114
31.791
30.1869
28.5989
27.0268
25.4699
23.928
22.4005
20.8867
19.386
17.8977
16.4212
14.9555
13.4999
12.0536
10.6155
9.1849
7.76075
6.34212
4.92803
3.51748
2.10947
0.702988
-54.4348
-42.0728
-30.3821
-19.3431
-8.93601
0.858723
10.0608
18.6899
26.7654
34.3069
41.3335
47.8643
53.918
59.5133
64.6684
69.4013
73.7296
77.6707
81.2416
84.4589
87.3387
89.897
92.1492
94.1104
95.7951
97.2177
98.392
99.3314
100.049
100.557
100.868
100.993
100.944
100.732
100.367
99.859
99.2182
98.4537
97.5744
96.5888
95.5052
94.3313
93.0747
91.7423
90.341
88.8771
87.3569
85.786
84.17
82.5141
80.8231
79.1016
77.354
75.5843
73.7964
71.9937
70.1798
68.3575
66.5298
64.6994
62.8686
61.0398
59.215
57.396
55.5846
53.7822
51.9903
50.21
48.4424
46.6883
44.9487
43.2241
41.5151
39.822
38.1451
36.4848
34.8409
33.2136
31.6028
30.0082
28.4297
26.8668
25.3192
23.7864
22.2679
20.763
19.2713
17.7918
16.324
14.867
13.42
11.9822
10.5527
9.13054
7.71482
6.30459
4.89887
3.49667
2.09699
0.698827
-54.0973
-41.812
-30.1938
-19.2231
-8.88061
0.853393
9.99842
18.574
26.5995
34.0942
41.0773
47.5675
53.5837
59.1443
64.2675
68.971
73.2725
77.1891
80.7379
83.9352
86.7972
89.3397
91.5779
93.5269
95.2012
96.615
97.782
98.7155
99.4285
99.9334
100.242
100.367
100.318
100.107
99.7445
99.2399
98.603
97.8433
96.9694
95.99
94.9131
93.7465
92.4976
91.1735
89.7808
88.3261
86.8153
85.2542
83.6482
82.0025
80.322
78.6111
76.8744
75.1157
73.3388
71.5474
69.7446
67.9337
66.1173
64.2982
62.4788
60.6614
58.8479
57.0402
55.24
53.4488
51.6679
49.8987
48.142
46.3989
44.67
42.9561
41.2577
39.5751
37.9086
36.2586
34.6249
33.0077
31.4069
29.8222
28.2534
26.7002
25.1622
23.6389
22.1298
20.6343
19.1518
17.6815
16.2228
14.7748
13.3368
11.9079
10.4873
9.07393
7.66699
6.2655
4.86849
3.47499
2.08399
0.694494
-53.7464
-41.5408
-29.9979
-19.0985
-8.82302
0.847854
9.93357
18.4535
26.427
33.8731
40.8108
47.259
53.2362
58.7608
63.8507
68.5237
72.7973
76.6885
80.2143
83.3909
86.2343
88.7603
90.984
92.9203
94.5838
95.9884
97.1478
98.0753
98.7837
99.2853
99.5922
99.7159
99.6676
99.458
99.0976
98.5962
97.9635
97.2087
96.3405
95.3674
94.2975
93.1385
91.8977
90.5822
89.1986
87.7532
86.2522
84.7012
83.1057
81.4707
79.801
78.1013
76.3758
74.6285
72.8632
71.0834
69.2923
67.4931
65.6885
63.8812
62.0736
60.268
58.4662
56.6702
54.8817
53.1021
51.3328
49.5751
47.8298
46.098
44.3803
42.6775
40.9901
39.3184
37.6628
36.0234
34.4004
32.7936
31.2032
29.6288
28.0702
26.5271
24.999
23.4856
21.9863
20.5005
19.0276
17.5668
16.1176
14.679
13.2503
11.8307
10.4192
9.01508
7.61727
6.22487
4.83692
3.45245
2.07047
0.68999
-53.3823
-41.2594
-29.7947
-18.9691
-8.76325
0.842108
9.86627
18.3285
26.2479
33.6436
40.5344
46.9389
52.8756
58.3627
63.4181
68.0595
72.3041
76.169
79.6709
82.8259
85.6501
88.1589
90.3676
92.2908
93.943
95.3381
96.4897
97.4109
98.1145
98.6127
98.9175
99.0404
98.9924
98.7843
98.4263
97.9283
97.2999
96.5502
95.6879
94.7214
93.6587
92.5075
91.2751
89.9685
88.5943
87.1588
85.6679
84.1274
82.5427
80.9187
79.2604
77.5722
75.8584
74.1229
72.3696
70.6018
68.8229
67.0358
65.2435
63.4485
61.6531
59.8597
58.0701
56.2863
54.5099
52.7424
50.9851
49.2392
47.5058
45.7857
44.0797
42.3884
40.7124
39.052
37.4076
35.7794
34.1673
32.5715
30.9918
29.428
27.88
26.3474
24.8297
23.3265
21.8373
20.3616
18.8987
17.4478
16.0084
14.5796
13.1606
11.7505
10.3487
8.95401
7.56566
6.1827
4.80415
3.42906
2.05644
0.685316
-53.0051
-40.9678
-29.5842
-18.835
-8.70132
0.836157
9.79654
18.199
26.0624
33.4058
40.2479
46.6071
52.5019
57.9502
62.9699
67.5785
71.7931
75.6307
79.1078
82.2405
85.0448
87.5359
89.7289
91.6385
93.279
94.6643
95.8077
96.7225
97.421
97.9158
98.2184
98.3404
98.2928
98.0861
97.7306
97.2362
96.6122
95.8678
95.0116
94.0519
92.9968
91.8537
90.63
89.3327
87.9681
86.5428
85.0624
83.5328
81.9593
80.3468
78.7002
77.024
75.3222
73.5991
71.8581
70.1028
68.3365
66.5621
64.7824
63
61.2174
59.4366
57.6597
55.8885
54.1246
52.3696
50.6247
48.8912
47.17
45.4621
43.7681
42.0888
40.4246
38.776
37.1432
35.5265
33.9258
32.3413
30.7728
29.2201
27.683
26.1611
24.6542
23.1616
21.683
20.2177
18.7651
17.3245
15.8952
14.4765
13.0675
11.6675
10.2755
8.89072
7.51219
6.139
4.7702
3.40483
2.04191
0.680472
-52.6147
-40.6661
-29.3663
-18.6963
-8.63724
0.83
9.7244
18.065
25.8705
33.1598
39.9515
46.2639
52.1152
57.5234
62.5062
67.0808
71.2644
75.0737
78.5252
81.6349
84.4185
86.8912
89.0681
90.9637
92.5921
93.9671
95.1022
96.0101
96.7036
97.1947
97.4951
97.6162
97.5689
97.3637
97.0109
96.5201
95.9007
95.1618
94.3119
93.3593
92.3119
91.1773
89.9626
88.6748
87.3203
85.9054
84.436
82.9177
81.3557
79.7551
78.1206
76.4567
74.7675
73.057
71.3289
69.5865
67.8332
66.0719
64.3053
62.5361
60.7665
58.9989
57.2351
55.4769
53.726
51.9839
50.2519
48.5311
46.8226
45.1273
43.4458
41.7788
40.1269
38.4905
36.8697
35.2648
33.676
32.1031
30.5461
29.0049
27.4791
25.9685
24.4726
22.9911
21.5233
20.0688
18.6269
17.1969
15.7782
14.3699
12.9713
11.5816
10.1998
8.82525
7.45687
6.09379
4.73507
3.37975
2.02687
0.675461
-52.2114
-40.3544
-29.1412
-18.553
-8.57102
0.823638
9.64985
17.9265
25.6722
32.9056
39.6452
45.9092
51.7157
57.0825
62.027
66.5666
70.7181
74.4982
77.9232
81.0091
83.7713
86.2251
88.3853
90.2664
91.8823
93.2468
94.3731
95.2741
95.9623
96.4496
96.7477
96.8679
96.8209
96.6174
96.2672
95.7802
95.1655
94.4323
93.5889
92.6436
91.6042
90.4783
89.2729
87.995
86.6509
85.2469
83.7887
82.282
80.732
79.1437
77.5218
75.8706
74.1944
72.497
70.7821
69.0531
67.3132
65.5654
63.8123
62.0567
60.3007
58.5466
56.7963
55.0516
53.3142
51.5854
49.8667
48.1591
46.4637
44.7813
43.1127
41.4586
39.8193
38.1954
36.5871
34.9945
33.4178
31.857
30.312
28.7825
27.2684
25.7694
24.285
22.8148
21.3583
19.915
18.4841
17.0651
15.6572
14.2597
12.8719
11.4928
10.1217
8.75759
7.3997
6.04707
4.69877
3.35384
2.01133
0.670283
-51.7951
-40.0327
-28.9088
-18.4051
-8.50269
0.817074
9.57293
17.7836
25.4675
32.6433
39.3292
45.5432
51.3034
56.6274
61.5325
66.0359
70.1543
73.9043
77.302
80.3633
83.1035
85.5377
87.6807
89.5468
91.1498
92.5034
93.6208
94.5146
95.1973
95.6807
95.9764
96.0956
96.0491
95.8471
95.4998
95.0166
94.4069
93.6795
92.8428
91.905
90.874
89.757
88.5613
87.2935
85.9601
84.5673
83.1208
81.6261
80.0884
78.5128
76.9038
75.2658
73.6029
71.919
70.2178
68.5026
66.7766
65.0427
63.3036
61.562
59.82
58.0799
56.3435
54.6128
52.8892
51.1742
49.4692
47.7752
46.0933
44.4243
42.769
41.1281
39.5019
37.8909
36.2954
34.7155
33.1514
31.603
30.0703
28.5531
27.0511
25.564
24.0914
22.6329
21.1881
19.7562
18.3367
16.929
15.5324
14.1461
12.7693
11.4012
10.041
8.68778
7.34071
5.99887
4.66131
3.3271
1.9953
0.664939
-51.3661
-39.7011
-28.6694
-18.2526
-8.43227
0.810307
9.49364
17.6363
25.2566
32.3729
39.0034
45.166
50.8785
56.1584
61.0229
65.4889
69.5733
73.2922
76.6618
79.6977
82.4152
84.8293
86.9545
88.8051
90.3949
91.7373
92.8454
93.7318
94.4088
94.8882
95.1815
95.2997
95.2535
95.0533
94.7088
94.2296
93.6249
92.9035
92.0738
91.1438
90.1213
89.0136
87.8277
86.5705
85.2481
83.8668
82.4323
80.95
79.4251
77.8625
76.2668
74.6424
72.9933
71.3233
69.6362
67.9352
66.2235
64.5039
62.7793
61.0521
59.3245
57.5988
55.8768
54.1604
52.4511
50.7503
49.0594
47.3795
45.7115
44.0564
42.4148
40.7874
39.1747
37.5771
35.9948
34.428
32.8768
31.3413
29.8213
28.3166
26.827
25.3522
23.8919
22.4455
21.0126
19.5926
18.1849
16.7888
15.4037
14.0289
12.6635
11.3067
9.9578
8.61582
7.27991
5.94918
4.6227
3.29955
1.97877
0.659432
-50.9245
-39.3597
-28.4229
-18.0957
-8.35976
0.80334
9.41201
17.4846
25.0394
32.0946
38.6681
44.7777
50.441
55.6755
60.4982
64.9258
68.975
72.662
76.0026
79.0124
81.7065
84.0999
86.2068
88.0415
89.6176
90.9485
92.047
92.9258
93.597
94.0723
94.3631
94.4803
94.4345
94.2359
93.8944
93.4194
92.8199
92.1047
91.2821
90.3601
89.3464
88.2482
87.0725
85.8261
84.5151
83.1457
81.7235
80.2539
78.7421
77.193
75.611
74.0005
72.3656
70.7101
69.0374
67.3511
65.6541
63.9493
62.2395
60.5271
58.8144
57.1035
55.3964
53.6947
52.0001
50.314
48.6376
46.9721
45.3184
43.6775
42.0501
40.4367
38.8379
37.254
35.6853
34.132
32.5941
31.0718
29.5648
28.0731
26.5963
25.1342
23.6864
22.2525
20.8319
19.4241
18.0285
16.6445
15.2713
13.9083
12.5546
11.2095
9.87218
8.54174
7.21732
5.89803
4.58295
3.27118
1.96176
0.653762
-50.4702
-39.0086
-28.1694
-17.9343
-8.28519
0.796175
9.32806
17.3287
24.8161
31.8083
38.3231
44.3783
49.9911
55.1789
59.9585
64.3467
68.3598
72.0138
75.3246
78.3076
80.9777
83.3497
85.4378
87.2562
88.8182
90.1372
91.226
92.0969
92.7621
93.2332
93.5213
93.6375
93.5921
93.3954
93.0569
92.5861
91.992
91.2831
90.4679
89.5541
88.5494
87.461
86.2959
85.0605
83.7613
82.404
80.9945
79.5381
78.0398
76.5044
74.9366
73.3405
71.7201
70.0793
68.4216
66.7503
65.0684
63.3789
61.6843
59.9872
58.2898
56.5942
54.9023
53.2158
51.5363
49.8652
48.2037
46.5531
44.9142
43.2879
41.675
40.076
38.4914
36.9217
35.367
33.8275
32.3034
30.7946
29.3011
27.8227
26.3591
24.91
23.4752
22.054
20.6461
19.2508
17.8677
16.496
15.1351
13.7842
12.4426
11.1095
9.78412
8.46554
7.15294
5.84542
4.54207
3.242
1.94426
0.64793
-50.0035
-38.6479
-27.9089
-17.7685
-8.20858
0.788812
9.2418
17.1684
24.5866
31.5142
37.9688
43.9679
49.5288
54.6686
59.4041
63.7517
67.7277
71.3479
74.6281
77.5835
80.2289
82.579
84.6478
86.4493
87.9969
89.3037
90.3824
91.2453
91.9043
92.371
92.6566
92.7716
92.7267
92.5317
92.1964
91.73
91.1413
90.439
89.6313
88.726
87.7306
86.6523
85.4979
84.274
82.9867
81.6421
80.2456
78.8026
77.3181
75.797
74.2436
72.6623
71.0569
69.4313
67.7889
66.1331
64.4667
62.7928
61.1139
59.4325
57.7508
56.0709
54.3946
52.7237
51.0597
49.4041
47.758
46.1226
44.4989
42.8877
41.2896
39.7054
38.1355
36.5802
35.0399
33.5147
32.0047
30.5099
29.0302
27.5654
26.1154
24.6797
23.2581
21.8501
20.4552
19.0728
17.7025
16.3435
14.9951
13.6567
12.3276
11.0068
9.69364
8.38726
7.0868
5.79136
4.50007
3.21202
1.92628
0.641939
-49.5245
-38.2777
-27.6415
-17.5982
-8.12994
0.781255
9.15326
17.004
24.351
31.2123
37.605
43.5467
49.0543
54.1449
58.835
63.141
67.0788
70.6644
73.9132
76.8402
79.4603
81.7879
83.8369
85.6211
87.1539
88.4482
89.5165
90.3712
91.0239
91.4861
91.7689
91.8829
91.8384
91.6453
91.3132
90.8512
90.2682
89.5726
88.7726
87.876
86.8901
85.8221
84.6788
83.4666
82.1917
80.8599
79.4768
78.0477
76.5774
75.0709
73.5324
71.9662
70.3762
68.7662
67.1395
65.4995
63.8491
62.1913
60.5285
58.8631
57.1975
55.5337
53.8735
52.2186
50.5705
48.9308
47.3005
45.6808
44.0726
42.4768
40.8941
39.325
37.7702
36.2298
34.7042
33.1936
31.6981
30.2176
28.7521
27.3013
25.8652
24.4433
23.0353
21.6407
20.2592
18.8901
17.5329
16.1869
14.8515
13.5259
12.2095
10.9014
9.60078
8.30691
7.0189
5.73588
4.45696
3.18125
1.90783
0.635789
-49.0333
-37.898
-27.3673
-17.4237
-8.0493
0.773505
9.06247
16.8353
24.1095
30.9027
37.232
43.1147
48.5678
53.6078
58.2514
62.5146
66.4134
69.9635
73.18
76.078
78.6721
80.9766
83.0053
84.7718
86.2894
87.5708
88.6286
89.4748
90.121
90.5787
90.8586
90.9715
90.9274
90.7362
90.4074
89.95
89.3728
88.6841
87.8921
87.0043
86.0282
84.9708
83.8389
82.6387
81.3764
80.0578
78.6885
77.2735
75.8178
74.3262
72.803
71.2523
69.6781
68.084
66.4735
64.8498
63.2158
61.5744