/*--------------------------------*- C++ -*----------------------------------*\
| =========                 |                                                 |
| \\      /  F ield         | OpenFOAM: The Open Source CFD Toolbox           |
|  \\    /   O peration     | Version:  2406                                  |
|   \\  /    A nd           | Website:  www.openfoam.com                      |
|    \\/     M anipulation  |                                                 |
\*---------------------------------------------------------------------------*/
FoamFile
{
    version     2.0;
    format      ascii;
    arch        "LSB;label=32;scalar=64";
    class       volScalarField;
    location    "40";
    object      T;
}
// * * * * * * * * * * * * * * * * * * * * * * * * * * * * * * * * * * * * * //

dimensions      [0 0 0 1 0 0 0];

internalField   nonuniform List<scalar> 
20000
(
300.666
300.63
300.596
300.563
300.532
300.502
300.474
300.447
300.421
300.396
300.373
300.351
300.33
300.31
300.291
300.273
300.256
300.24
300.224
300.21
300.196
300.184
300.172
300.16
300.149
300.139
300.13
300.121
300.113
300.105
300.097
300.091
300.084
300.078
300.072
300.067
300.062
300.058
300.053
300.049
300.046
300.042
300.039
300.036
300.033
300.03
300.028
300.026
300.024
300.022
300.02
300.018
300.017
300.015
300.014
300.013
300.012
300.011
300.01
300.009
300.008
300.008
300.007
300.006
300.006
300.005
300.005
300.004
300.004
300.004
300.003
300.003
300.003
300.002
300.002
300.002
300.002
300.002
300.001
300.001
300.001
300.001
300.001
300.001
300.001
300.001
300.001
300.001
300
300
300
300
300
300
300
300
300
300
300
300
301.997
301.89
301.787
301.689
301.595
301.506
301.421
301.339
301.262
301.188
301.118
301.052
300.989
300.929
300.872
300.818
300.767
300.719
300.673
300.63
300.589
300.551
300.515
300.481
300.448
300.418
300.39
300.363
300.338
300.314
300.292
300.272
300.252
300.234
300.217
300.201
300.187
300.173
300.16
300.148
300.137
300.126
300.116
300.107
300.099
300.091
300.084
300.077
300.071
300.065
300.06
300.055
300.051
300.046
300.043
300.039
300.036
300.033
300.03
300.027
300.025
300.023
300.021
300.019
300.017
300.016
300.014
300.013
300.012
300.011
300.01
300.009
300.008
300.007
300.007
300.006
300.005
300.005
300.004
300.004
300.004
300.003
300.003
300.003
300.002
300.002
300.002
300.002
300.001
300.001
300.001
300.001
300.001
300.001
300.001
300
300
300
300
300
303.328
303.149
302.978
302.815
302.658
302.509
302.367
302.232
302.103
301.98
301.864
301.753
301.647
301.548
301.453
301.363
301.278
301.198
301.122
301.05
300.982
300.918
300.858
300.801
300.747
300.697
300.649
300.605
300.563
300.524
300.487
300.453
300.42
300.39
300.362
300.335
300.311
300.288
300.266
300.246
300.228
300.21
300.194
300.179
300.165
300.152
300.14
300.129
300.119
300.109
300.1
300.092
300.084
300.077
300.071
300.065
300.06
300.054
300.05
300.046
300.042
300.038
300.035
300.032
300.029
300.026
300.024
300.022
300.02
300.018
300.016
300.015
300.013
300.012
300.011
300.01
300.009
300.008
300.007
300.007
300.006
300.005
300.005
300.004
300.004
300.003
300.003
300.003
300.002
300.002
300.002
300.002
300.001
300.001
300.001
300.001
300.001
300
300
300
304.658
304.407
304.168
303.939
303.721
303.512
303.314
303.124
302.943
302.772
302.608
302.453
302.306
302.166
302.033
301.908
301.789
301.676
301.57
301.469
301.374
301.285
301.2
301.121
301.046
300.975
300.909
300.847
300.788
300.733
300.682
300.634
300.588
300.546
300.507
300.47
300.435
300.403
300.373
300.345
300.319
300.294
300.272
300.251
300.231
300.213
300.196
300.181
300.166
300.153
300.14
300.129
300.118
300.108
300.099
300.091
300.083
300.076
300.07
300.064
300.058
300.053
300.048
300.044
300.04
300.037
300.033
300.03
300.028
300.025
300.023
300.021
300.019
300.017
300.015
300.014
300.013
300.011
300.01
300.009
300.008
300.008
300.007
300.006
300.005
300.005
300.004
300.004
300.003
300.003
300.003
300.002
300.002
300.002
300.001
300.001
300.001
300.001
300
300
305.986
305.665
305.357
305.063
304.782
304.514
304.259
304.015
303.783
303.562
303.353
303.153
302.964
302.784
302.614
302.452
302.299
302.155
302.018
301.889
301.766
301.651
301.543
301.441
301.344
301.254
301.168
301.088
301.013
300.943
300.876
300.814
300.756
300.702
300.651
300.603
300.559
300.518
300.479
300.443
300.409
300.378
300.349
300.322
300.297
300.274
300.252
300.232
300.213
300.196
300.18
300.166
300.152
300.139
300.128
300.117
300.107
300.098
300.09
300.082
300.075
300.068
300.062
300.057
300.052
300.047
300.043
300.039
300.035
300.032
300.029
300.027
300.024
300.022
300.02
300.018
300.016
300.015
300.013
300.012
300.011
300.01
300.009
300.008
300.007
300.006
300.006
300.005
300.004
300.004
300.003
300.003
300.002
300.002
300.002
300.001
300.001
300.001
300
300
307.314
306.921
306.545
306.186
305.843
305.515
305.203
304.905
304.622
304.352
304.096
303.852
303.621
303.401
303.193
302.996
302.809
302.632
302.465
302.307
302.158
302.018
301.885
301.76
301.642
301.532
301.427
301.33
301.238
301.151
301.071
300.995
300.924
300.857
300.795
300.737
300.683
300.632
300.585
300.541
300.5
300.462
300.427
300.394
300.363
300.334
300.308
300.283
300.261
300.24
300.22
300.202
300.186
300.17
300.156
300.143
300.131
300.12
300.109
300.1
300.091
300.083
300.076
300.069
300.063
300.058
300.052
300.048
300.043
300.039
300.036
300.032
300.029
300.027
300.024
300.022
300.02
300.018
300.016
300.015
300.013
300.012
300.011
300.009
300.009
300.008
300.007
300.006
300.005
300.005
300.004
300.004
300.003
300.003
300.002
300.002
300.001
300.001
300.001
300
308.639
308.175
307.731
307.307
306.902
306.515
306.146
305.795
305.46
305.141
304.838
304.55
304.277
304.018
303.772
303.539
303.318
303.109
302.912
302.725
302.549
302.383
302.226
302.079
301.94
301.809
301.686
301.571
301.462
301.36
301.265
301.175
301.091
301.013
300.939
300.871
300.807
300.747
300.691
300.639
300.591
300.546
300.504
300.465
300.429
300.395
300.364
300.335
300.308
300.283
300.26
300.239
300.219
300.201
300.184
300.169
300.155
300.141
300.129
300.118
300.108
300.099
300.09
300.082
300.075
300.068
300.062
300.056
300.051
300.047
300.042
300.038
300.035
300.032
300.029
300.026
300.023
300.021
300.019
300.017
300.015
300.014
300.013
300.011
300.01
300.009
300.008
300.007
300.006
300.006
300.005
300.004
300.004
300.003
300.003
300.002
300.002
300.001
300.001
300
309.963
309.427
308.916
308.426
307.959
307.513
307.088
306.682
306.296
305.929
305.579
305.247
304.932
304.633
304.349
304.081
303.826
303.586
303.358
303.143
302.94
302.748
302.568
302.397
302.237
302.086
301.944
301.811
301.686
301.569
301.458
301.355
301.258
301.168
301.083
301.004
300.93
300.862
300.797
300.737
300.681
300.629
300.581
300.536
300.494
300.455
300.419
300.386
300.355
300.327
300.3
300.275
300.253
300.232
300.213
300.195
300.178
300.163
300.149
300.136
300.125
300.114
300.104
300.095
300.086
300.078
300.071
300.065
300.059
300.054
300.049
300.044
300.04
300.036
300.033
300.03
300.027
300.024
300.022
300.02
300.018
300.016
300.014
300.013
300.012
300.01
300.009
300.008
300.007
300.006
300.006
300.005
300.004
300.004
300.003
300.002
300.002
300.001
300.001
300
311.283
310.677
310.098
309.544
309.014
308.509
308.027
307.568
307.131
306.715
306.319
305.943
305.586
305.247
304.926
304.622
304.334
304.061
303.803
303.56
303.33
303.113
302.908
302.715
302.534
302.363
302.202
302.051
301.909
301.776
301.652
301.535
301.425
301.323
301.227
301.137
301.054
300.976
300.903
300.835
300.772
300.713
300.658
300.607
300.56
300.516
300.475
300.437
300.402
300.37
300.34
300.312
300.286
300.263
300.241
300.221
300.202
300.185
300.169
300.154
300.141
300.129
300.117
300.107
300.098
300.089
300.081
300.074
300.067
300.061
300.055
300.05
300.045
300.041
300.037
300.034
300.03
300.028
300.025
300.022
300.02
300.018
300.016
300.015
300.013
300.012
300.01
300.009
300.008
300.007
300.006
300.005
300.005
300.004
300.003
300.003
300.002
300.001
300.001
300
312.602
311.925
311.277
310.658
310.067
309.503
308.965
308.452
307.964
307.499
307.057
306.637
306.239
305.86
305.502
305.162
304.84
304.535
304.247
303.975
303.719
303.476
303.248
303.032
302.83
302.639
302.459
302.291
302.133
301.984
301.845
301.714
301.592
301.477
301.37
301.27
301.177
301.09
301.008
300.933
300.862
300.796
300.735
300.678
300.625
300.576
300.531
300.488
300.449
300.413
300.379
300.348
300.32
300.293
300.269
300.246
300.225
300.206
300.189
300.172
300.158
300.144
300.131
300.12
300.109
300.099
300.09
300.082
300.075
300.068
300.062
300.056
300.051
300.046
300.042
300.038
300.034
300.031
300.028
300.025
300.023
300.02
300.018
300.016
300.015
300.013
300.012
300.01
300.009
300.008
300.007
300.006
300.005
300.004
300.004
300.003
300.002
300.002
300.001
300
313.917
313.169
312.454
311.771
311.118
310.495
309.9
309.334
308.795
308.282
307.794
307.33
306.89
306.472
306.076
305.7
305.345
305.009
304.691
304.39
304.107
303.839
303.587
303.349
303.125
302.914
302.716
302.53
302.355
302.191
302.037
301.893
301.758
301.632
301.513
301.403
301.3
301.203
301.114
301.03
300.952
300.879
300.812
300.749
300.69
300.636
300.586
300.539
300.496
300.456
300.419
300.385
300.353
300.324
300.297
300.272
300.249
300.228
300.208
300.19
300.174
300.159
300.145
300.132
300.12
300.11
300.1
300.091
300.083
300.075
300.068
300.062
300.056
300.051
300.046
300.042
300.038
300.034
300.031
300.028
300.025
300.022
300.02
300.018
300.016
300.014
300.013
300.011
300.01
300.009
300.008
300.007
300.006
300.005
300.004
300.003
300.003
300.002
300.001
300
315.228
314.41
313.628
312.88
312.166
311.484
310.834
310.214
309.624
309.062
308.528
308.021
307.539
307.082
306.648
306.238
305.849
305.481
305.133
304.804
304.494
304.201
303.925
303.664
303.419
303.189
302.972
302.768
302.577
302.398
302.229
302.071
301.924
301.785
301.656
301.535
301.422
301.317
301.219
301.127
301.042
300.962
300.888
300.819
300.756
300.696
300.641
300.59
300.543
300.499
300.459
300.421
300.386
300.354
300.325
300.298
300.272
300.249
300.228
300.208
300.19
300.174
300.159
300.145
300.132
300.12
300.109
300.099
300.09
300.082
300.074
300.068
300.061
300.056
300.05
300.046
300.041
300.037
300.034
300.03
300.027
300.025
300.022
300.02
300.018
300.016
300.014
300.013
300.011
300.01
300.009
300.007
300.006
300.005
300.004
300.004
300.003
300.002
300.001
300
316.536
315.648
314.798
313.986
313.21
312.47
311.764
311.091
310.45
309.84
309.261
308.71
308.186
307.69
307.219
306.773
306.351
305.951
305.574
305.217
304.88
304.562
304.262
303.979
303.713
303.463
303.227
303.006
302.798
302.603
302.421
302.249
302.089
301.939
301.798
301.667
301.544
301.43
301.323
301.224
301.131
301.045
300.964
300.89
300.82
300.756
300.696
300.641
300.589
300.542
300.498
300.457
300.42
300.385
300.353
300.323
300.296
300.271
300.248
300.226
300.207
300.189
300.172
300.157
300.143
300.13
300.119
300.108
300.098
300.089
300.081
300.073
300.067
300.06
300.055
300.049
300.045
300.04
300.036
300.033
300.03
300.027
300.024
300.021
300.019
300.017
300.015
300.014
300.012
300.011
300.009
300.008
300.007
300.006
300.005
300.004
300.003
300.002
300.001
300
317.84
316.882
315.965
315.089
314.252
313.453
312.691
311.966
311.274
310.616
309.991
309.396
308.832
308.296
307.788
307.307
306.852
306.421
306.013
305.628
305.264
304.921
304.598
304.293
304.006
303.736
303.482
303.243
303.019
302.809
302.611
302.427
302.254
302.092
301.94
301.798
301.666
301.543
301.428
301.32
301.22
301.127
301.04
300.96
300.885
300.816
300.751
300.691
300.636
300.585
300.537
300.493
300.453
300.415
300.381
300.349
300.319
300.292
300.267
300.244
300.223
300.204
300.186
300.169
300.154
300.141
300.128
300.116
300.106
300.096
300.087
300.079
300.072
300.065
300.059
300.053
300.048
300.044
300.039
300.035
300.032
300.029
300.026
300.023
300.021
300.019
300.017
300.015
300.013
300.011
300.01
300.009
300.007
300.006
300.005
300.004
300.003
300.002
300.001
300
319.139
318.111
317.128
316.188
315.29
314.433
313.616
312.837
312.095
311.39
310.718
310.081
309.475
308.9
308.356
307.839
307.351
306.888
306.451
306.038
305.648
305.28
304.933
304.606
304.298
304.008
303.735
303.479
303.239
303.013
302.802
302.603
302.418
302.244
302.081
301.929
301.788
301.655
301.531
301.416
301.309
301.209
301.116
301.03
300.95
300.875
300.806
300.742
300.682
300.627
300.576
300.529
300.486
300.445
300.408
300.374
300.342
300.313
300.287
300.262
300.239
300.218
300.199
300.182
300.166
300.151
300.137
300.125
300.113
300.103
300.094
300.085
300.077
300.07
300.063
300.057
300.052
300.047
300.042
300.038
300.034
300.031
300.028
300.025
300.022
300.02
300.018
300.016
300.014
300.012
300.011
300.009
300.008
300.007
300.006
300.004
300.003
300.002
300.001
300
320.434
319.336
318.286
317.283
316.324
315.409
314.537
313.705
312.913
312.16
311.443
310.763
310.116
309.503
308.921
308.37
307.848
307.354
306.887
306.446
306.03
305.637
305.266
304.917
304.588
304.279
303.988
303.715
303.458
303.217
302.991
302.779
302.581
302.396
302.222
302.06
301.908
301.767
301.635
301.512
301.398
301.291
301.192
301.099
301.014
300.934
300.86
300.792
300.728
300.67
300.615
300.565
300.519
300.476
300.436
300.399
300.366
300.335
300.306
300.28
300.255
300.233
300.213
300.194
300.177
300.161
300.146
300.133
300.121
300.11
300.1
300.091
300.082
300.075
300.067
300.061
300.055
300.05
300.045
300.041
300.037
300.033
300.03
300.027
300.024
300.021
300.019
300.017
300.015
300.013
300.011
300.01
300.009
300.007
300.006
300.005
300.004
300.003
300.002
300.001
321.723
320.557
319.44
318.374
317.354
316.382
315.454
314.57
313.728
312.927
312.166
311.442
310.754
310.102
309.484
308.898
308.343
307.818
307.322
306.853
306.41
305.992
305.599
305.227
304.878
304.549
304.24
303.949
303.676
303.42
303.18
302.955
302.744
302.547
302.362
302.19
302.029
301.879
301.738
301.608
301.486
301.372
301.267
301.169
301.078
300.993
300.915
300.842
300.774
300.712
300.654
300.601
300.551
300.506
300.463
300.425
300.389
300.356
300.325
300.297
300.272
300.248
300.226
300.206
300.188
300.171
300.156
300.142
300.129
300.117
300.106
300.096
300.087
300.079
300.072
300.065
300.059
300.053
300.048
300.043
300.039
300.035
300.031
300.028
300.025
300.023
300.02
300.018
300.016
300.014
300.012
300.011
300.009
300.008
300.006
300.005
300.004
300.003
300.002
300.001
323.008
321.772
320.59
319.46
318.38
317.35
316.368
315.432
314.54
313.692
312.885
312.118
311.39
310.699
310.045
309.424
308.836
308.28
307.755
307.258
306.789
306.347
305.929
305.536
305.166
304.818
304.49
304.183
303.894
303.622
303.368
303.13
302.906
302.697
302.502
302.319
302.149
301.99
301.841
301.703
301.574
301.454
301.342
301.238
301.141
301.052
300.969
300.892
300.82
300.754
300.693
300.636
300.584
300.535
300.491
300.45
300.412
300.377
300.344
300.315
300.288
300.263
300.239
300.218
300.199
300.181
300.165
300.15
300.136
300.124
300.113
300.102
300.093
300.084
300.076
300.069
300.062
300.056
300.051
300.046
300.041
300.037
300.033
300.03
300.027
300.024
300.021
300.019
300.017
300.015
300.013
300.011
300.01
300.008
300.007
300.005
300.004
300.003
300.002
300.001
324.286
322.982
321.734
320.541
319.402
318.315
317.277
316.289
315.348
314.452
313.601
312.792
312.023
311.294
310.603
309.948
309.327
308.741
308.186
307.661
307.166
306.699
306.259
305.844
305.453
305.086
304.74
304.415
304.11
303.824
303.555
303.303
303.068
302.847
302.641
302.448
302.268
302.1
301.943
301.797
301.661
301.534
301.416
301.307
301.205
301.11
301.023
300.941
300.866
300.796
300.731
300.672
300.616
300.565
300.518
300.475
300.435
300.398
300.364
300.332
300.304
300.277
300.253
300.231
300.21
300.191
300.174
300.158
300.144
300.131
300.119
300.108
300.098
300.089
300.08
300.073
300.066
300.059
300.054
300.048
300.043
300.039
300.035
300.032
300.028
300.025
300.022
300.02
300.018
300.016
300.014
300.012
300.01
300.009
300.007
300.006
300.004
300.003
300.002
300.001
325.559
324.186
322.873
321.617
320.418
319.274
318.183
317.143
316.152
315.21
314.313
313.462
312.653
311.886
311.158
310.469
309.816
309.199
308.615
308.063
307.542
307.05
306.587
306.15
305.739
305.352
304.988
304.646
304.325
304.024
303.741
303.477
303.229
302.997
302.779
302.577
302.387
302.21
302.045
301.891
301.748
301.615
301.491
301.375
301.268
301.169
301.076
300.991
300.911
300.838
300.77
300.707
300.649
300.595
300.545
300.499
300.457
300.418
300.383
300.35
300.319
300.292
300.266
300.243
300.221
300.201
300.183
300.167
300.152
300.138
300.125
300.113
300.103
300.093
300.084
300.076
300.069
300.062
300.056
300.051
300.046
300.041
300.037
300.033
300.03
300.027
300.024
300.021
300.019
300.016
300.014
300.012
300.011
300.009
300.007
300.006
300.005
300.003
300.002
300.001
326.825
325.384
324.006
322.688
321.43
320.229
319.084
317.992
316.952
315.963
315.023
314.129
313.28
312.475
311.711
310.988
310.303
309.654
309.041
308.462
307.916
307.4
306.913
306.455
306.023
305.617
305.235
304.877
304.54
304.223
303.927
303.649
303.389
303.145
302.917
302.704
302.505
302.32
302.146
301.985
301.835
301.695
301.564
301.443
301.331
301.226
301.129
301.04
300.956
300.879
300.808
300.742
300.681
300.624
300.572
300.524
300.48
300.439
300.402
300.367
300.335
300.306
300.279
300.255
300.232
300.211
300.192
300.175
300.159
300.144
300.131
300.119
300.108
300.098
300.089
300.08
300.072
300.065
300.059
300.053
300.048
300.043
300.039
300.035
300.031
300.028
300.025
300.022
300.02
300.017
300.015
300.013
300.011
300.009
300.008
300.006
300.005
300.003
300.002
300.001
328.085
326.576
325.133
323.754
322.436
321.179
319.98
318.837
317.749
316.713
315.728
314.792
313.904
313.06
312.261
311.504
310.786
310.108
309.466
308.86
308.287
307.747
307.238
306.758
306.306
305.881
305.481
305.106
304.753
304.422
304.111
303.82
303.548
303.293
303.054
302.831
302.623
302.429
302.247
302.078
301.921
301.774
301.638
301.511
301.393
301.284
301.183
301.088
301.001
300.92
300.846
300.777
300.713
300.654
300.599
300.549
300.503
300.46
300.42
300.384
300.351
300.32
300.292
300.267
300.243
300.221
300.201
300.183
300.167
300.151
300.137
300.125
300.113
300.102
300.093
300.084
300.076
300.069
300.062
300.056
300.05
300.045
300.041
300.036
300.033
300.029
300.026
300.023
300.02
300.018
300.016
300.014
300.012
300.01
300.008
300.007
300.005
300.004
300.002
300.001
329.337
327.762
326.254
324.813
323.437
322.124
320.871
319.677
318.54
317.458
316.43
315.452
314.524
313.643
312.808
312.017
311.267
310.559
309.888
309.255
308.657
308.093
307.561
307.059
306.587
306.143
305.726
305.333
304.965
304.619
304.295
303.991
303.706
303.44
303.19
302.957
302.74
302.537
302.348
302.171
302.007
301.853
301.711
301.579
301.456
301.341
301.235
301.137
301.046
300.961
300.883
300.811
300.744
300.683
300.626
300.573
300.525
300.48
300.439
300.401
300.367
300.335
300.305
300.278
300.254
300.231
300.21
300.191
300.174
300.158
300.143
300.13
300.118
300.107
300.097
300.088
300.079
300.072
300.065
300.058
300.053
300.047
300.042
300.038
300.034
300.03
300.027
300.024
300.021
300.019
300.016
300.014
300.012
300.01
300.009
300.007
300.005
300.004
300.002
300.001
330.583
328.94
327.369
325.867
324.432
323.063
321.757
320.512
319.327
318.199
317.127
316.108
315.14
314.222
313.352
312.527
311.746
311.007
310.308
309.648
309.024
308.436
307.882
307.359
306.867
306.404
305.969
305.56
305.175
304.815
304.477
304.16
303.863
303.586
303.326
303.083
302.856
302.645
302.447
302.263
302.092
301.932
301.784
301.646
301.517
301.398
301.288
301.185
301.09
301.002
300.921
300.846
300.776
300.712
300.652
300.598
300.547
300.501
300.458
300.418
300.382
300.349
300.318
300.29
300.265
300.241
300.219
300.199
300.181
300.165
300.15
300.136
300.123
300.112
300.101
300.091
300.083
300.075
300.067
300.061
300.055
300.049
300.044
300.04
300.036
300.032
300.028
300.025
300.022
300.02
300.017
300.015
300.013
300.011
300.009
300.007
300.005
300.004
300.002
300.001
331.821
330.112
328.477
326.914
325.421
323.996
322.638
321.343
320.11
318.936
317.82
316.76
315.753
314.798
313.892
313.034
312.221
311.452
310.725
310.038
309.39
308.778
308.201
307.657
307.145
306.663
306.21
305.785
305.385
305.01
304.658
304.328
304.02
303.731
303.46
303.208
302.972
302.752
302.546
302.355
302.176
302.01
301.856
301.712
301.579
301.455
301.34
301.233
301.134
301.043
300.958
300.88
300.807
300.741
300.679
300.622
300.569
300.521
300.476
300.435
300.398
300.363
300.331
300.302
300.275
300.251
300.228
300.208
300.189
300.171
300.156
300.141
300.128
300.116
300.105
300.095
300.086
300.078
300.07
300.063
300.057
300.051
300.046
300.041
300.037
300.033
300.029
300.026
300.023
300.02
300.018
300.015
300.013
300.011
300.009
300.007
300.006
300.004
300.002
300.001
333.051
331.275
329.577
327.954
326.404
324.924
323.513
322.168
320.887
319.668
318.509
317.408
316.362
315.37
314.429
313.538
312.694
311.895
311.14
310.426
309.753
309.117
308.518
307.953
307.421
306.921
306.45
306.008
305.593
305.203
304.838
304.496
304.175
303.875
303.594
303.332
303.087
302.858
302.645
302.446
302.261
302.088
301.928
301.778
301.64
301.511
301.392
301.281
301.178
301.083
300.995
300.914
300.839
300.769
300.705
300.646
300.591
300.541
300.495
300.452
300.413
300.377
300.344
300.314
300.286
300.26
300.237
300.216
300.196
300.178
300.162
300.147
300.133
300.121
300.109
300.099
300.089
300.081
300.073
300.066
300.059
300.053
300.048
300.043
300.038
300.034
300.031
300.027
300.024
300.021
300.019
300.016
300.014
300.012
300.01
300.008
300.006
300.004
300.002
300.001
334.273
332.432
330.671
328.988
327.38
325.845
324.382
322.987
321.659
320.395
319.193
318.051
316.967
315.938
314.963
314.038
313.163
312.335
311.552
310.812
310.113
309.454
308.833
308.247
307.696
307.177
306.689
306.23
305.8
305.396
305.017
304.662
304.329
304.018
303.727
303.455
303.201
302.964
302.742
302.536
302.344
302.165
301.999
301.844
301.7
301.567
301.443
301.328
301.222
301.123
301.032
300.948
300.87
300.798
300.731
300.67
300.613
300.561
300.513
300.469
300.428
300.391
300.357
300.325
300.296
300.27
300.246
300.224
300.203
300.185
300.168
300.152
300.138
300.125
300.113
300.102
300.093
300.084
300.076
300.068
300.061
300.055
300.05
300.044
300.04
300.036
300.032
300.028
300.025
300.022
300.019
300.017
300.014
300.012
300.01
300.008
300.006
300.004
300.003
300.001
335.486
333.58
331.757
330.014
328.349
326.761
325.245
323.801
322.426
321.117
319.873
318.691
317.568
316.502
315.492
314.535
313.629
312.771
311.961
311.195
310.471
309.789
309.145
308.539
307.968
307.431
306.926
306.451
306.005
305.587
305.195
304.827
304.483
304.16
303.859
303.577
303.314
303.069
302.84
302.626
302.427
302.242
302.07
301.909
301.761
301.622
301.494
301.375
301.265
301.163
301.069
300.981
300.9
300.826
300.757
300.693
300.635
300.581
300.531
300.486
300.444
300.405
300.369
300.337
300.307
300.28
300.254
300.231
300.21
300.191
300.174
300.157
300.143
300.129
300.117
300.106
300.096
300.087
300.078
300.071
300.064
300.057
300.051
300.046
300.041
300.037
300.033
300.029
300.026
300.023
300.02
300.017
300.015
300.013
300.01
300.008
300.006
300.005
300.003
300.001
336.691
334.72
332.835
331.033
329.312
327.669
326.102
324.609
323.187
321.834
320.548
319.325
318.164
317.063
316.018
315.029
314.092
313.205
312.367
311.575
310.827
310.121
309.456
308.829
308.239
307.683
307.161
306.67
306.209
305.777
305.371
304.991
304.635
304.302
303.99
303.699
303.427
303.173
302.936
302.715
302.509
302.318
302.14
301.974
301.82
301.677
301.545
301.422
301.308
301.202
301.105
301.015
300.931
300.854
300.783
300.717
300.656
300.601
300.549
300.502
300.459
300.419
300.382
300.348
300.317
300.289
300.263
300.239
300.218
300.198
300.179
300.163
300.148
300.134
300.121
300.11
300.099
300.09
300.081
300.073
300.066
300.059
300.053
300.048
300.043
300.038
300.034
300.03
300.027
300.023
300.021
300.018
300.015
300.013
300.011
300.009
300.007
300.005
300.003
300.001
337.886
335.851
333.905
332.044
330.267
328.571
326.953
325.411
323.943
322.546
321.217
319.955
318.756
317.619
316.54
315.518
314.551
313.635
312.77
311.952
311.18
310.451
309.764
309.117
308.507
307.934
307.394
306.887
306.411
305.965
305.546
305.153
304.786
304.442
304.12
303.819
303.538
303.276
303.032
302.804
302.591
302.394
302.21
302.039
301.88
301.732
301.595
301.468
301.351
301.242
301.141
301.048
300.961
300.882
300.808
300.74
300.678
300.62
300.567
300.518
300.474
300.432
300.394
300.36
300.328
300.298
300.272
300.247
300.225
300.204
300.185
300.168
300.152
300.138
300.125
300.113
300.102
300.092
300.083
300.075
300.068
300.061
300.055
300.049
300.044
300.039
300.035
300.031
300.028
300.024
300.021
300.018
300.016
300.013
300.011
300.009
300.007
300.005
300.003
300.001
339.073
336.974
334.966
333.048
331.215
329.465
327.797
326.207
324.693
323.252
321.882
320.58
319.343
318.17
317.058
316.004
315.006
314.062
313.17
312.326
311.53
310.778
310.07
309.402
308.774
308.182
307.626
307.103
306.612
306.152
305.72
305.315
304.936
304.581
304.249
303.939
303.649
303.379
303.127
302.891
302.672
302.468
302.279
302.102
301.939
301.786
301.645
301.514
301.393
301.281
301.177
301.08
300.991
300.909
300.834
300.764
300.699
300.64
300.585
300.535
300.488
300.446
300.407
300.371
300.338
300.308
300.28
300.255
300.232
300.21
300.191
300.173
300.157
300.142
300.129
300.117
300.106
300.095
300.086
300.078
300.07
300.063
300.057
300.051
300.045
300.041
300.036
300.032
300.028
300.025
300.022
300.019
300.016
300.014
300.011
300.009
300.007
300.005
300.003
300.001
340.249
338.087
336.019
334.043
332.155
330.353
328.634
326.996
325.436
323.952
322.541
321.199
319.926
318.718
317.572
316.486
315.458
314.486
313.566
312.697
311.877
311.103
310.373
309.685
309.038
308.428
307.855
307.317
306.811
306.337
305.892
305.475
305.084
304.719
304.377
304.058
303.759
303.481
303.221
302.978
302.753
302.543
302.347
302.166
301.997
301.84
301.695
301.56
301.435
301.319
301.212
301.113
301.021
300.937
300.859
300.787
300.72
300.659
300.603
300.551
300.503
300.459
300.419
300.382
300.348
300.317
300.289
300.262
300.239
300.217
300.197
300.179
300.162
300.147
300.133
300.12
300.109
300.098
300.089
300.08
300.072
300.065
300.058
300.052
300.047
300.042
300.037
300.033
300.029
300.026
300.023
300.02
300.017
300.014
300.012
300.009
300.007
300.005
300.003
300.001
341.416
339.192
337.064
335.03
333.087
331.232
329.464
327.779
326.174
324.646
323.194
321.814
320.504
319.26
318.081
316.964
315.906
314.906
313.959
313.065
312.221
311.425
310.674
309.966
309.3
308.673
308.083
307.529
307.009
306.521
306.063
305.634
305.232
304.856
304.504
304.175
303.868
303.581
303.314
303.065
302.833
302.617
302.415
302.228
302.055
301.893
301.744
301.605
301.476
301.357
301.247
301.145
301.051
300.964
300.884
300.809
300.741
300.678
300.62
300.567
300.518
300.473
300.431
300.393
300.358
300.326
300.297
300.27
300.246
300.223
300.203
300.184
300.167
300.151
300.137
300.124
300.112
300.101
300.091
300.082
300.074
300.067
300.06
300.054
300.048
300.043
300.038
300.034
300.03
300.027
300.023
300.02
300.017
300.015
300.012
300.01
300.007
300.005
300.003
300.001
342.573
340.286
338.099
336.008
334.011
332.105
330.287
328.554
326.904
325.335
323.842
322.423
321.076
319.798
318.586
317.438
316.351
315.322
314.349
313.43
312.563
311.744
310.972
310.244
309.559
308.915
308.309
307.739
307.204
306.703
306.232
305.791
305.378
304.991
304.63
304.292
303.976
303.681
303.407
303.15
302.912
302.69
302.483
302.291
302.112
301.946
301.793
301.65
301.518
301.395
301.282
301.177
301.08
300.991
300.908
300.832
300.762
300.697
300.637
300.583
300.532
300.486
300.443
300.404
300.368
300.335
300.305
300.278
300.252
300.229
300.208
300.189
300.171
300.155
300.141
300.127
300.115
300.104
300.094
300.085
300.076
300.069
300.062
300.055
300.049
300.044
300.039
300.035
300.031
300.027
300.024
300.021
300.018
300.015
300.012
300.01
300.008
300.005
300.003
300.001
343.719
341.37
339.124
336.977
334.926
332.969
331.102
329.323
327.629
326.017
324.483
323.027
321.643
320.331
319.086
317.907
316.791
315.734
314.736
313.792
312.901
312.06
311.267
310.52
309.817
309.155
308.532
307.948
307.398
306.883
306.4
305.947
305.523
305.126
304.754
304.407
304.083
303.781
303.498
303.235
302.99
302.762
302.55
302.352
302.169
301.999
301.841
301.694
301.559
301.433
301.316
301.209
301.109
301.017
300.933
300.854
300.782
300.716
300.655
300.598
300.546
300.499
300.455
300.415
300.378
300.344
300.313
300.285
300.259
300.235
300.214
300.194
300.176
300.159
300.144
300.131
300.118
300.107
300.096
300.087
300.078
300.07
300.063
300.057
300.051
300.045
300.04
300.036
300.032
300.028
300.024
300.021
300.018
300.015
300.013
300.01
300.008
300.006
300.003
300.001
344.854
342.445
340.14
337.937
335.833
333.825
331.91
330.084
328.346
326.692
325.119
323.625
322.205
320.859
319.582
318.372
317.227
316.143
315.118
314.15
313.236
312.373
311.56
310.793
310.072
309.393
308.754
308.154
307.591
307.062
306.566
306.101
305.666
305.259
304.878
304.522
304.189
303.879
303.589
303.319
303.068
302.834
302.616
302.413
302.225
302.051
301.889
301.738
301.599
301.47
301.351
301.24
301.138
301.044
300.957
300.877
300.803
300.734
300.672
300.614
300.561
300.512
300.467
300.426
300.388
300.353
300.322
300.293
300.266
300.242
300.219
300.199
300.18
300.164
300.148
300.134
300.121
300.109
300.099
300.089
300.08
300.072
300.065
300.058
300.052
300.047
300.042
300.037
300.033
300.029
300.025
300.022
300.019
300.016
300.013
300.011
300.008
300.006
300.003
300.001
345.978
343.508
341.146
338.888
336.731
334.673
332.709
330.838
329.057
327.361
325.749
324.217
322.762
321.382
320.073
318.833
317.659
316.548
315.497
314.505
313.567
312.683
311.849
311.064
310.324
309.628
308.973
308.358
307.781
307.239
306.73
306.254
305.808
305.39
305
304.635
304.294
303.976
303.679
303.402
303.145
302.905
302.681
302.474
302.281
302.102
301.936
301.782
301.639
301.507
301.384
301.271
301.167
301.07
300.981
300.899
300.823
300.753
300.688
300.629
300.575
300.525
300.479
300.436
300.398
300.362
300.33
300.3
300.273
300.248
300.225
300.204
300.185
300.168
300.152
300.137
300.124
300.112
300.101
300.091
300.082
300.074
300.067
300.06
300.053
300.048
300.043
300.038
300.033
300.029
300.026
300.022
300.019
300.016
300.013
300.011
300.008
300.006
300.003
300.001