/*--------------------------------*- C++ -*----------------------------------*\
| =========                 |                                                 |
| \\      /  F ield         | OpenFOAM: The Open Source CFD Toolbox           |
|  \\    /   O peration     | Version:  2406                                  |
|   \\  /    A nd           | Website:  www.openfoam.com                      |
|    \\/     M anipulation  |                                                 |
\*---------------------------------------------------------------------------*/
FoamFile
{
    version     2.0;
    format      ascii;
    arch        "LSB;label=32;scalar=64";
    class       volVectorField;
    location    "150";
    object      flux;
}
// * * * * * * * * * * * * * * * * * * * * * * * * * * * * * * * * * * * * * //

dimensions      [0 1 -1 1 0 0 0];

internalField   nonuniform List<vector> 
20000
(
(0.00247373 -0.0578821 0)
(0.00237912 -0.05303 0)
(0.00228552 -0.0483662 0)
(0.00219307 -0.0438885 0)
(0.00210181 -0.0395946 0)
(0.00201188 -0.0354818 0)
(0.00192349 -0.0315474 0)
(0.00183681 -0.0277882 0)
(0.00175167 -0.0242008 0)
(0.00166821 -0.020782 0)
(0.0015867 -0.0175283 0)
(0.00150712 -0.0144356 0)
(0.0014294 -0.0115002 0)
(0.00135361 -0.00871837 0)
(0.00127987 -0.00608608 0)
(0.00120819 -0.0035992 0)
(0.0011386 -0.00125358 0)
(0.00107107 0.00095491 0)
(0.00100561 0.00303041 0)
(0.000942225 0.00497707 0)
(0.000880933 0.00679907 0)
(0.000821727 0.00850058 0)
(0.000764599 0.0100858 0)
(0.00070953 0.0115588 0)
(0.000656499 0.0129237 0)
(0.000605481 0.0141846 0)
(0.000556449 0.0153455 0)
(0.000509375 0.0164103 0)
(0.000464228 0.0173829 0)
(0.000420975 0.0182671 0)
(0.000379581 0.0190667 0)
(0.000340007 0.0197853 0)
(0.000302217 0.0204266 0)
(0.000266169 0.0209941 0)
(0.000231821 0.0214912 0)
(0.00019913 0.0219213 0)
(0.000168054 0.0222877 0)
(0.000138547 0.0225935 0)
(0.000110563 0.0228419 0)
(8.40589e-05 0.0230357 0)
(5.8987e-05 0.0231781 0)
(3.53018e-05 0.0232717 0)
(1.29572e-05 0.0233193 0)
(-8.09284e-06 0.0233235 0)
(-2.78943e-05 0.0232869 0)
(-4.64929e-05 0.0232119 0)
(-6.39338e-05 0.0231009 0)
(-8.02622e-05 0.0229562 0)
(-9.55224e-05 0.0227799 0)
(-0.000109758 0.0225741 0)
(-0.000123013 0.0223409 0)
(-0.00013533 0.0220821 0)
(-0.000146751 0.0217996 0)
(-0.000157316 0.0214951 0)
(-0.000167067 0.0211704 0)
(-0.000176042 0.0208269 0)
(-0.000184281 0.0204663 0)
(-0.000191822 0.0200898 0)
(-0.000198701 0.019699 0)
(-0.000204954 0.0192951 0)
(-0.000210617 0.0188793 0)
(-0.000215723 0.0184527 0)
(-0.000220306 0.0180164 0)
(-0.000224398 0.0175715 0)
(-0.000228029 0.0171189 0)
(-0.000231231 0.0166594 0)
(-0.000234032 0.016194 0)
(-0.000236461 0.0157234 0)
(-0.000238544 0.0152482 0)
(-0.000240309 0.0147693 0)
(-0.00024178 0.0142871 0)
(-0.000242982 0.0138022 0)
(-0.000243937 0.0133152 0)
(-0.00024467 0.0128265 0)
(-0.0002452 0.0123366 0)
(-0.000245548 0.0118458 0)
(-0.000245735 0.0113544 0)
(-0.000245778 0.0108629 0)
(-0.000245696 0.0103714 0)
(-0.000245506 0.00988016 0)
(-0.000245224 0.00938942 0)
(-0.000244864 0.00889933 0)
(-0.000244441 0.00841003 0)
(-0.000243969 0.00792163 0)
(-0.000243461 0.00743421 0)
(-0.000242928 0.00694784 0)
(-0.000242381 0.00646256 0)
(-0.000241831 0.00597838 0)
(-0.000241288 0.00549529 0)
(-0.000240759 0.00501329 0)
(-0.000240253 0.00453232 0)
(-0.000239777 0.00405233 0)
(-0.000239338 0.00357327 0)
(-0.000238942 0.00309504 0)
(-0.000238593 0.00261756 0)
(-0.000238295 0.00214073 0)
(-0.000238053 0.00166444 0)
(-0.000237869 0.00118857 0)
(-0.000237745 0.000713019 0)
(-0.000237682 0.000237652 0)
(0.00742059 -0.0578679 0)
(0.0071368 -0.0530168 0)
(0.00685599 -0.0483542 0)
(0.00657859 -0.0438776 0)
(0.00630488 -0.0395848 0)
(0.00603528 -0.0354731 0)
(0.0057701 -0.0315395 0)
(0.00550983 -0.0277813 0)
(0.00525449 -0.0241949 0)
(0.0050043 -0.0207769 0)
(0.00475978 -0.0175239 0)
(0.00452095 -0.0144319 0)
(0.00428779 -0.0114974 0)
(0.0040605 -0.00871625 0)
(0.0038393 -0.0060846 0)
(0.0036243 -0.00359831 0)
(0.00341551 -0.00125325 0)
(0.00321293 0.000954691 0)
(0.00301656 0.00302967 0)
(0.00282644 0.00497584 0)
(0.00264258 0.00679739 0)
(0.00246498 0.00849848 0)
(0.00229361 0.0100833 0)
(0.00212842 0.0115559 0)
(0.00196934 0.0129205 0)
(0.00181629 0.0141811 0)
(0.00166921 0.0153417 0)
(0.001528 0.0164062 0)
(0.00139257 0.0173786 0)
(0.00126282 0.0182626 0)
(0.00113865 0.019062 0)
(0.00101994 0.0197804 0)
(0.000906576 0.0204216 0)
(0.00079844 0.0209889 0)
(0.000695405 0.0214859 0)
(0.000597342 0.0219159 0)
(0.00050412 0.0222822 0)
(0.000415606 0.0225879 0)
(0.000331663 0.0228362 0)
(0.000252156 0.0230301 0)
(0.000176946 0.0231723 0)
(0.000105897 0.0232659 0)
(3.88685e-05 0.0233135 0)
(-2.42765e-05 0.0233177 0)
(-8.36761e-05 0.0232812 0)
(-0.000139467 0.0232062 0)
(-0.000191786 0.0230952 0)
(-0.000240767 0.0229505 0)
(-0.000286544 0.0227743 0)
(-0.000329248 0.0225686 0)
(-0.00036901 0.0223354 0)
(-0.000405957 0.0220767 0)
(-0.000440215 0.0217942 0)
(-0.000471909 0.0214898 0)
(-0.000501158 0.0211652 0)
(-0.000528083 0.0208218 0)
(-0.000552798 0.0204612 0)
(-0.000575418 0.0200849 0)
(-0.000596053 0.0196942 0)
(-0.000614811 0.0192903 0)
(-0.000631798 0.0188746 0)
(-0.000647116 0.0184481 0)
(-0.000660863 0.018012 0)
(-0.000673137 0.0175672 0)
(-0.000684031 0.0171147 0)
(-0.000693636 0.0166553 0)
(-0.000702039 0.01619 0)
(-0.000709324 0.0157195 0)
(-0.000715575 0.0152445 0)
(-0.000720868 0.0147656 0)
(-0.000725281 0.0142835 0)
(-0.000728885 0.0137988 0)
(-0.000731752 0.0133119 0)
(-0.000733948 0.0128233 0)
(-0.000735539 0.0123335 0)
(-0.000736584 0.0118428 0)
(-0.000737144 0.0113516 0)
(-0.000737274 0.0108602 0)
(-0.000737029 0.0103688 0)
(-0.000736458 0.00987773 0)
(-0.00073561 0.00938711 0)
(-0.000734531 0.00889713 0)
(-0.000733263 0.00840795 0)
(-0.000731848 0.00791967 0)
(-0.000730323 0.00743238 0)
(-0.000728724 0.00694613 0)
(-0.000727084 0.00646096 0)
(-0.000725434 0.0059769 0)
(-0.000723803 0.00549394 0)
(-0.000722217 0.00501205 0)
(-0.0007207 0.0045312 0)
(-0.000719273 0.00405133 0)
(-0.000717956 0.00357238 0)
(-0.000716767 0.00309427 0)
(-0.000715719 0.00261691 0)
(-0.000714827 0.0021402 0)
(-0.0007141 0.00166402 0)
(-0.000713547 0.00118828 0)
(-0.000713176 0.000712843 0)
(-0.000712989 0.000237593 0)
(0.0123657 -0.0578394 0)
(0.0118928 -0.0529907 0)
(0.0114247 -0.0483303 0)
(0.0109624 -0.043856 0)
(0.0105064 -0.0395652 0)
(0.0100572 -0.0354556 0)
(0.00961531 -0.031524 0)
(0.00918147 -0.0277676 0)
(0.00875601 -0.024183 0)
(0.00833921 -0.0207667 0)
(0.0079317 -0.0175152 0)
(0.00753363 -0.0144248 0)
(0.00714509 -0.0114917 0)
(0.00676638 -0.00871198 0)
(0.00639781 -0.00608161 0)
(0.00603954 -0.00359652 0)
(0.00569159 -0.00125262 0)
(0.00535399 0.000954234 0)
(0.00502676 0.00302818 0)
(0.00470994 0.00497338 0)
(0.00440357 0.00679402 0)
(0.00410763 0.00849428 0)
(0.00382206 0.0100783 0)
(0.00354678 0.0115502 0)
(0.00328169 0.0129142 0)
(0.00302666 0.0141741 0)
(0.00278156 0.0153341 0)
(0.00254625 0.0163981 0)
(0.00232057 0.01737 0)
(0.00210436 0.0182536 0)
(0.00189743 0.0190526 0)
(0.00169962 0.0197707 0)
(0.00151071 0.0204115 0)
(0.00133051 0.0209786 0)
(0.00115882 0.0214753 0)
(0.000995406 0.0219051 0)
(0.000840062 0.0222712 0)
(0.000692562 0.0225768 0)
(0.000552681 0.0228249 0)
(0.000420191 0.0230187 0)
(0.000294862 0.0231609 0)
(0.000176466 0.0232544 0)
(6.47702e-05 0.023302 0)
(-4.04542e-05 0.0233062 0)
(-0.000139437 0.0232697 0)
(-0.000232407 0.0231947 0)
(-0.00031959 0.0230838 0)
(-0.000401212 0.0229392 0)
(-0.000477494 0.022763 0)
(-0.000548656 0.0225574 0)
(-0.000614915 0.0223244 0)
(-0.000676483 0.0220658 0)
(-0.000733572 0.0217835 0)
(-0.000786385 0.0214792 0)
(-0.000835127 0.0211547 0)
(-0.000879993 0.0208115 0)
(-0.000921179 0.0204511 0)
(-0.000958872 0.020075 0)
(-0.000993258 0.0196844 0)
(-0.00102452 0.0192808 0)
(-0.00105282 0.0188653 0)
(-0.00107835 0.018439 0)
(-0.00110126 0.0180031 0)
(-0.00112171 0.0175585 0)
(-0.00113986 0.0171062 0)
(-0.00115587 0.0166471 0)
(-0.00116987 0.016182 0)
(-0.00118201 0.0157117 0)
(-0.00119243 0.0152369 0)
(-0.00120125 0.0147583 0)
(-0.0012086 0.0142765 0)
(-0.00121461 0.013792 0)
(-0.00121939 0.0133053 0)
(-0.00122305 0.012817 0)
(-0.0012257 0.0123274 0)
(-0.00122744 0.011837 0)
(-0.00122837 0.011346 0)
(-0.00122859 0.0108548 0)
(-0.00122818 0.0103637 0)
(-0.00122723 0.00987285 0)
(-0.00122582 0.00938247 0)
(-0.00122402 0.00889274 0)
(-0.0012219 0.0084038 0)
(-0.00121955 0.00791576 0)
(-0.001217 0.00742871 0)
(-0.00121434 0.0069427 0)
(-0.00121161 0.00645778 0)
(-0.00120886 0.00597395 0)
(-0.00120614 0.00549123 0)
(-0.0012035 0.00500957 0)
(-0.00120097 0.00452896 0)
(-0.00119859 0.00404933 0)
(-0.0011964 0.00357062 0)
(-0.00119441 0.00309275 0)
(-0.00119267 0.00261562 0)
(-0.00119118 0.00213914 0)
(-0.00118997 0.0016632 0)
(-0.00118905 0.00118769 0)
(-0.00118843 0.000712491 0)
(-0.00118812 0.000237476 0)
(0.0173077 -0.0577966 0)
(0.0166459 -0.0529516 0)
(0.0159907 -0.0482946 0)
(0.0153436 -0.0438235 0)
(0.0147053 -0.0395359 0)
(0.0140765 -0.0354293 0)
(0.0134581 -0.0315007 0)
(0.0128509 -0.027747 0)
(0.0122554 -0.024165 0)
(0.0116721 -0.0207513 0)
(0.0111017 -0.0175022 0)
(0.0105444 -0.0144141 0)
(0.0100006 -0.0114832 0)
(0.0094706 -0.00870553 0)
(0.00895476 -0.0060771 0)
(0.00845329 -0.00359385 0)
(0.00796627 -0.00125168 0)
(0.00749372 0.000953532 0)
(0.0070357 0.00302593 0)
(0.00659228 0.00496969 0)
(0.00616347 0.00678898 0)
(0.00574926 0.00848798 0)
(0.00534957 0.0100708 0)
(0.00496428 0.0115417 0)
(0.00459323 0.0129046 0)
(0.00423628 0.0141636 0)
(0.00389322 0.0153228 0)
(0.00356387 0.016386 0)
(0.00324799 0.0173572 0)
(0.00294537 0.0182401 0)
(0.00265575 0.0190385 0)
(0.00237888 0.019756 0)
(0.00211447 0.0203964 0)
(0.00186226 0.020963 0)
(0.00162194 0.0214594 0)
(0.00139322 0.0218889 0)
(0.0011758 0.0222547 0)
(0.000969347 0.0225601 0)
(0.000773562 0.022808 0)
(0.000588122 0.0230016 0)
(0.000412705 0.0231438 0)
(0.000246991 0.0232372 0)
(9.06559e-05 0.0232848 0)
(-5.6622e-05 0.023289 0)
(-0.000195164 0.0232524 0)
(-0.00032529 0.0231776 0)
(-0.000447316 0.0230667 0)
(-0.000561558 0.0229222 0)
(-0.000668327 0.0227462 0)
(-0.000767929 0.0225407 0)
(-0.000860668 0.0223078 0)
(-0.000946843 0.0220494 0)
(-0.00102675 0.0217673 0)
(-0.00110067 0.0214633 0)
(-0.00116889 0.0211391 0)
(-0.00123169 0.0207961 0)
(-0.00128933 0.020436 0)
(-0.00134209 0.0200601 0)
(-0.00139022 0.0196699 0)
(-0.00143397 0.0192665 0)
(-0.00147359 0.0188513 0)
(-0.00150932 0.0184254 0)
(-0.00154138 0.0179898 0)
(-0.00157001 0.0175455 0)
(-0.00159542 0.0170935 0)
(-0.00161782 0.0166348 0)
(-0.00163742 0.01617 0)
(-0.00165441 0.0157001 0)
(-0.00166899 0.0152257 0)
(-0.00168133 0.0147474 0)
(-0.00169163 0.0142659 0)
(-0.00170003 0.0137818 0)
(-0.00170672 0.0132955 0)
(-0.00171184 0.0128075 0)
(-0.00171555 0.0123183 0)
(-0.00171799 0.0118282 0)
(-0.0017193 0.0113376 0)
(-0.0017196 0.0108468 0)
(-0.00171903 0.010356 0)
(-0.0017177 0.00986554 0)
(-0.00171572 0.00937552 0)
(-0.0017132 0.00888616 0)
(-0.00171024 0.00839758 0)
(-0.00170694 0.0079099 0)
(-0.00170339 0.00742321 0)
(-0.00169966 0.00693756 0)
(-0.00169583 0.00645299 0)
(-0.00169198 0.00596953 0)
(-0.00168818 0.00548716 0)
(-0.00168448 0.00500587 0)
(-0.00168094 0.00452561 0)
(-0.00167761 0.00404633 0)
(-0.00167454 0.00356798 0)
(-0.00167177 0.00309046 0)
(-0.00166932 0.00261368 0)
(-0.00166724 0.00213756 0)
(-0.00166555 0.00166197 0)
(-0.00166426 0.00118681 0)
(-0.00166339 0.000711963 0)
(-0.00166296 0.0002373 0)
(0.0222453 -0.0577393 0)
(0.0213948 -0.0528993 0)
(0.0205529 -0.0482469 0)
(0.0197211 -0.0437802 0)
(0.0189005 -0.0394969 0)
(0.0180924 -0.0353943 0)
(0.0172976 -0.0314696 0)
(0.0165171 -0.0277196 0)
(0.0157518 -0.0241411 0)
(0.015002 -0.0207308 0)
(0.0142688 -0.0174849 0)
(0.0135526 -0.0143999 0)
(0.0128537 -0.0114719 0)
(0.0121725 -0.00869693 0)
(0.0115095 -0.00607109 0)
(0.010865 -0.00359029 0)
(0.010239 -0.00125044 0)
(0.0096316 0.00095259 0)
(0.00904291 0.00302294 0)
(0.00847299 0.00496477 0)
(0.00792186 0.00678227 0)
(0.00738948 0.00847959 0)
(0.00687576 0.0100609 0)
(0.00638055 0.0115303 0)
(0.00590365 0.0128919 0)
(0.00544485 0.0141497 0)
(0.00500393 0.0153077 0)
(0.00458061 0.0163698 0)
(0.00417462 0.01734 0)
(0.00378566 0.018222 0)
(0.00341341 0.0190197 0)
(0.00305755 0.0197365 0)
(0.00271771 0.0203762 0)
(0.00239355 0.0209423 0)
(0.00208467 0.0214382 0)
(0.0017907 0.0218673 0)
(0.00151124 0.0222327 0)
(0.00124589 0.0225378 0)
(0.000994252 0.0227855 0)
(0.000755907 0.0229789 0)
(0.000530446 0.0231209 0)
(0.000317455 0.0232143 0)
(0.000116519 0.0232618 0)
(-7.27758e-05 0.023266 0)
(-0.000250843 0.0232295 0)
(-0.000418092 0.0231547 0)
(-0.000574932 0.023044 0)
(-0.000721766 0.0228996 0)
(-0.000858994 0.0227237 0)
(-0.000987013 0.0225185 0)
(-0.00110621 0.0222858 0)
(-0.00121697 0.0220277 0)
(-0.00131967 0.0217458 0)
(-0.00141468 0.0214421 0)
(-0.00150236 0.0211182 0)
(-0.00158308 0.0207756 0)
(-0.00165717 0.0204158 0)
(-0.00172498 0.0200403 0)
(-0.00178684 0.0196504 0)
(-0.00184307 0.0192475 0)
(-0.00189399 0.0188327 0)
(-0.00193991 0.0184072 0)
(-0.00198112 0.017972 0)
(-0.00201792 0.0175282 0)
(-0.00205058 0.0170767 0)
(-0.00207937 0.0166184 0)
(-0.00210456 0.0161541 0)
(-0.0021264 0.0156846 0)
(-0.00214513 0.0152106 0)
(-0.002161 0.0147328 0)
(-0.00217423 0.0142518 0)
(-0.00218504 0.0137682 0)
(-0.00219363 0.0132823 0)
(-0.00220022 0.0127949 0)
(-0.00220498 0.0123061 0)
(-0.00220812 0.0118166 0)
(-0.0022098 0.0113264 0)
(-0.00221019 0.0108361 0)
(-0.00220945 0.0103458 0)
(-0.00220774 0.00985579 0)
(-0.0022052 0.00936626 0)
(-0.00220196 0.00887738 0)
(-0.00219816 0.00838928 0)
(-0.00219392 0.00790209 0)
(-0.00218935 0.00741587 0)
(-0.00218455 0.00693071 0)
(-0.00217964 0.00644662 0)
(-0.00217469 0.00596363 0)
(-0.0021698 0.00548174 0)
(-0.00216505 0.00500092 0)
(-0.0021605 0.00452114 0)
(-0.00215622 0.00404234 0)
(-0.00215228 0.00356445 0)
(-0.00214871 0.0030874 0)
(-0.00214557 0.0026111 0)
(-0.00214289 0.00213545 0)
(-0.00214071 0.00166033 0)
(-0.00213906 0.00118564 0)
(-0.00213794 0.00071126 0)
(-0.00213738 0.000237066 0)
(0.0271774 -0.0576679 0)
(0.0261384 -0.0528339 0)
(0.0251098 -0.0481873 0)
(0.0240936 -0.0437261 0)
(0.0230912 -0.0394481 0)
(0.0221038 -0.0353506 0)
(0.0211328 -0.0314307 0)
(0.0201793 -0.0276854 0)
(0.0192442 -0.0241113 0)
(0.0183283 -0.0207052 0)
(0.0174325 -0.0174633 0)
(0.0165575 -0.0143821 0)
(0.0157036 -0.0114577 0)
(0.0148714 -0.00868618 0)
(0.0140614 -0.00606358 0)
(0.0132739 -0.00358584 0)
(0.0125091 -0.00124889 0)
(0.0117671 0.000951412 0)
(0.0110479 0.0030192 0)
(0.0103516 0.00495863 0)
(0.00967829 0.00677388 0)
(0.00902788 0.00846911 0)
(0.00840026 0.0100485 0)
(0.00779524 0.011516 0)
(0.00721261 0.0128759 0)
(0.00665209 0.0141322 0)
(0.00611339 0.0152888 0)
(0.00559622 0.0163496 0)
(0.00510021 0.0173186 0)
(0.00462501 0.0181995 0)
(0.00417023 0.0189962 0)
(0.00373547 0.0197121 0)
(0.00332028 0.0203511 0)
(0.00292424 0.0209165 0)
(0.00254688 0.0214117 0)
(0.00218773 0.0218403 0)
(0.00184631 0.0222053 0)
(0.00152213 0.0225099 0)
(0.0012147 0.0227574 0)
(0.000923507 0.0229505 0)
(0.000648057 0.0230923 0)
(0.000387841 0.0231856 0)
(0.000142354 0.023233 0)
(-8.89116e-05 0.0232372 0)
(-0.000306459 0.0232008 0)
(-0.000510791 0.0231261 0)
(-0.000702405 0.0230155 0)
(-0.000881795 0.0228713 0)
(-0.00104945 0.0226956 0)
(-0.00120585 0.0224906 0)
(-0.00135148 0.0222583 0)
(-0.0014868 0.0220004 0)
(-0.00161227 0.021719 0)
(-0.00172834 0.0214156 0)
(-0.00183547 0.0210921 0)
(-0.00193407 0.0207499 0)
(-0.00202459 0.0203906 0)
(-0.00210744 0.0200155 0)
(-0.00218301 0.0196262 0)
(-0.00225171 0.0192237 0)
(-0.00231393 0.0188094 0)
(-0.00237003 0.0183844 0)
(-0.00242038 0.0179498 0)
(-0.00246533 0.0175065 0)
(-0.00250523 0.0170556 0)
(-0.0025404 0.0165978 0)
(-0.00257118 0.0161341 0)
(-0.00259786 0.0156652 0)
(-0.00262075 0.0151918 0)
(-0.00264014 0.0147146 0)
(-0.0026563 0.0142342 0)
(-0.0026695 0.0137511 0)
(-0.00268 0.0132659 0)
(-0.00268805 0.0127791 0)
(-0.00269387 0.0122909 0)
(-0.0026977 0.011802 0)
(-0.00269975 0.0113124 0)
(-0.00270023 0.0108227 0)
(-0.00269933 0.010333 0)
(-0.00269724 0.00984362 0)
(-0.00269413 0.00935469 0)
(-0.00269018 0.00886641 0)
(-0.00268554 0.00837892 0)
(-0.00268035 0.00789232 0)
(-0.00267477 0.00740671 0)
(-0.00266891 0.00692214 0)
(-0.00266291 0.00643865 0)
(-0.00265686 0.00595626 0)
(-0.00265089 0.00547497 0)
(-0.00264508 0.00499474 0)
(-0.00263952 0.00451555 0)
(-0.0026343 0.00403734 0)
(-0.00262948 0.00356005 0)
(-0.00262512 0.00308359 0)
(-0.00262128 0.00260787 0)
(-0.00261801 0.00213281 0)
(-0.00261535 0.00165828 0)
(-0.00261333 0.00118418 0)
(-0.00261197 0.000710381 0)
(-0.00261128 0.000236773 0)
(0.0321029 -0.0575824 0)
(0.0308755 -0.0527555 0)
(0.0296606 -0.0481158 0)
(0.0284602 -0.0436613 0)
(0.0272761 -0.0393896 0)
(0.0261098 -0.0352981 0)
(0.0249628 -0.031384 0)
(0.0238365 -0.0276443 0)
(0.0227319 -0.0240755 0)
(0.02165 -0.0206745 0)
(0.0205919 -0.0174374 0)
(0.0195583 -0.0143608 0)
(0.0185496 -0.0114407 0)
(0.0175666 -0.00867329 0)
(0.0166098 -0.00605458 0)
(0.0156797 -0.00358052 0)
(0.0147762 -0.00124703 0)
(0.0138997 0.000949998 0)
(0.0130501 0.00301472 0)
(0.0122277 0.00495127 0)
(0.0114323 0.00676383 0)
(0.0106641 0.00845654 0)
(0.00992269 0.0100335 0)
(0.00920802 0.0114989 0)
(0.00851979 0.0128568 0)
(0.00785768 0.0141112 0)
(0.00722135 0.0152661 0)
(0.00661044 0.0163253 0)
(0.00602454 0.0172929 0)
(0.00546322 0.0181725 0)
(0.00492602 0.018968 0)
(0.00441246 0.0196829 0)
(0.00392203 0.0203209 0)
(0.00345422 0.0208854 0)
(0.00300847 0.02138 0)
(0.00258423 0.0218078 0)
(0.00218093 0.0221723 0)
(0.001798 0.0224765 0)
(0.00143484 0.0227236 0)
(0.00109088 0.0229165 0)
(0.000765507 0.0230581 0)
(0.000458131 0.0231512 0)
(0.000168153 0.0231985 0)
(-0.000105026 0.0232027 0)
(-0.000362 0.0231663 0)
(-0.000603364 0.0230918 0)
(-0.000829705 0.0229813 0)
(-0.00104161 0.0228374 0)
(-0.00123965 0.022662 0)
(-0.0014244 0.0224573 0)
(-0.00159641 0.0222252 0)
(-0.00175625 0.0219678 0)
(-0.00190446 0.0216868 0)
(-0.00204158 0.0213839 0)
(-0.00216812 0.0210608 0)
(-0.0022846 0.0207191 0)
(-0.00239152 0.0203603 0)
(-0.00248938 0.0199858 0)
(-0.00257865 0.019597 0)
(-0.0026598 0.0191952 0)
(-0.00273329 0.0187815 0)
(-0.00279956 0.0183571 0)
(-0.00285903 0.0179231 0)
(-0.00291213 0.0174805 0)
(-0.00295926 0.0170303 0)
(-0.00300081 0.0165732 0)
(-0.00303717 0.0161102 0)
(-0.00306869 0.015642 0)
(-0.00309572 0.0151693 0)
(-0.00311863 0.0146928 0)
(-0.00313771 0.0142131 0)
(-0.00315331 0.0137307 0)
(-0.00316571 0.0132463 0)
(-0.00317521 0.0127601 0)
(-0.00318209 0.0122727 0)
(-0.00318662 0.0117844 0)
(-0.00318904 0.0112957 0)
(-0.0031896 0.0108066 0)
(-0.00318854 0.0103177 0)
(-0.00318607 0.00982901 0)
(-0.0031824 0.00934081 0)
(-0.00317773 0.00885326 0)
(-0.00317225 0.00836649 0)
(-0.00316613 0.00788061 0)
(-0.00315953 0.00739572 0)
(-0.00315261 0.00691187 0)
(-0.00314552 0.0064291 0)
(-0.00313838 0.00594742 0)
(-0.00313132 0.00546684 0)
(-0.00312446 0.00498733 0)
(-0.0031179 0.00450885 0)
(-0.00311173 0.00403135 0)
(-0.00310603 0.00355477 0)
(-0.00310088 0.00307901 0)
(-0.00309635 0.00260401 0)
(-0.00309249 0.00212964 0)
(-0.00308935 0.00165582 0)
(-0.00308696 0.00118242 0)
(-0.00308535 0.000709327 0)
(-0.00308454 0.000236422 0)
(0.0370205 -0.0574827 0)
(0.035605 -0.0526641 0)
(0.034204 -0.0480324 0)
(0.0328198 -0.0435856 0)
(0.0314543 -0.0393213 0)
(0.0301094 -0.035237 0)
(0.0287867 -0.0313297 0)
(0.0274878 -0.0275964 0)
(0.026214 -0.0240338 0)
(0.0249663 -0.0206386 0)
(0.0237462 -0.0174072 0)
(0.0225542 -0.0143359 0)
(0.0213911 -0.0114209 0)
(0.0202575 -0.00865826 0)
(0.0191542 -0.00604408 0)
(0.0180815 -0.00357432 0)
(0.0170397 -0.00124488 0)
(0.0160288 0.000948347 0)
(0.0150492 0.00300949 0)
(0.0141007 0.00494269 0)
(0.0131836 0.00675211 0)
(0.0122976 0.00844189 0)
(0.0114427 0.0100162 0)
(0.0106185 0.011479 0)
(0.00982486 0.0128345 0)
(0.00906133 0.0140868 0)
(0.00832753 0.0152396 0)
(0.00762304 0.0162971 0)
(0.00694739 0.0172629 0)
(0.00630008 0.018141 0)
(0.0056806 0.0189351 0)
(0.00508837 0.0196488 0)
(0.00452282 0.0202857 0)
(0.00398334 0.0208492 0)
(0.00346931 0.0213429 0)
(0.00298008 0.0217701 0)
(0.00251501 0.0221339 0)
(0.00207342 0.0224376 0)
(0.00165463 0.0226842 0)
(0.00125798 0.0228768 0)
(0.000882768 0.0230181 0)
(0.000528308 0.0231111 0)
(0.000193911 0.0231583 0)
(-0.000121114 0.0231625 0)
(-0.000417452 0.0231262 0)
(-0.000695789 0.0230517 0)
(-0.000956801 0.0229415 0)
(-0.00120116 0.0227978 0)
(-0.00142954 0.0226227 0)
(-0.00164259 0.0224184 0)
(-0.00184095 0.0221867 0)
(-0.00202528 0.0219297 0)
(-0.00219619 0.0216492 0)
(-0.00235431 0.0213468 0)
(-0.00250023 0.0210243 0)
(-0.00263455 0.0206832 0)
(-0.00275786 0.020325 0)
(-0.00287071 0.0199512 0)
(-0.00297365 0.0195631 0)
(-0.00306724 0.0191619 0)
(-0.00315198 0.018749 0)
(-0.0032284 0.0183253 0)
(-0.00329698 0.0178921 0)
(-0.00335822 0.0174502 0)
(-0.00341257 0.0170007 0)
(-0.00346048 0.0165445 0)
(-0.0035024 0.0160823 0)
(-0.00353875 0.0156149 0)
(-0.00356993 0.015143 0)
(-0.00359634 0.0146673 0)
(-0.00361835 0.0141885 0)
(-0.00363634 0.0137069 0)
(-0.00365064 0.0132233 0)
(-0.0036616 0.012738 0)
(-0.00366953 0.0122514 0)
(-0.00367475 0.011764 0)
(-0.00367754 0.0112761 0)
(-0.00367819 0.0107879 0)
(-0.00367697 0.0102998 0)
(-0.00367412 0.00981198 0)
(-0.00366989 0.00932463 0)
(-0.0036645 0.00883792 0)
(-0.00365818 0.00835199 0)
(-0.00365112 0.00786696 0)
(-0.00364351 0.00738291 0)
(-0.00363553 0.00689989 0)
(-0.00362735 0.00641796 0)
(-0.00361912 0.00593712 0)
(-0.00361099 0.00545737 0)
(-0.00360307 0.00497869 0)
(-0.0035955 0.00450104 0)
(-0.00358838 0.00402437 0)
(-0.00358182 0.00354861 0)
(-0.00357588 0.00307368 0)
(-0.00357065 0.00259949 0)
(-0.0035662 0.00212595 0)
(-0.00356258 0.00165295 0)
(-0.00355982 0.00118037 0)
(-0.00355796 0.000708098 0)
(-0.00355703 0.000236012 0)
(0.0419289 -0.0573687 0)
(0.0403258 -0.0525597 0)
(0.0387391 -0.0479372 0)
(0.0371713 -0.0434992 0)
(0.0356247 -0.0392434 0)
(0.0341015 -0.0351671 0)
(0.0326034 -0.0312676 0)
(0.0311324 -0.0275417 0)
(0.0296897 -0.0239862 0)
(0.0282766 -0.0205977 0)
(0.0268946 -0.0173727 0)
(0.0255446 -0.0143075 0)
(0.0242273 -0.0113982 0)
(0.0229434 -0.00864109 0)
(0.0216938 -0.0060321 0)
(0.0204789 -0.00356723 0)
(0.0192989 -0.00124241 0)
(0.018154 0.000946463 0)
(0.0170445 0.00300352 0)
(0.0159703 0.00493289 0)
(0.0149315 0.00673872 0)
(0.0139281 0.00842515 0)
(0.0129598 0.0099963 0)
(0.0120264 0.0114563 0)
(0.0111275 0.0128091 0)
(0.0102627 0.0140588 0)
(0.00943166 0.0152094 0)
(0.00863376 0.0162648 0)
(0.00786852 0.0172287 0)
(0.00713539 0.0181051 0)
(0.00643377 0.0188976 0)
(0.00576302 0.0196098 0)
(0.00512248 0.0202454 0)
(0.00451148 0.0208079 0)
(0.00392929 0.0213006 0)
(0.0033752 0.0217269 0)
(0.00284846 0.02209 0)
(0.00234832 0.0223931 0)
(0.00187402 0.0226393 0)
(0.00142477 0.0228314 0)
(0.000999812 0.0229725 0)
(0.000598355 0.0230653 0)
(0.000219621 0.0231124 0)
(-0.000137172 0.0231166 0)
(-0.000472801 0.0230803 0)
(-0.000788041 0.023006 0)
(-0.00108366 0.022896 0)
(-0.00136042 0.0227526 0)
(-0.00161908 0.0225779 0)
(-0.00186037 0.0223739 0)
(-0.00208504 0.0221427 0)
(-0.00229381 0.0218863 0)
(-0.00248738 0.0216063 0)
(-0.00266646 0.0213045 0)
(-0.00283173 0.0209826 0)
(-0.00298386 0.0206422 0)
(-0.00312351 0.0202847 0)
(-0.00325132 0.0199117 0)
(-0.00336792 0.0195243 0)
(-0.00347391 0.0191239 0)
(-0.00356989 0.0187118 0)
(-0.00365644 0.018289 0)
(-0.00373412 0.0178566 0)
(-0.00380347 0.0174157 0)
(-0.00386503 0.016967 0)
(-0.0039193 0.0165117 0)
(-0.00396678 0.0160504 0)
(-0.00400794 0.0155839 0)
(-0.00404326 0.015113 0)
(-0.00407317 0.0146383 0)
(-0.0040981 0.0141603 0)
(-0.00411847 0.0136798 0)
(-0.00413467 0.0131971 0)
(-0.00414708 0.0127127 0)
(-0.00415606 0.0122271 0)
(-0.00416197 0.0117407 0)
(-0.00416513 0.0112537 0)
(-0.00416587 0.0107665 0)
(-0.00416448 0.0102794 0)
(-0.00416126 0.00979253 0)
(-0.00415647 0.00930614 0)
(-0.00415037 0.00882039 0)
(-0.00414321 0.00833543 0)
(-0.00413521 0.00785136 0)
(-0.00412659 0.00736827 0)
(-0.00411756 0.00688622 0)
(-0.00410829 0.00640524 0)
(-0.00409897 0.00592535 0)
(-0.00408976 0.00544655 0)
(-0.00408079 0.00496882 0)
(-0.00407222 0.00449212 0)
(-0.00406416 0.00401639 0)
(-0.00405672 0.00354157 0)
(-0.00405 0.00306758 0)
(-0.00404408 0.00259434 0)
(-0.00403903 0.00212174 0)
(-0.00403493 0.00164967 0)
(-0.00403181 0.00117803 0)
(-0.0040297 0.000706694 0)
(-0.00402865 0.000235544 0)
(0.046827 -0.0572406 0)
(0.0450366 -0.0524423 0)
(0.0432645 -0.0478301 0)
(0.0415136 -0.043402 0)
(0.0397863 -0.0391557 0)
(0.0380852 -0.0350886 0)
(0.0364121 -0.0311977 0)
(0.0347692 -0.0274802 0)
(0.033158 -0.0239326 0)
(0.0315798 -0.0205517 0)
(0.0300364 -0.0173339 0)
(0.0285287 -0.0142755 0)
(0.0270575 -0.0113728 0)
(0.0256236 -0.00862179 0)
(0.024228 -0.00601863 0)
(0.0228712 -0.00355926 0)
(0.0215534 -0.00123964 0)
(0.0202748 0.000944346 0)
(0.0190356 0.0029968 0)
(0.0178359 0.00492187 0)
(0.0166758 0.00672367 0)
(0.0155552 0.00840633 0)
(0.0144738 0.00997398 0)
(0.0134313 0.0114307 0)
(0.0124274 0.0127805 0)
(0.0114616 0.0140274 0)
(0.0105335 0.0151754 0)
(0.00964234 0.0162284 0)
(0.00878772 0.0171902 0)
(0.00796894 0.0180646 0)
(0.00718535 0.0188554 0)
(0.00643625 0.019566 0)
(0.00572089 0.0202002 0)
(0.0050385 0.0207614 0)
(0.00438831 0.021253 0)
(0.00376949 0.0216784 0)
(0.00318122 0.0220407 0)
(0.00262265 0.0223431 0)
(0.00209294 0.0225887 0)
(0.00159121 0.0227804 0)
(0.00111661 0.0229212 0)
(0.000668254 0.0230137 0)
(0.000245276 0.0230608 0)
(-0.000153196 0.023065 0)
(-0.000528033 0.0230288 0)
(-0.000880099 0.0229547 0)
(-0.00121025 0.0228449 0)
(-0.00151934 0.0227018 0)
(-0.00180822 0.0225274 0)
(-0.0020777 0.0223239 0)
(-0.00232861 0.0220933 0)
(-0.00256177 0.0218374 0)
(-0.00277795 0.021558 0)
(-0.00297795 0.0212569 0)
(-0.00316253 0.0209358 0)
(-0.00333243 0.0205961 0)
(-0.0034884 0.0202394 0)
(-0.00363114 0.0198672 0)
(-0.00376136 0.0194807 0)
(-0.00387973 0.0190812 0)
(-0.00398692 0.01867 0)
(-0.00408358 0.0182482 0)
(-0.00417034 0.0178167 0)
(-0.00424779 0.0173768 0)
(-0.00431654 0.0169292 0)
(-0.00437715 0.0164748 0)
(-0.00443017 0.0160145 0)
(-0.00447615 0.0155491 0)
(-0.00451559 0.0150792 0)
(-0.00454899 0.0146056 0)
(-0.00457684 0.0141287 0)
(-0.00459959 0.0136492 0)
(-0.00461768 0.0131676 0)
(-0.00463154 0.0126843 0)
(-0.00464157 0.0121998 0)
(-0.00464817 0.0117145 0)
(-0.0046517 0.0112286 0)
(-0.00465252 0.0107425 0)
(-0.00465097 0.0102564 0)
(-0.00464737 0.00977066 0)
(-0.00464202 0.00928536 0)
(-0.00463521 0.0088007 0)
(-0.00462721 0.00831682 0)
(-0.00461828 0.00783383 0)
(-0.00460866 0.00735182 0)
(-0.00459857 0.00687084 0)
(-0.00458822 0.00639093 0)
(-0.00457781 0.00591212 0)
(-0.00456752 0.00543439 0)
(-0.00455751 0.00495772 0)
(-0.00454793 0.00448208 0)
(-0.00453893 0.00400742 0)
(-0.00453062 0.00353366 0)
(-0.00452311 0.00306073 0)
(-0.0045165 0.00258855 0)
(-0.00451087 0.002117 0)
(-0.00450628 0.00164599 0)
(-0.0045028 0.0011754 0)
(-0.00450045 0.000705116 0)
(-0.00449927 0.000235018 0)
(0.0517135 -0.0570984 0)
(0.0497363 -0.052312 0)
(0.0477793 -0.0477113 0)
(0.0458456 -0.0432942 0)
(0.0439382 -0.0390584 0)
(0.0420595 -0.0350014 0)
(0.0402118 -0.0311202 0)
(0.0383975 -0.0274119 0)
(0.0366181 -0.0238732 0)
(0.0348753 -0.0205007 0)
(0.0331708 -0.0172908 0)
(0.0315058 -0.0142401 0)
(0.029881 -0.0113445 0)
(0.0282976 -0.00860036 0)
(0.0267563 -0.00600367 0)
(0.0252578 -0.00355042 0)
(0.0238025 -0.00123656 0)
(0.0223905 0.000941995 0)
(0.021022 0.00298935 0)
(0.0196972 0.00490963 0)
(0.018416 0.00670696 0)
(0.0171784 0.00838544 0)
(0.0159842 0.00994919 0)
(0.0148329 0.0114023 0)
(0.0137243 0.0127487 0)
(0.0126577 0.0139926 0)
(0.0116327 0.0151377 0)
(0.0106485 0.0161881 0)
(0.00970474 0.0171475 0)
(0.00880052 0.0180198 0)
(0.00793517 0.0188085 0)
(0.00710789 0.0195174 0)
(0.00631788 0.02015 0)
(0.00556428 0.0207098 0)
(0.00484624 0.0212002 0)
(0.00416284 0.0216245 0)
(0.00351319 0.0219859 0)
(0.00289633 0.0222876 0)
(0.00231134 0.0225326 0)
(0.00175726 0.0227238 0)
(0.00123313 0.0228642 0)
(0.000737988 0.0229566 0)
(0.000270872 0.0230035 0)
(-0.000169183 0.0230077 0)
(-0.000583136 0.0229716 0)
(-0.000971941 0.0228976 0)
(-0.00133655 0.0227881 0)
(-0.00167789 0.0226454 0)
(-0.00199691 0.0224715 0)
(-0.00229451 0.0222685 0)
(-0.00257161 0.0220384 0)
(-0.00282909 0.0217831 0)
(-0.00306784 0.0215044 0)
(-0.00328871 0.0212041 0)
(-0.00349255 0.0208837 0)
(-0.00368018 0.0205449 0)
(-0.00385242 0.0201891 0)
(-0.00401006 0.0198178 0)
(-0.00415387 0.0194323 0)
(-0.00428459 0.0190338 0)
(-0.00440297 0.0186236 0)
(-0.00450972 0.0182028 0)
(-0.00460552 0.0177725 0)
(-0.00469106 0.0173336 0)
(-0.00476698 0.0168871 0)
(-0.00483391 0.0164339 0)
(-0.00489247 0.0159747 0)
(-0.00494325 0.0155105 0)
(-0.0049868 0.0150418 0)
(-0.00502369 0.0145693 0)
(-0.00505444 0.0140936 0)
(-0.00507957 0.0136153 0)
(-0.00509954 0.0131349 0)
(-0.00511485 0.0126528 0)
(-0.00512593 0.0121695 0)
(-0.00513322 0.0116854 0)
(-0.00513712 0.0112007 0)
(-0.00513803 0.0107158 0)
(-0.00513632 0.010231 0)
(-0.00513234 0.00974638 0)
(-0.00512643 0.00926228 0)
(-0.00511891 0.00877883 0)
(-0.00511008 0.00829615 0)
(-0.00510021 0.00781436 0)
(-0.00508958 0.00733355 0)
(-0.00507844 0.00685376 0)
(-0.00506701 0.00637505 0)
(-0.00505552 0.00589743 0)
(-0.00504415 0.00542088 0)
(-0.0050331 0.0049454 0)
(-0.00502252 0.00447095 0)
(-0.00501258 0.00399746 0)
(-0.0050034 0.00352488 0)
(-0.00499511 0.00305313 0)
(-0.00498781 0.00258211 0)
(-0.00498159 0.00211174 0)
(-0.00497653 0.0016419 0)
(-0.00497268 0.00117248 0)
(-0.00497009 0.000703364 0)
(-0.00496878 0.000234434 0)
(0.0565873 -0.0569421 0)
(0.0544237 -0.0521687 0)
(0.0522823 -0.0475806 0)
(0.0501664 -0.0431757 0)
(0.0480791 -0.0389515 0)
(0.0460234 -0.0349056 0)
(0.0440016 -0.031035 0)
(0.0420163 -0.0273368 0)
(0.0400692 -0.0238078 0)
(0.0381621 -0.0204445 0)
(0.036297 -0.0172435 0)
(0.0344751 -0.0142011 0)
(0.0326972 -0.0113134 0)
(0.0309645 -0.00857682 0)
(0.029278 -0.00598724 0)
(0.0276383 -0.00354071 0)
(0.0260458 -0.00123318 0)
(0.0245007 0.000939413 0)
(0.0230032 0.00298117 0)
(0.0215535 0.00489619 0)
(0.0201516 0.00668859 0)
(0.0187974 0.00836249 0)
(0.0174906 0.00992196 0)