/*--------------------------------*- C++ -*----------------------------------*\
| =========                 |                                                 |
| \\      /  F ield         | OpenFOAM: The Open Source CFD Toolbox           |
|  \\    /   O peration     | Version:  2406                                  |
|   \\  /    A nd           | Website:  www.openfoam.com                      |
|    \\/     M anipulation  |                                                 |
\*---------------------------------------------------------------------------*/
FoamFile
{
    version     2.0;
    format      ascii;
    arch        "LSB;label=32;scalar=64";
    class       volScalarField;
    location    "150";
    object      gradTx;
}
// * * * * * * * * * * * * * * * * * * * * * * * * * * * * * * * * * * * * * //

dimensions      [0 -1 0 1 0 0 0];

internalField   nonuniform List<scalar> 
20000
(
7.70592
7.41119
7.11962
6.83163
6.54735
6.26721
5.99187
5.72183
5.45662
5.19663
4.94273
4.69482
4.45272
4.21664
3.98691
3.76364
3.54684
3.33648
3.13256
2.93512
2.74419
2.55976
2.3818
2.21026
2.04506
1.88613
1.73339
1.58675
1.44612
1.31138
1.18243
1.05916
0.941436
0.829141
0.722144
0.620311
0.523504
0.431586
0.344416
0.261852
0.18375
0.109969
0.0403631
-0.02521
-0.0868936
-0.14483
-0.19916
-0.250025
-0.297562
-0.341908
-0.383199
-0.421567
-0.457142
-0.490055
-0.520429
-0.548388
-0.574054
-0.597544
-0.618972
-0.638452
-0.656092
-0.671998
-0.686275
-0.699021
-0.710333
-0.720307
-0.729033
-0.736599
-0.74309
-0.748587
-0.753169
-0.756912
-0.759889
-0.76217
-0.763821
-0.764907
-0.765488
-0.765624
-0.765369
-0.764776
-0.763896
-0.762775
-0.761458
-0.759989
-0.758405
-0.756745
-0.755042
-0.753329
-0.751635
-0.749988
-0.748412
-0.746931
-0.745563
-0.744328
-0.74324
-0.742313
-0.741558
-0.740985
-0.740598
-0.740404
23.1159
22.2318
21.3571
20.493
19.6403
18.8005
17.9744
17.1637
16.3683
15.5889
14.8272
14.0832
13.3569
12.6489
11.9598
11.2901
10.6397
10.0086
9.39688
8.80463
8.23189
7.67866
7.14482
6.63023
6.13468
5.65793
5.19976
4.75987
4.33799
3.93381
3.547
3.17721
2.82407
2.48722
2.16626
1.86078
1.57038
1.29465
1.03316
0.78549
0.551206
0.329879
0.121079
-0.0756238
-0.260659
-0.434454
-0.597432
-0.750012
-0.892611
-1.02564
-1.1495
-1.2646
-1.37131
-1.47004
-1.56116
-1.64503
-1.72202
-1.79248
-1.85676
-1.9152
-1.96811
-2.01583
-2.05865
-2.09689
-2.13083
-2.16074
-2.18692
-2.20962
-2.22909
-2.24557
-2.25932
-2.27055
-2.27948
-2.28632
-2.29128
-2.29453
-2.29628
-2.29668
-2.29592
-2.29414
-2.2915
-2.28814
-2.28419
-2.27978
-2.27503
-2.27005
-2.26494
-2.2598
-2.25472
-2.24978
-2.24505
-2.24061
-2.23651
-2.2328
-2.22954
-2.22676
-2.22449
-2.22277
-2.22161
-2.22103
38.5204
37.0472
35.5891
34.1491
32.7283
31.3291
29.9526
28.6012
27.2758
25.9774
24.708
23.468
22.2577
21.0779
19.9298
18.8138
17.7299
16.6782
15.6588
14.6719
13.7176
12.7957
11.9061
11.0486
10.2228
9.42834
8.66483
7.93181
7.2288
6.55527
5.91069
5.29448
4.70602
4.14468
3.60983
3.10079
2.61688
2.1574
1.72166
1.30894
0.918525
0.549708
0.201766
-0.126019
-0.434361
-0.723971
-0.995556
-1.24981
-1.48744
-1.70912
-1.91552
-2.10731
-2.28515
-2.44967
-2.6015
-2.74127
-2.86956
-2.98698
-3.0941
-3.19147
-3.27965
-3.35916
-3.43053
-3.49424
-3.55079
-3.60065
-3.64427
-3.68209
-3.71453
-3.74201
-3.76491
-3.78363
-3.79851
-3.80991
-3.81816
-3.82359
-3.8265
-3.82718
-3.8259
-3.82294
-3.81854
-3.81293
-3.80635
-3.79901
-3.79109
-3.78279
-3.77428
-3.76571
-3.75725
-3.74901
-3.74114
-3.73373
-3.7269
-3.72072
-3.71528
-3.71065
-3.70688
-3.70401
-3.70208
-3.70111
53.9152
51.8536
49.8127
47.797
45.8083
43.8498
41.9233
40.0318
38.1768
36.3596
34.5827
32.847
31.1529
29.5019
27.8949
26.3328
24.8157
23.3437
21.9169
20.5356
19.1998
17.9095
16.6644
15.4642
14.3084
13.1964
12.1278
11.1018
10.1178
9.17512
8.27293
7.41043
6.58679
5.80113
5.05252
4.34003
3.66272
3.01961
2.40972
1.83206
1.28562
0.769401
0.282402
-0.176383
-0.607955
-1.01331
-1.39343
-1.74931
-2.0819
-2.39218
-2.68107
-2.94951
-3.19842
-3.42869
-3.6412
-3.83683
-4.0164
-4.18074
-4.33067
-4.46696
-4.59038
-4.70167
-4.80155
-4.89073
-4.96988
-5.03966
-5.10072
-5.15365
-5.19906
-5.23752
-5.26958
-5.29577
-5.3166
-5.33256
-5.34411
-5.35171
-5.35578
-5.35672
-5.35494
-5.35079
-5.34463
-5.33679
-5.32758
-5.3173
-5.30622
-5.2946
-5.28268
-5.2707
-5.25885
-5.24732
-5.2363
-5.22593
-5.21637
-5.20772
-5.20011
-5.19363
-5.18835
-5.18433
-5.18163
-5.18027
69.2964
66.6469
64.0242
61.4331
58.877
56.3596
53.8837
51.4525
49.0683
46.7327
44.4489
42.2178
40.0405
37.9185
35.8532
33.8454
31.8954
30.0034
28.1696
26.3942
24.6774
23.019
21.4187
19.876
18.3904
16.9613
15.5877
14.269
13.0043
11.7927
10.6331
9.52457
8.46595
7.45613
6.49395
5.57821
4.70766
3.88108
3.09719
2.35473
1.65239
0.988904
0.362969
-0.226704
-0.781399
-1.3024
-1.79097
-2.24837
-2.67585
-3.07464
-3.44595
-3.79098
-4.1109
-4.40686
-4.68001
-4.93144
-5.16224
-5.37347
-5.56617
-5.74134
-5.89997
-6.04301
-6.17139
-6.28601
-6.38774
-6.47744
-6.5559
-6.62394
-6.68231
-6.73174
-6.77295
-6.80661
-6.83338
-6.85389
-6.86874
-6.8785
-6.88373
-6.88495
-6.88266
-6.87732
-6.86941
-6.85933
-6.84749
-6.83427
-6.82003
-6.8051
-6.78979
-6.77438
-6.75915
-6.74434
-6.73017
-6.71685
-6.70455
-6.69344
-6.68366
-6.67532
-6.66854
-6.66338
-6.6599
-6.65816
84.6604
81.4236
78.2196
75.054
71.9312
68.8557
65.8308
62.8606
59.9477
57.0943
54.304
51.5783
48.9183
46.3258
43.8027
41.3496
38.9672
36.6557
34.4153
32.2463
30.1488
28.1227
26.1676
24.283
22.468
20.7219
19.0438
17.4328
15.8877
14.4074
12.9907
11.6363
10.343
9.1093
7.93379
6.815
5.75145
4.74159
3.7839
2.87682
2.01876
1.20816
0.443446
-0.276968
-0.954651
-1.59116
-2.18806
-2.74688
-3.26914
-3.75635
-4.20999
-4.63151
-5.02237
-5.38395
-5.71766
-6.02483
-6.30681
-6.56488
-6.8003
-7.01431
-7.20811
-7.38287
-7.53971
-7.67974
-7.80403
-7.91361
-8.00948
-8.0926
-8.1639
-8.2243
-8.27464
-8.31577
-8.34847
-8.37353
-8.39167
-8.4036
-8.40999
-8.41148
-8.40867
-8.40216
-8.39249
-8.38018
-8.36571
-8.34957
-8.33217
-8.31392
-8.29522
-8.27639
-8.25779
-8.23969
-8.22238
-8.2061
-8.19108
-8.17751
-8.16556
-8.15537
-8.14708
-8.14078
-8.13654
-8.1344
100.004
96.1802
92.3957
88.6564
84.9677
81.3347
77.7617
74.2531
70.8122
67.4418
64.1458
60.926
57.784
54.7218
51.7413
48.8437
46.0294
43.2989
40.6525
38.0904
35.6129
33.2196
30.9101
28.6839
26.54
24.4774
22.4952
20.5922
18.767
17.0185
15.345
13.7453
12.2175
10.7602
9.37167
8.05012
6.79381
5.60093
4.46968
3.39819
2.38463
1.42712
0.523813
-0.327165
-1.12767
-1.87954
-2.58461
-3.24471
-3.86162
-4.43713
-4.97298
-5.47091
-5.93259
-6.35971
-6.7539
-7.11674
-7.44982
-7.75466
-8.03275
-8.28555
-8.51447
-8.7209
-8.90617
-9.07158
-9.21839
-9.34783
-9.46107
-9.55926
-9.64349
-9.71483
-9.77429
-9.82287
-9.86151
-9.8911
-9.91253
-9.92663
-9.93417
-9.93593
-9.93262
-9.92493
-9.9135
-9.89895
-9.88187
-9.8628
-9.84225
-9.8207
-9.7986
-9.77637
-9.75439
-9.73301
-9.71256
-9.69333
-9.67559
-9.65955
-9.64544
-9.63341
-9.62362
-9.61617
-9.61116
-9.60864
115.322
110.913
106.549
102.237
97.9832
93.7937
89.6733
85.6273
81.6593
77.7726
73.9717
70.2587
66.6354
63.1042
59.6671
56.3256
53.0802
49.9314
46.8796
43.9252
41.0681
38.3082
35.645
33.0778
30.6054
28.2269
25.9411
23.7465
21.6418
19.6254
17.6956
15.8508
14.089
12.4085
10.8072
9.28325
7.83449
6.45889
5.15435
3.91873
2.74991
1.64573
0.604051
-0.377281
-1.30041
-2.16745
-2.98053
-3.74174
-4.45315
-5.11682
-5.73475
-6.30895
-6.84136
-7.3339
-7.78847
-8.2069
-8.591
-8.94253
-9.26322
-9.55474
-9.81873
-10.0568
-10.2704
-10.4612
-10.6305
-10.7797
-10.9103
-11.0236
-11.1207
-11.203
-11.2715
-11.3276
-11.3721
-11.4062
-11.431
-11.4472
-11.4559
-11.4579
-11.4541
-11.4452
-11.4321
-11.4153
-11.3956
-11.3736
-11.3499
-11.325
-11.2996
-11.2739
-11.2486
-11.2239
-11.2003
-11.1782
-11.1577
-11.1392
-11.1229
-11.1091
-11.0978
-11.0892
-11.0834
-11.0805
130.613
125.619
120.676
115.792
110.974
106.23
101.563
96.9804
92.4863
88.0843
83.7794
79.5741
75.4704
71.471
67.5783
63.7937
60.118
56.5517
53.0952
49.749
46.5132
43.3874
40.3711
37.4635
34.6633
31.9695
29.3805
26.895
24.5112
22.2275
20.0418
17.9524
15.957
14.0537
12.2401
10.5141
8.87324
7.31526
5.83775
4.43831
3.11451
1.86394
0.68414
-0.427304
-1.47282
-2.45483
-3.37571
-4.23785
-5.04358
-5.79524
-6.49511
-7.14543
-7.74843
-8.30628
-8.82112
-9.29503
-9.73005
-10.1282
-10.4914
-10.8216
-11.1206
-11.3902
-11.6322
-11.8482
-12.0399
-12.209
-12.3569
-12.4851
-12.5952
-12.6883
-12.766
-12.8294
-12.8799
-12.9186
-12.9465
-12.965
-12.9748
-12.9771
-12.9728
-12.9627
-12.9478
-12.9288
-12.9065
-12.8816
-12.8547
-12.8266
-12.7977
-12.7687
-12.74
-12.7121
-12.6854
-12.6603
-12.6371
-12.6161
-12.5977
-12.582
-12.5692
-12.5595
-12.5529
-12.5496
145.871
140.293
134.773
129.319
123.938
118.639
113.427
108.309
103.29
98.3742
93.5664
88.8698
84.2868
79.8202
75.4727
71.246
67.1408
63.1579
59.2977
55.5607
51.9468
48.4559
45.0873
41.8399
38.7127
35.7041
32.8127
30.0369
27.3746
24.824
22.3831
20.0495
17.8211
15.6954
13.67
11.7423
9.90981
8.16982
6.51971
4.95678
3.47835
2.08168
0.76406
-0.477222
-1.64488
-2.7416
-3.77006
-4.73291
-5.63277
-6.47224
-7.25386
-7.98015
-8.6536
-9.27661
-9.85159
-10.3809
-10.8667
-11.3114
-11.717
-12.0857
-12.4197
-12.7208
-12.991
-13.2323
-13.4464
-13.6352
-13.8004
-13.9436
-14.0665
-14.1706
-14.2573
-14.3282
-14.3845
-14.4277
-14.4589
-14.4795
-14.4905
-14.4931
-14.4882
-14.477
-14.4604
-14.4391
-14.4142
-14.3864
-14.3564
-14.325
-14.2928
-14.2603
-14.2283
-14.1971
-14.1673
-14.1392
-14.1133
-14.0899
-14.0693
-14.0518
-14.0375
-14.0267
-14.0193
-14.0157
161.093
154.934
148.837
142.814
136.872
131.019
125.264
119.612
114.069
108.64
103.33
98.1437
93.0824
88.1497
83.3485
78.6807
74.1471
69.7486
65.4856
61.3586
57.3677
53.5125
49.7923
46.2061
42.7525
39.43
36.2369
33.1713
30.2312
27.4145
24.7188
22.1418
19.6808
17.3333
15.0965
12.9677
10.9439
9.02236
7.20006
5.47404
3.84132
2.29891
0.843792
-0.527022
-1.81652
-3.02769
-4.16347
-5.2268
-6.22057
-7.14763
-8.01082
-8.81291
-9.55663
-10.2447
-10.8796
-11.4641
-12.0007
-12.4917
-12.9397
-13.3469
-13.7157
-14.0482
-14.3467
-14.6131
-14.8496
-15.0581
-15.2405
-15.3987
-15.5344
-15.6493
-15.7451
-15.8233
-15.8856
-15.9333
-15.9678
-15.9905
-16.0026
-16.0055
-16.0001
-15.9877
-15.9693
-15.9459
-15.9184
-15.8877
-15.8546
-15.8198
-15.7842
-15.7484
-15.713
-15.6786
-15.6457
-15.6147
-15.5861
-15.5603
-15.5375
-15.5182
-15.5024
-15.4904
-15.4823
-15.4782
176.275
169.535
162.865
156.273
149.771
143.367
137.069
130.885
124.82
118.879
113.069
107.393
101.855
96.4574
91.2038
86.096
81.1352
76.3221
71.6573
67.1414
62.7743
58.5558
54.485
50.5608
46.7817
43.1461
39.652
36.2975
33.0804
29.9982
27.0485
24.2285
21.5356
18.9669
16.5193
14.1898
11.9753
9.87268
7.87863
5.98994
4.20335
2.51557
0.923315
-0.576692
-1.98773
-3.31304
-4.55586
-5.71941
-6.80683
-7.82127
-8.76581
-9.64349
-10.4573
-11.2102
-11.905
-12.5446
-13.1317
-13.669
-14.1592
-14.6048
-15.0083
-15.3722
-15.6988
-15.9903
-16.2491
-16.4773
-16.6769
-16.85
-16.9984
-17.1242
-17.229
-17.3146
-17.3827
-17.4349
-17.4727
-17.4975
-17.5108
-17.5139
-17.5081
-17.4945
-17.4744
-17.4487
-17.4186
-17.385
-17.3488
-17.3108
-17.2718
-17.2327
-17.1939
-17.1562
-17.1202
-17.0863
-17.055
-17.0268
-17.0019
-16.9807
-16.9634
-16.9503
-16.9414
-16.937
191.414
184.095
176.852
169.694
162.634
155.68
148.841
142.125
135.539
129.088
122.779
116.616
110.602
104.741
99.0365
93.49
88.1032
82.8767
77.8114
72.9076
68.1655
63.5847
59.1643
54.9031
50.7994
46.8515
43.0574
39.4148
35.9214
32.5745
29.3714
26.3093
23.3852
20.5958
17.938
15.4085
13.0038
10.7206
8.55526
6.50437
4.56434
2.73161
1.00261
-0.62622
-2.15844
-3.59757
-4.94713
-6.2106
-7.39141
-8.49297
-9.51863
-10.4717
-11.3554
-12.1729
-12.9274
-13.6219
-14.2595
-14.8429
-15.3752
-15.8591
-16.2973
-16.6924
-17.047
-17.3636
-17.6446
-17.8924
-18.1091
-18.2971
-18.4583
-18.5948
-18.7087
-18.8016
-18.8756
-18.9322
-18.9733
-19.0002
-19.0147
-19.018
-19.0117
-18.997
-18.9751
-18.9473
-18.9146
-18.8781
-18.8387
-18.7975
-18.7552
-18.7126
-18.6706
-18.6296
-18.5905
-18.5537
-18.5197
-18.489
-18.462
-18.439
-18.4203
-18.406
-18.3964
-18.3916
206.505
198.61
190.795
183.073
175.456
167.954
160.576
153.331
146.226
139.266
132.46
125.811
119.323
112.999
106.845
100.861
95.0494
89.4109
83.9462
78.6558
73.5399
68.5979
63.829
59.2318
54.8046
50.5454
46.4522
42.5224
38.7535
35.1427
31.6871
28.3836
25.2289
22.2196
19.3523
16.6233
14.0291
11.5658
9.22978
7.01719
4.9242
2.94697
1.08166
-0.675594
-2.32861
-3.88121
-5.33718
-6.70026
-7.97417
-9.16258
-10.2691
-11.2973
-12.2507
-13.1327
-13.9466
-14.6959
-15.3837
-16.0132
-16.5875
-17.1095
-17.5822
-18.0085
-18.391
-18.7326
-19.0358
-19.3031
-19.5369
-19.7397
-19.9136
-20.0609
-20.1837
-20.284
-20.3638
-20.4249
-20.4692
-20.4983
-20.5138
-20.5175
-20.5106
-20.4948
-20.4712
-20.4411
-20.4058
-20.3665
-20.324
-20.2795
-20.2339
-20.188
-20.1426
-20.0985
-20.0562
-20.0165
-19.9799
-19.9468
-19.9176
-19.8928
-19.8726
-19.8572
-19.8468
-19.8416
221.546
213.075
204.691
196.407
188.236
180.187
172.272
164.499
156.876
149.409
142.107
134.974
128.013
121.23
114.627
108.207
101.972
95.923
90.0603
84.3847
78.8961
73.5942
68.4779
63.5459
58.7962
54.2269
49.8355
45.6195
41.5761
37.7023
33.995
30.4509
27.0664
23.838
20.7618
17.834
15.0508
12.4082
9.90202
7.52828
5.28285
3.16161
1.16044
-0.724801
-2.49822
-4.1639
-5.72591
-7.18827
-8.55496
-9.82993
-11.017
-12.1201
-13.1429
-14.0892
-14.9624
-15.7663
-16.5042
-17.1795
-17.7956
-18.3556
-18.8628
-19.3201
-19.7305
-20.097
-20.4222
-20.709
-20.9599
-21.1774
-21.364
-21.522
-21.6538
-21.7614
-21.847
-21.9125
-21.96
-21.9912
-22.008
-22.0118
-22.0045
-21.9875
-21.9622
-21.9299
-21.8921
-21.8498
-21.8043
-21.7566
-21.7076
-21.6584
-21.6097
-21.5623
-21.517
-21.4744
-21.4351
-21.3996
-21.3683
-21.3417
-21.32
-21.3035
-21.2924
-21.2868
236.532
227.488
218.537
209.693
200.968
192.375
183.925
175.626
167.487
159.516
151.72
144.104
136.673
129.43
122.38
115.527
108.87
102.411
96.1522
90.0927
84.2329
78.5723
73.11
67.8443
62.7734
57.8949
53.2065
48.7053
44.3884
40.2526
36.2946
32.5107
28.8973
25.4504
22.1662
19.0404
16.0689
13.2475
10.5718
8.03751
5.64019
3.37547
1.23893
-0.77383
-2.6672
-4.44555
-6.11322
-7.6745
-9.13364
-10.4949
-11.7623
-12.94
-14.032
-15.0422
-15.9745
-16.8328
-17.6206
-18.3416
-18.9993
-19.5973
-20.1387
-20.627
-21.0652
-21.4564
-21.8036
-22.1098
-22.3776
-22.6099
-22.8091
-22.9778
-23.1185
-23.2334
-23.3248
-23.3948
-23.4454
-23.4788
-23.4966
-23.5008
-23.493
-23.4748
-23.4477
-23.4133
-23.3729
-23.3278
-23.2792
-23.2282
-23.176
-23.1234
-23.0714
-23.0208
-22.9725
-22.927
-22.885
-22.8471
-22.8137
-22.7853
-22.7621
-22.7445
-22.7326
-22.7267
251.46
241.845
232.329
222.927
213.652
204.516
195.532
186.71
178.057
169.583
161.295
153.198
145.298
137.598
130.104
122.817
115.741
108.875
102.22
95.7785
89.5488
83.5311
77.724
72.126
66.735
61.5487
56.5644
51.7791
47.1897
42.793
38.5851
34.5624
30.721
27.0566
23.5651
20.242
17.083
14.0836
11.239
8.54476
5.99615
3.5885
1.31712
-0.822668
-2.83553
-4.72612
-6.49903
-8.15884
-9.71007
-11.1572
-12.5046
-13.7566
-14.9175
-15.9915
-16.9827
-17.8951
-18.7326
-19.4991
-20.1984
-20.834
-21.4097
-21.9287
-22.3946
-22.8105
-23.1797
-23.5052
-23.7899
-24.0368
-24.2486
-24.428
-24.5775
-24.6996
-24.7968
-24.8712
-24.9251
-24.9605
-24.9795
-24.9839
-24.9756
-24.9563
-24.9275
-24.891
-24.848
-24.8
-24.7484
-24.6942
-24.6386
-24.5827
-24.5274
-24.4737
-24.4223
-24.3739
-24.3293
-24.289
-24.2535
-24.2232
-24.1986
-24.1799
-24.1673
-24.1609
266.325
256.142
246.064
236.106
226.282
216.607
207.091
197.747
188.584
179.608
170.83
162.255
153.888
145.733
137.795
130.078
122.583
115.311
108.263
101.441
94.8427
88.4692
82.3188
76.3899
70.6802
65.1873
59.9083
54.8401
49.9795
45.3227
40.8661
36.6057
32.5371
28.6561
24.9582
21.4387
18.0929
14.9161
11.9034
9.04989
6.35062
3.80064
1.39498
-0.871303
-3.00316
-5.00551
-6.88323
-8.64117
-10.2841
-11.8168
-13.2438
-14.5699
-15.7994
-16.9369
-17.9867
-18.953
-19.84
-20.6519
-21.3924
-22.0657
-22.6753
-23.2251
-23.7185
-24.159
-24.55
-24.8947
-25.1963
-25.4578
-25.6821
-25.8721
-26.0304
-26.1598
-26.2627
-26.3415
-26.3986
-26.4361
-26.4562
-26.4609
-26.4521
-26.4316
-26.4012
-26.3624
-26.3169
-26.2661
-26.2114
-26.154
-26.0952
-26.036
-25.9774
-25.9205
-25.866
-25.8148
-25.7676
-25.7249
-25.6873
-25.6552
-25.6292
-25.6093
-25.596
-25.5893
281.125
270.376
259.738
249.226
238.857
228.644
218.599
208.736
199.063
189.589
180.323
171.272
162.439
153.831
145.453
137.307
129.395
121.719
114.28
107.078
100.113
93.3855
86.8934
80.635
74.608
68.8098
63.2374
57.8876
52.7568
47.8413
43.1371
38.6399
34.3452
30.2485
26.3451
22.63
19.0984
15.745
12.5649
9.5528
6.70353
4.01184
1.4725
-0.919723
-3.17005
-5.28367
-7.26574
-9.12137
-10.8556
-12.4734
-13.9798
-15.3795
-16.6774
-17.8781
-18.9862
-20.0062
-20.9425
-21.7995
-22.5812
-23.2919
-23.9354
-24.5157
-25.0365
-25.5015
-25.9143
-26.2781
-26.5965
-26.8725
-27.1093
-27.3098
-27.477
-27.6135
-27.7221
-27.8053
-27.8656
-27.9052
-27.9264
-27.9313
-27.922
-27.9004
-27.8683
-27.8274
-27.7794
-27.7258
-27.668
-27.6074
-27.5453
-27.4828
-27.421
-27.3609
-27.3034
-27.2494
-27.1995
-27.1544
-27.1147
-27.0809
-27.0534
-27.0325
-27.0184
-27.0113
295.855
284.544
273.348
262.285
251.372
240.624
230.054
219.674
209.494
199.523
189.772
180.246
170.951
161.892
153.074
144.501
136.175
128.097
120.268
112.688
105.359
98.2788
91.4465
84.8601
78.5173
72.4153
66.5509
60.9208
55.5212
50.3482
45.3974
40.6645
36.1448
31.8335
27.7255
23.8158
20.0991
16.57
13.2233
10.0533
7.05478
4.22205
1.54966
-0.967917
-3.33616
-5.56053
-7.64645
-9.59931
-11.4244
-13.127
-14.7123
-16.1854
-17.5513
-18.8149
-19.981
-21.0545
-22.0399
-22.9417
-23.7645
-24.5123
-25.1896
-25.8003
-26.3484
-26.8378
-27.2721
-27.6551
-27.9901
-28.2805
-28.5297
-28.7408
-28.9167
-29.0604
-29.1747
-29.2623
-29.3257
-29.3674
-29.3897
-29.3949
-29.3851
-29.3624
-29.3285
-29.2855
-29.235
-29.1785
-29.1177
-29.054
-28.9886
-28.9228
-28.8578
-28.7946
-28.7341
-28.6772
-28.6247
-28.5773
-28.5355
-28.4999
-28.4709
-28.4489
-28.4341
-28.4266
310.513
298.641
286.89
275.279
263.826
252.545
241.451
230.557
219.873
209.408
199.174
189.176
179.42
169.912
160.658
151.66
142.921
134.443
126.226
118.271
110.579
103.148
95.977
89.0643
82.4073
76.0029
69.8481
63.939
58.2719
52.8425
47.6465
42.6791
37.9355
33.4106
29.0991
24.9957
21.0948
17.391
13.8784
10.5514
7.40429
4.43122
1.62643
-1.01587
-3.50144
-5.83601
-8.02528
-10.0749
-11.9904
-13.7774
-15.4412
-16.9873
-18.4208
-19.747
-20.971
-22.0976
-23.1318
-24.0783
-24.9418
-25.7268
-26.4376
-27.0785
-27.6538
-28.1674
-28.6233
-29.0252
-29.3768
-29.6816
-29.9432
-30.1647
-30.3493
-30.5002
-30.6201
-30.712
-30.7786
-30.8223
-30.8457
-30.8512
-30.8409
-30.817
-30.7816
-30.7364
-30.6834
-30.6241
-30.5603
-30.4934
-30.4248
-30.3558
-30.2875
-30.2211
-30.1576
-30.0979
-30.0428
-29.9931
-29.9492
-29.9119
-29.8815
-29.8583
-29.8428
-29.835
325.094
312.664
300.362
288.206
276.215
264.404
252.789
241.383
230.197
219.241
208.526
198.059
187.845
177.891
168.202
158.782
149.633
140.756
132.153
123.825
115.771
107.991
100.484
93.2466
86.2769
79.5718
73.1279
66.9414
61.0082
55.3239
49.8839
44.6832
39.7169
34.9795
30.4655
26.1694
22.0854
18.2076
14.5301
11.0469
7.75197
4.6393
1.7028
-1.06358
-3.66586
-6.11006
-8.40213
-10.548
-12.5535
-14.4243
-16.1663
-17.7849
-19.2858
-20.6743
-21.9557
-23.1352
-24.218
-25.209
-26.113
-26.9348
-27.679
-28.3501
-28.9523
-29.4901
-29.9673
-30.3881
-30.7562
-31.0754
-31.3492
-31.5811
-31.7744
-31.9324
-32.058
-32.1542
-32.2238
-32.2697
-32.2942
-32.2999
-32.2891
-32.2641
-32.227
-32.1797
-32.1242
-32.0622
-31.9953
-31.9253
-31.8535
-31.7812
-31.7097
-31.6402
-31.5738
-31.5113
-31.4536
-31.4015
-31.3556
-31.3165
-31.2846
-31.2604
-31.2441
-31.2359
339.594
326.61
313.759
301.061
288.535
276.198
264.065
252.15
240.465
229.021
217.828
206.893
196.224
185.826
175.704
165.864
156.307
147.035
138.048
129.348
120.935
112.808
104.966
97.4058
90.1253
83.1211
76.3898
69.9273
63.7294
57.7916
52.1089
46.6763
41.4884
36.5397
31.8244
27.3367
23.0705
19.0197
15.1782
11.5396
8.09774
4.84623
1.77875
-1.11102
-3.82938
-6.3826
-8.7769
-11.0185
-13.1134
-15.0677
-16.8874
-18.5782
-20.146
-21.5964
-22.935
-24.1672
-25.2983
-26.3334
-27.2778
-28.1362
-28.9136
-29.6146
-30.2437
-30.8054
-31.304
-31.7435
-32.1281
-32.4615
-32.7475
-32.9898
-33.1917
-33.3567
-33.4879
-33.5884
-33.6612
-33.709
-33.7346
-33.7406
-33.7294
-33.7033
-33.6644
-33.6151
-33.557
-33.4923
-33.4225
-33.3493
-33.2743
-33.1988
-33.1241
-33.0515
-32.9821
-32.9168
-32.8565
-32.8021
-32.7542
-32.7133
-32.6801
-32.6548
-32.6378
-32.6292
354.011
340.476
327.079
313.842
300.784
287.923
275.275
262.855
250.674
238.743
227.075
215.677
204.554
193.715
183.164
172.906
162.943
153.277
143.909
134.839
126.069
117.597
109.422
101.541
93.9514
86.6499
79.6328
72.8959
66.4349
60.245
54.3211
48.6579
43.2497
38.0909
33.1755
28.4972
24.0499
19.8272
15.8225
12.0295
8.44151
5.05196
1.85426
-1.15819
-3.99195
-6.65356
-9.14951
-11.4862
-13.6701
-15.7074
-17.6043
-19.3669
-21.0013
-22.5133
-23.9087
-25.1932
-26.3722
-27.4514
-28.4358
-29.3307
-30.1411
-30.8718
-31.5277
-32.1132
-32.633
-33.0912
-33.492
-33.8396
-34.1378
-34.3903
-34.6008
-34.7728
-34.9096
-35.0143
-35.0902
-35.1401
-35.1668
-35.173
-35.1613
-35.1341
-35.0936
-35.0421
-34.9816
-34.9141
-34.8414
-34.7651
-34.6869
-34.6082
-34.5303
-34.4547
-34.3823
-34.3142
-34.2514
-34.1947
-34.1447
-34.1021
-34.0674
-34.0411
-34.0233
-34.0144
368.341
354.258
340.318
326.546
312.959
299.578
286.418
273.494
260.82
248.407
236.266
224.407
212.834
201.556
190.578
179.904
169.538
159.481
149.734
140.297
131.172
122.357
113.851
105.651
97.7543
90.1572
82.8561
75.8466
69.124
62.6836
56.5199
50.6274
45.0004
39.6328
34.5183
29.6507
25.0234
20.6297
16.463
12.5164
8.7832
5.25645
1.92931
-1.20507
-4.15353
-6.92288
-9.51987
-11.9512
-14.2234
-16.3432
-18.3169
-20.1509
-21.8514
-23.4246
-24.8765
-26.2129
-27.4397
-28.5625
-29.5868
-30.5179
-31.3611
-32.1215
-32.8038
-33.4131
-33.9539
-34.4306
-34.8477
-35.2094
-35.5196
-35.7824
-36.0014
-36.1803
-36.3226
-36.4316
-36.5106
-36.5625
-36.5903
-36.5967
-36.5845
-36.5562
-36.5141
-36.4605
-36.3976
-36.3274
-36.2517
-36.1723
-36.0909
-36.009
-35.9281
-35.8493
-35.774
-35.7032
-35.6378
-35.5788
-35.5268
-35.4825
-35.4464
-35.419
-35.4005
-35.3912
382.58
367.952
353.474
339.169
325.057
311.158
297.489
284.066
270.903
258.009
245.4
233.081
221.061
209.347
197.945
186.859
176.092
165.646
155.522
145.721
136.243
127.087
118.252
109.735
101.533
93.6424
86.059
78.7785
71.7961
65.1067
58.7047
52.5845
46.7399
41.1648
35.8527
30.7969
25.9907
21.4272
17.0994
13.0003
9.12273
5.45964
2.00389
-1.25165
-4.3141
-7.1905
-9.88787
-12.4132
-14.7733
-16.975
-19.0249
-20.9298
-22.6961
-24.3301
-25.8381
-27.2262
-28.5004
-29.6667
-30.7305
-31.6976
-32.5734
-33.3631
-34.0719
-34.7047
-35.2664
-35.7616
-36.1948
-36.5704
-36.8926
-37.1656
-37.3931
-37.5789
-37.7267
-37.8399
-37.9219
-37.9758
-38.0047
-38.0114
-37.9988
-37.9693
-37.9256
-37.87
-37.8046
-37.7316
-37.653
-37.5706
-37.486
-37.401
-37.3169
-37.2351
-37.1569
-37.0833
-37.0154
-36.9541
-36.9001
-36.8541
-36.8166
-36.7881
-36.769
-36.7593
396.724
381.555
366.542
351.708
337.075
322.662
308.488
294.569
280.918
267.548
254.472
241.698
229.234
217.087
205.263
193.767
182.602
171.77
161.272
151.108
141.28
131.786
122.624
113.792
105.287
97.1044
89.2406
81.691
74.4504
67.5137
60.8751
54.5285
48.4679
42.6867
37.1782
31.9355
26.9516
22.2194
17.7316
13.4809
9.46
5.66149
2.07797
-1.29793
-4.47359
-7.45634
-10.2534
-12.8721
-15.3194
-17.6025
-19.7283
-21.7036
-23.5352
-25.2296
-26.7933
-28.2328
-29.5541
-30.7635
-31.8667
-32.8695
-33.7777
-34.5966
-35.3316
-35.9878
-36.5702
-37.0837
-37.5329
-37.9224
-38.2566
-38.5396
-38.7755
-38.9682
-39.1215
-39.2389
-39.3239
-39.3798
-39.4098
-39.4167
-39.4036
-39.3731
-39.3277
-39.27
-39.2023
-39.1266
-39.0451
-38.9596
-38.8719
-38.7837
-38.6965
-38.6117
-38.5306
-38.4543
-38.3839
-38.3203
-38.2643
-38.2166
-38.1777
-38.1482
-38.1283
-38.1183
410.77
395.065
379.52
364.16
349.009
334.086
319.41
304.998
290.864
277.021
263.482
250.256
237.35
224.773
212.53
200.628
189.067
177.851
166.982
156.458
146.282
136.452
126.966
117.821
109.015
100.542
92.4003
84.5833
77.0864
69.9041
63.0304
56.4592
50.184
44.1981
38.4945
33.0662
27.9058
23.0061
18.3594
13.9582
9.79493
5.86194
2.15154
-1.34389
-4.63199
-7.72034
-10.6165
-13.3278
-15.8618
-18.2258
-20.4268
-22.472
-24.3684
-26.1228
-27.742
-29.2324
-30.6005
-31.8527
-32.9949
-34.0333
-34.9736
-35.8215
-36.5825
-37.262
-37.865
-38.3967
-38.8618
-39.2651
-39.6111
-39.9041
-40.1484
-40.3479
-40.5066
-40.6282
-40.7162
-40.7741
-40.8051
-40.8123
-40.7987
-40.7671
-40.7202
-40.6604
-40.5903
-40.5119
-40.4275
-40.339
-40.2482
-40.1569
-40.0666
-39.9788
-39.8948
-39.8158
-39.7429
-39.6771
-39.6191
-39.5697
-39.5295
-39.4989
-39.4783
-39.4679
424.715
408.476
392.404
376.523
360.857
345.428
330.253
315.352
300.739
286.425
272.427
258.752
245.408
232.404
219.745
207.439
195.486
183.889
172.65
161.77
151.248
141.084
131.276
121.821
112.716
103.956
95.5371
87.4548
79.7034
72.2772
65.1702
58.3759
51.8876
45.6985
39.8013
34.1887
28.8532
23.7871
18.9826
14.4321
10.1275
6.06094
2.22458
-1.38951
-4.78924
-7.98243
-10.9769
-13.7803
-16.4003
-18.8445
-21.1203
-23.2349
-25.1957
-27.0097
-28.6838
-30.2248
-31.6394
-32.934
-34.1151
-35.1887
-36.1609
-37.0376
-37.8244
-38.527
-39.1505
-39.7002
-40.1811
-40.5981
-40.9558
-41.2588
-41.5114
-41.7177
-41.8818
-42.0075
-42.0985
-42.1583
-42.1904
-42.1978
-42.1838
-42.1511
-42.1026
-42.0408
-41.9682
-41.8872
-41.7999
-41.7084
-41.6146
-41.5202
-41.4268
-41.336
-41.2492
-41.1675
-41.0922
-41.0241
-40.9641
-40.913
-40.8714
-40.8398
-40.8185
-40.8078
438.555
421.788
405.191
388.793
372.617
356.684
341.015
325.629
310.539
295.759
281.304
267.184
253.405
239.977
226.906
214.198
201.856
189.882
178.276
167.042
156.177
145.682
135.554
125.791
116.389
107.343
98.6504
90.3047
82.3007
74.6325
67.2939
60.2782
53.5785
47.1877
41.0983
35.3028
29.7934
24.5622
19.6012
14.9023
10.4575
6.25844
2.29707
-1.4348
-4.94531
-8.24256
-11.3346
-14.2294
-16.9348
-19.4586
-21.8085
-23.9921
-26.0168
-27.8898
-29.6185
-31.2097
-32.6704
-34.0072
-35.2268
-36.3354
-37.3393
-38.2446
-39.057
-39.7824
-40.4263
-40.9939
-41.4905
-41.9211
-42.2905
-42.6033
-42.8641
-43.0771
-43.2466
-43.3764
-43.4703
-43.5321
-43.5652
-43.5729
-43.5584
-43.5247
-43.4746
-43.4108
-43.3359
-43.2522
-43.1621
-43.0676
-42.9707
-42.8732
-42.7768
-42.683
-42.5934
-42.509
-42.4312
-42.3609
-42.299
-42.2463
-42.2033
-42.1707
-42.1487
-42.1376
452.287
434.994
417.879
400.967
384.284
367.853
351.693
335.825
320.262
305.02
290.113
275.55
261.34
247.491
234.011
220.905
208.177
195.827
183.859
172.272
161.067
150.243
139.798
129.73
120.033
110.704
101.739
93.1323
84.8777
76.9694
69.401
62.1656
55.2561
48.6652
42.3852
36.4082
30.7263
25.3313
20.215
15.369
10.7849
6.4544
2.369
-1.47972
-5.10016
-8.50065
-11.6895
-14.6749
-17.465
-20.0679
-22.4914
-24.7433
-26.8314
-28.7631
-30.5459
-32.187
-33.6934
-35.0721
-36.3298
-37.4731
-38.5085
-39.4421
-40.28
-41.0281
-41.6921
-42.2775
-42.7897
-43.2337
-43.6147
-43.9373
-44.2062
-44.426
-44.6007
-44.7346
-44.8315
-44.8952
-44.9293
-44.9373
-44.9223
-44.8875
-44.8358
-44.7701
-44.6928
-44.6065
-44.5136
-44.4161
-44.3162
-44.2156
-44.1162
-44.0195
-43.9271
-43.8401
-43.7598
-43.6873
-43.6235
-43.5691
-43.5248
-43.4911
-43.4684
-43.457
465.908
448.094
430.463
413.042
395.856
378.931
362.284
345.938
329.907
314.206
298.849
283.848
269.21
254.944
241.058
227.558
214.446
201.724
189.395
177.46
165.918
154.768
144.008
133.636
123.648
114.038
104.803
95.9369
87.4337
79.2873
71.4909
64.0377
56.9201
50.1307
43.6616
37.5046
31.6516
26.0941
20.8237
15.8318
11.1097
6.64877
2.44034
-1.52429
-5.25375
-8.75664
-12.0415
-15.1168
-17.991
-20.6722
-23.1687
-25.4885
-27.6394
-29.6293
-31.4658
-33.1563
-34.708
-36.1282
-37.4238
-38.6016
-39.6681
-40.6298
-41.493
-42.2636
-42.9476
-43.5507
-44.0782
-44.5357
-44.9281
-45.2605
-45.5375
-45.7638
-45.9438
-46.0817
-46.1816
-46.2472
-46.2824
-46.2905
-46.2751
-46.2393
-46.186
-46.1183
-46.0387
-45.9498
-45.8541
-45.7537
-45.6507
-45.5471
-45.4447
-45.3452
-45.2499
-45.1603
-45.0776
-45.0029
-44.9372
-44.8811
-44.8355
-44.8008
-44.7775
-44.7657
479.413
461.083
442.941
425.015
407.331
389.915
372.786
355.966
339.47
323.314
307.512
292.076
277.014
262.334
248.046
234.154
220.662
207.572
194.886
182.604
170.727
159.254
148.183
137.51
127.232
117.344
107.841
98.7179
89.9682
81.5856
73.5633
65.8939
58.5701
51.5839
44.9272
38.5918
32.5691
26.8505
21.4273
16.2907
11.4317
6.8415
2.51107
-1.56847
-5.40604
-9.01048
-12.3906
-15.555
-18.5125
-21.2714
-23.8403
-26.2273
-28.4406
-30.4882
-32.3779
-34.1174
-35.7141
-37.1755
-38.5087
-39.7206
-40.818
-41.8076
-42.6958
-43.4887
-44.1926
-44.8131
-45.356
-45.8266
-46.2304
-46.5724
-46.8575
-47.0904
-47.2756
-47.4175
-47.5202
-47.5878
-47.624
-47.6324
-47.6165
-47.5796
-47.5249
-47.4551
-47.3732
-47.2818
-47.1833
-47.08
-46.974
-46.8674
-46.7621
-46.6596
-46.5616
-46.4694
-46.3843
-46.3075
-46.2398
-46.1821
-46.1352
-46.0995
-46.0754
-46.0634
492.8
473.959
455.309
436.883
418.706
400.803
383.196
365.906
348.949
332.342
316.099
300.232
284.749
269.66
254.972
240.693
226.824
213.368
200.328
187.703
175.495
163.701
152.321
141.35
130.785
120.621
110.852
101.474
92.4804
83.8638
75.6174
67.734
60.2056
53.0243
46.1818
39.6694
33.4786
27.6003
22.0257
16.7456
11.751
7.03254
2.58119
-1.61227
-5.557
-9.26209
-12.7366
-15.9894
-19.0294
-21.8654
-24.506
-26.9597
-29.2348
-31.3396
-33.282
-35.0701
-36.7114
-38.2136
-39.584
-40.8297
-41.9578
-42.975
-43.888
-44.7031
-45.4266
-46.0644
-46.6225
-47.1063
-47.5214
-47.8729
-48.166
-48.4053
-48.5957
-48.7416
-48.8472
-48.9166
-48.9538
-48.9625
-48.9462
-48.9082
-48.8519
-48.7803
-48.6961
-48.6021
-48.5008
-48.3946
-48.2857
-48.1762
-48.0679
-47.9625
-47.8618
-47.767
-47.6795
-47.6005
-47.531
-47.4717
-47.4234
-47.3867
-47.362
-47.3496
506.066
486.717
467.566
448.643
429.977
411.592
393.511
375.756
358.343
341.288
324.608
308.314
292.414
276.919
261.836
247.172
232.93
219.112
205.72
192.756
180.219
168.108
156.421
145.155
134.305
123.868