/*--------------------------------*- C++ -*----------------------------------*\
| =========                 |                                                 |
| \\      /  F ield         | OpenFOAM: The Open Source CFD Toolbox           |
|  \\    /   O peration     | Version:  2406                                  |
|   \\  /    A nd           | Website:  www.openfoam.com                      |
|    \\/     M anipulation  |                                                 |
\*---------------------------------------------------------------------------*/
FoamFile
{
    version     2.0;
    format      ascii;
    arch        "LSB;label=32;scalar=64";
    class       volScalarField;
    location    "185";
    object      T;
}
// * * * * * * * * * * * * * * * * * * * * * * * * * * * * * * * * * * * * * //

dimensions      [0 0 0 1 0 0 0];

internalField   nonuniform List<scalar> 
20000
(
299.608
299.627
299.646
299.665
299.685
299.705
299.724
299.744
299.763
299.782
299.801
299.819
299.836
299.853
299.87
299.885
299.901
299.915
299.929
299.942
299.954
299.966
299.977
299.987
299.997
300.006
300.014
300.022
300.029
300.035
300.041
300.047
300.051
300.056
300.059
300.063
300.066
300.068
300.07
300.072
300.073
300.074
300.075
300.076
300.076
300.076
300.075
300.075
300.074
300.074
300.073
300.072
300.07
300.069
300.068
300.066
300.064
300.063
300.061
300.059
300.058
300.056
300.054
300.052
300.05
300.049
300.047
300.045
300.043
300.041
300.04
300.038
300.036
300.035
300.033
300.031
300.03
300.028
300.027
300.025
300.024
300.022
300.021
300.019
300.018
300.017
300.016
300.014
300.013
300.012
300.011
300.009
300.008
300.007
300.006
300.005
300.004
300.003
300.002
300.001
298.825
298.881
298.938
298.996
299.055
299.114
299.173
299.231
299.289
299.346
299.402
299.456
299.509
299.56
299.609
299.656
299.702
299.745
299.787
299.826
299.863
299.898
299.931
299.962
299.991
300.018
300.043
300.066
300.087
300.106
300.124
300.14
300.154
300.167
300.178
300.188
300.197
300.204
300.211
300.216
300.22
300.223
300.225
300.227
300.227
300.227
300.226
300.225
300.223
300.221
300.218
300.215
300.211
300.207
300.203
300.198
300.193
300.189
300.183
300.178
300.173
300.168
300.162
300.157
300.151
300.146
300.14
300.135
300.13
300.124
300.119
300.114
300.109
300.104
300.099
300.094
300.089
300.084
300.08
300.075
300.071
300.067
300.063
300.058
300.054
300.05
300.047
300.043
300.039
300.035
300.032
300.028
300.025
300.022
300.018
300.015
300.011
300.008
300.005
300.002
298.042
298.135
298.23
298.327
298.425
298.523
298.622
298.719
298.815
298.91
299.003
299.093
299.181
299.266
299.348
299.427
299.503
299.575
299.644
299.71
299.772
299.83
299.885
299.936
299.985
300.029
300.071
300.109
300.144
300.177
300.206
300.233
300.257
300.278
300.297
300.314
300.328
300.34
300.351
300.359
300.366
300.372
300.375
300.378
300.379
300.379
300.377
300.375
300.372
300.368
300.363
300.358
300.351
300.345
300.338
300.33
300.322
300.314
300.306
300.297
300.288
300.279
300.27
300.261
300.252
300.243
300.234
300.225
300.216
300.207
300.198
300.19
300.181
300.173
300.165
300.156
300.149
300.141
300.133
300.126
300.118
300.111
300.104
300.097
300.091
300.084
300.078
300.071
300.065
300.059
300.053
300.047
300.042
300.036
300.03
300.025
300.019
300.014
300.008
300.003
297.26
297.389
297.523
297.658
297.795
297.933
298.071
298.207
298.342
298.475
298.604
298.731
298.854
298.973
299.088
299.199
299.305
299.406
299.502
299.594
299.68
299.762
299.839
299.911
299.978
300.041
300.099
300.153
300.202
300.247
300.288
300.326
300.359
300.389
300.416
300.439
300.459
300.476
300.491
300.503
300.513
300.52
300.525
300.529
300.53
300.53
300.528
300.525
300.52
300.515
300.508
300.5
300.492
300.483
300.473
300.462
300.451
300.44
300.428
300.416
300.404
300.391
300.378
300.366
300.353
300.34
300.328
300.315
300.302
300.29
300.278
300.266
300.254
300.242
300.23
300.219
300.208
300.197
300.186
300.176
300.166
300.156
300.146
300.136
300.127
300.118
300.109
300.1
300.091
300.083
300.074
300.066
300.058
300.05
300.042
300.034
300.027
300.019
300.011
300.004
296.478
296.645
296.816
296.99
297.167
297.344
297.52
297.696
297.869
298.039
298.206
298.369
298.527
298.68
298.828
298.97
299.106
299.236
299.36
299.478
299.589
299.694
299.793
299.886
299.972
300.053
300.127
300.196
300.26
300.318
300.371
300.418
300.462
300.5
300.534
300.564
300.59
300.612
300.631
300.647
300.659
300.668
300.675
300.679
300.681
300.681
300.679
300.675
300.669
300.662
300.653
300.643
300.632
300.62
300.608
300.594
300.58
300.565
300.55
300.535
300.519
300.503
300.486
300.47
300.454
300.437
300.421
300.405
300.389
300.373
300.357
300.341
300.326
300.311
300.296
300.281
300.267
300.253
300.239
300.226
300.213
300.2
300.187
300.175
300.163
300.151
300.14
300.128
300.117
300.106
300.096
300.085
300.075
300.064
300.054
300.044
300.034
300.025
300.015
300.005
295.697
295.901
296.11
296.323
296.538
296.755
296.971
297.185
297.397
297.605
297.809
298.007
298.201
298.388
298.568
298.742
298.908
299.067
299.218
299.362
299.498
299.627
299.747
299.86
299.966
300.064
300.156
300.24
300.317
300.388
300.453
300.511
300.564
300.611
300.653
300.689
300.721
300.748
300.771
300.79
300.805
300.817
300.825
300.83
300.832
300.832
300.829
300.824
300.817
300.808
300.798
300.786
300.773
300.758
300.742
300.726
300.709
300.691
300.672
300.653
300.634
300.614
300.594
300.574
300.554
300.534
300.514
300.494
300.475
300.455
300.436
300.417
300.398
300.38
300.362
300.344
300.326
300.309
300.293
300.276
300.26
300.244
300.229
300.214
300.199
300.185
300.171
300.157
300.143
300.13
300.117
300.104
300.091
300.079
300.066
300.054
300.042
300.03
300.018
300.006
294.917
295.158
295.405
295.657
295.911
296.166
296.421
296.675
296.925
297.171
297.411
297.646
297.874
298.095
298.309
298.514
298.71
298.898
299.077
299.246
299.407
299.559
299.701
299.835
299.96
300.076
300.184
300.283
300.375
300.459
300.535
300.604
300.666
300.722
300.771
300.814
300.852
300.884
300.911
300.933
300.951
300.965
300.974
300.98
300.983
300.983
300.98
300.974
300.965
300.955
300.943
300.928
300.913
300.895
300.877
300.857
300.837
300.816
300.794
300.771
300.749
300.725
300.702
300.678
300.655
300.631
300.608
300.584
300.561
300.538
300.515
300.493
300.47
300.449
300.427
300.406
300.386
300.365
300.346
300.326
300.307
300.289
300.271
300.253
300.235
300.218
300.202
300.185
300.169
300.154
300.138
300.123
300.108
300.093
300.078
300.064
300.05
300.035
300.021
300.007
294.139
294.416
294.701
294.991
295.285
295.579
295.873
296.165
296.454
296.737
297.015
297.286
297.549
297.804
298.049
298.286
298.512
298.729
298.935
299.131
299.316
299.491
299.656
299.81
299.954
300.088
300.212
300.327
300.432
300.529
300.617
300.696
300.768
300.832
300.889
300.939
300.982
301.019
301.05
301.076
301.097
301.112
301.124
301.131
301.134
301.133
301.13
301.123
301.113
301.101
301.087
301.071
301.052
301.032
301.011
300.989
300.965
300.941
300.915
300.89
300.863
300.836
300.809
300.782
300.755
300.728
300.701
300.674
300.647
300.62
300.594
300.568
300.543
300.517
300.493
300.468
300.445
300.421
300.399
300.376
300.354
300.333
300.312
300.291
300.271
300.252
300.233
300.214
300.195
300.177
300.159
300.142
300.124
300.107
300.09
300.074
300.057
300.041
300.024
300.008
293.362
293.676
293.998
294.327
294.659
294.993
295.326
295.657
295.983
296.305
296.619
296.926
297.224
297.512
297.791
298.059
298.315
298.56
298.794
299.016
299.226
299.424
299.61
299.785
299.948
300.099
300.24
300.37
300.49
300.599
300.699
300.789
300.87
300.942
301.007
301.063
301.112
301.154
301.19
301.219
301.242
301.26
301.273
301.281
301.284
301.284
301.279
301.272
301.261
301.247
301.231
301.212
301.192
301.169
301.145
301.12
301.093
301.065
301.037
301.008
300.978
300.947
300.917
300.886
300.855
300.824
300.794
300.763
300.733
300.702
300.673
300.643
300.614
300.586
300.558
300.531
300.504
300.477
300.451
300.426
300.401
300.377
300.353
300.33
300.307
300.285
300.263
300.242
300.221
300.2
300.18
300.16
300.141
300.122
300.102
300.084
300.065
300.046
300.028
300.009
292.586
292.937
293.297
293.664
294.036
294.408
294.78
295.149
295.514
295.873
296.224
296.567
296.9
297.222
297.533
297.832
298.118
298.392
298.653
298.901
299.135
299.357
299.565
299.759
299.942
300.111
300.268
300.413
300.547
300.669
300.78
300.881
300.971
301.053
301.124
301.187
301.242
301.289
301.329
301.361
301.387
301.407
301.421
301.43
301.434
301.434
301.429
301.42
301.408
301.393
301.375
301.354
301.331
301.306
301.279
301.251
301.221
301.19
301.158
301.125
301.092
301.058
301.024
300.99
300.955
300.921
300.886
300.852
300.818
300.785
300.751
300.719
300.686
300.654
300.623
300.593
300.562
300.533
300.504
300.476
300.448
300.421
300.395
300.369
300.343
300.318
300.294
300.27
300.247
300.224
300.201
300.179
300.157
300.136
300.114
300.093
300.072
300.052
300.031
300.01
291.813
292.2
292.598
293.003
293.413
293.825
294.235
294.643
295.046
295.442
295.83
296.208
296.576
296.932
297.275
297.606
297.922
298.225
298.513
298.786
299.045
299.289
299.519
299.734
299.936
300.123
300.296
300.456
300.604
300.739
300.862
300.973
301.073
301.162
301.242
301.311
301.372
301.424
301.467
301.503
301.532
301.554
301.57
301.579
301.584
301.583
301.578
301.568
301.555
301.538
301.518
301.495
301.47
301.442
301.413
301.381
301.348
301.314
301.279
301.243
301.206
301.168
301.131
301.093
301.055
301.017
300.979
300.941
300.903
300.866
300.83
300.794
300.758
300.723
300.688
300.654
300.621
300.589
300.557
300.525
300.495
300.465
300.436
300.407
300.379
300.352
300.325
300.298
300.273
300.247
300.222
300.198
300.174
300.15
300.126
300.103
300.08
300.057
300.034
300.011
291.041
291.465
291.9
292.344
292.792
293.243
293.692
294.138
294.579
295.013
295.437
295.851
296.253
296.643
297.019
297.38
297.726
298.057
298.372
298.672
298.955
299.222
299.474
299.709
299.929
300.134
300.324
300.499
300.661
300.808
300.943
301.064
301.174
301.272
301.359
301.435
301.501
301.558
301.606
301.645
301.676
301.7
301.718
301.728
301.733
301.732
301.727
301.716
301.702
301.683
301.661
301.636
301.608
301.578
301.546
301.511
301.475
301.438
301.399
301.36
301.319
301.279
301.237
301.196
301.154
301.112
301.071
301.03
300.989
300.948
300.908
300.868
300.829
300.791
300.753
300.716
300.68
300.644
300.609
300.575
300.542
300.509
300.477
300.445
300.415
300.385
300.355
300.327
300.298
300.271
300.243
300.217
300.19
300.164
300.138
300.113
300.087
300.062
300.037
300.012
290.272
290.732
291.205
291.686
292.173
292.662
293.15
293.635
294.114
294.584
295.045
295.495
295.932
296.354
296.762
297.155
297.531
297.89
298.233
298.558
298.865
299.156
299.429
299.684
299.923
300.146
300.352
300.542
300.717
300.878
301.024
301.156
301.275
301.381
301.475
301.558
301.63
301.692
301.743
301.786
301.82
301.846
301.865
301.877
301.882
301.881
301.875
301.864
301.848
301.828
301.804
301.777
301.747
301.714
301.678
301.641
301.602
301.561
301.519
301.477
301.433
301.388
301.344
301.298
301.253
301.208
301.163
301.118
301.074
301.029
300.986
300.943
300.9
300.859
300.818
300.778
300.738
300.699
300.661
300.624
300.588
300.553
300.518
300.484
300.45
300.418
300.386
300.355
300.324
300.294
300.264
300.235
300.206
300.178
300.15
300.122
300.095
300.068
300.041
300.014
289.505
290.001
290.511
291.031
291.556
292.084
292.61
293.133
293.65
294.157
294.655
295.14
295.611
296.067
296.507
296.931
297.336
297.724
298.093
298.444
298.776
299.089
299.384
299.66
299.917
300.157
300.38
300.585
300.774
300.947
301.104
301.247
301.375
301.49
301.592
301.681
301.759
301.825
301.881
301.927
301.964
301.992
302.012
302.025
302.03
302.03
302.023
302.011
301.994
301.972
301.946
301.917
301.884
301.849
301.811
301.771
301.728
301.684
301.639
301.593
301.546
301.498
301.45
301.401
301.352
301.303
301.255
301.206
301.158
301.111
301.064
301.017
300.971
300.926
300.882
300.839
300.796
300.755
300.714
300.674
300.634
300.596
300.559
300.522
300.486
300.451
300.416
300.383
300.349
300.317
300.285
300.254
300.223
300.192
300.162
300.132
300.102
300.073
300.044
300.015
288.74
289.273
289.82
290.378
290.941
291.507
292.072
292.633
293.187
293.732
294.265
294.786
295.291
295.781
296.253
296.707
297.142
297.558
297.955
298.331
298.687
299.023
299.339
299.635
299.911
300.169
300.407
300.628
300.83
301.016
301.185
301.338
301.475
301.599
301.708
301.803
301.887
301.958
302.018
302.067
302.107
302.137
302.159
302.172
302.178
302.177
302.17
302.157
302.139
302.116
302.088
302.057
302.022
301.984
301.943
301.899
301.854
301.807
301.759
301.709
301.658
301.607
301.555
301.503
301.451
301.398
301.346
301.294
301.243
301.191
301.141
301.091
301.042
300.994
300.947
300.9
300.854
300.809
300.766
300.723
300.681
300.64
300.599
300.56
300.521
300.484
300.447
300.41
300.375
300.34
300.306
300.272
300.239
300.206
300.174
300.142
300.11
300.078
300.047
300.016
287.979
288.547
289.131
289.727
290.328
290.933
291.536
292.135
292.726
293.308
293.877
294.433
294.973
295.495
295.999
296.484
296.949
297.393
297.816
298.218
298.598
298.957
299.294
299.61
299.905
300.18
300.435
300.67
300.887
301.085
301.265
301.428
301.575
301.707
301.823
301.925
302.014
302.09
302.154
302.207
302.249
302.282
302.305
302.319
302.326
302.325
302.317
302.303
302.283
302.259
302.229
302.196
302.158
302.118
302.074
302.028
301.98
301.929
301.878
301.825
301.771
301.716
301.66
301.605
301.549
301.493
301.437
301.382
301.327
301.272
301.218
301.165
301.113
301.061
301.011
300.961
300.912
300.864
300.817
300.772
300.727
300.683
300.64
300.598
300.557
300.516
300.477
300.438
300.4
300.363
300.327
300.291
300.255
300.22
300.186
300.151
300.117
300.084
300.05
300.017
287.22
287.824
288.445
289.078
289.718
290.361
291.002
291.638
292.267
292.885
293.491
294.081
294.655
295.211
295.747
296.262
296.756
297.229
297.678
298.105
298.509
298.891
299.249
299.585
299.899
300.192
300.462
300.713
300.943
301.153
301.345
301.518
301.675
301.814
301.938
302.047
302.141
302.222
302.29
302.347
302.391
302.426
302.45
302.465
302.472
302.471
302.463
302.448
302.428
302.401
302.37
302.334
302.295
302.251
302.205
302.156
302.105
302.051
301.996
301.94
301.882
301.824
301.765
301.706
301.646
301.587
301.528
301.469
301.41
301.352
301.295
301.239
301.183
301.128
301.074
301.021
300.97
300.919
300.869
300.82
300.773
300.726
300.68
300.635
300.592
300.549
300.507
300.466
300.426
300.386
300.347
300.309
300.271
300.234
300.197
300.161
300.125
300.089
300.053
300.018
286.464
287.104
287.762
288.433
289.11
289.791
290.47
291.144
291.81
292.465
293.106
293.732
294.339
294.928
295.495
296.041
296.565
297.065
297.541
297.993
298.421
298.825
299.205
299.561
299.893
300.203
300.49
300.755
300.998
301.221
301.424
301.608
301.774
301.922
302.053
302.168
302.268
302.354
302.426
302.485
302.533
302.569
302.595
302.611
302.618
302.617
302.609
302.593
302.571
302.543
302.51
302.472
302.43
302.384
302.335
302.283
302.229
302.172
302.114
302.054
301.994
301.932
301.869
301.807
301.744
301.681
301.618
301.556
301.494
301.432
301.372
301.312
301.253
301.195
301.138
301.082
301.027
300.973
300.92
300.869
300.818
300.769
300.72
300.673
300.627
300.581
300.537
300.493
300.451
300.409
300.368
300.327
300.287
300.248
300.209
300.17
300.132
300.094
300.056
300.019
285.712
286.388
287.082
287.79
288.505
289.223
289.94
290.652
291.355
292.046
292.723
293.383
294.025
294.646
295.245
295.821
296.374
296.902
297.404
297.882
298.334
298.76
299.161
299.537
299.887
300.214
300.517
300.797
301.054
301.289
301.503
301.698
301.872
302.028
302.167
302.288
302.394
302.484
302.561
302.623
302.674
302.712
302.739
302.756
302.764
302.763
302.754
302.737
302.714
302.684
302.65
302.61
302.565
302.517
302.465
302.41
302.353
302.293
302.232
302.169
302.104
302.039
301.973
301.907
301.841
301.774
301.708
301.642
301.577
301.512
301.448
301.385
301.323
301.261
301.201
301.142
301.084
301.027
300.972
300.917
300.864
300.811
300.76
300.71
300.662
300.614
300.567
300.521
300.476
300.432
300.388
300.345
300.303
300.262
300.22
300.18
300.139
300.099
300.06
300.02
284.964
285.675
286.405
287.15
287.903
288.659
289.413
290.162
290.902
291.629
292.342
293.037
293.712
294.365
294.996
295.602
296.184
296.739
297.268
297.771
298.246
298.695
299.117
299.512
299.882
300.225
300.544
300.838
301.109
301.357
301.582
301.787
301.97
302.135
302.28
302.408
302.519
302.615
302.695
302.761
302.814
302.854
302.883
302.901
302.909
302.908
302.898
302.881
302.856
302.825
302.788
302.746
302.7
302.649
302.594
302.537
302.476
302.413
302.349
302.282
302.215
302.146
302.077
302.007
301.937
301.867
301.797
301.728
301.659
301.591
301.524
301.457
301.392
301.327
301.264
301.202
301.141
301.081
301.022
300.965
300.909
300.854
300.8
300.748
300.696
300.646
300.597
300.548
300.501
300.454
300.408
300.363
300.319
300.275
300.232
300.189
300.147
300.105
300.063
300.021
284.219
284.965
285.732
286.513
287.303
288.097
288.889
289.675
290.451
291.215
291.962
292.692
293.4
294.086
294.748
295.385
295.995
296.578
297.133
297.66
298.159
298.63
299.073
299.488
299.876
300.236
300.571
300.88
301.164
301.424
301.661
301.875
302.068
302.24
302.393
302.528
302.644
302.744
302.828
302.898
302.953
302.995
303.026
303.044
303.053
303.052
303.042
303.023
302.998
302.965
302.927
302.882
302.833
302.78
302.723
302.662
302.599
302.533
302.465
302.395
302.324
302.252
302.18
302.106
302.033
301.96
301.886
301.814
301.741
301.67
301.599
301.53
301.461
301.393
301.327
301.261
301.197
301.135
301.073
301.013
300.954
300.896
300.84
300.785
300.731
300.678
300.626
300.575
300.526
300.477
300.429
300.381
300.335
300.289
300.244
300.199
300.154
300.11
300.066
300.022
283.478
284.259
285.062
285.88
286.707
287.538
288.367
289.19
290.003
290.802
291.585
292.348
293.09
293.808
294.501
295.168
295.807
296.417
296.998
297.55
298.073
298.566
299.03
299.464
299.87
300.248
300.598
300.921
301.219
301.491
301.739
301.963
302.165
302.346
302.506
302.646
302.768
302.873
302.961
303.034
303.092
303.136
303.168
303.187
303.196
303.195
303.184
303.165
303.138
303.104
303.064
303.018
302.966
302.911
302.851
302.787
302.721
302.652
302.581
302.508
302.433
302.358
302.282
302.205
302.128
302.052
301.975
301.899
301.823
301.748
301.674
301.601
301.529
301.459
301.389
301.321
301.254
301.188
301.123
301.06
300.999
300.938
300.879
300.822
300.765
300.71
300.655
300.602
300.55
300.499
300.449
300.399
300.351
300.302
300.255
300.208
300.161
300.115
300.069
300.023
282.741
283.557
284.396
285.25
286.114
286.982
287.848
288.708
289.557
290.392
291.21
292.007
292.782
293.532
294.256
294.952
295.62
296.257
296.865
297.441
297.987
298.502
298.986
299.44
299.864
300.259
300.624
300.962
301.273
301.557
301.816
302.051
302.262
302.45
302.618
302.764
302.892
303.001
303.093
303.169
303.23
303.276
303.309
303.33
303.339
303.337
303.326
303.306
303.278
303.243
303.201
303.152
303.099
303.04
302.978
302.912
302.842
302.77
302.696
302.62
302.542
302.463
302.384
302.304
302.223
302.143
302.063
301.984
301.905
301.826
301.749
301.673
301.598
301.524
301.451
301.38
301.309
301.241
301.174
301.108
301.043
300.98
300.919
300.858
300.799
300.741
300.685
300.629
300.575
300.521
300.469
300.417
300.366
300.316
300.266
300.217
300.169
300.12
300.072
300.024
282.008
282.859
283.733
284.624
285.525
286.429
287.332
288.228
289.113
289.984
290.836
291.668
292.476
293.258
294.012
294.738
295.434
296.098
296.731
297.333
297.902
298.438
298.943
299.416
299.858
300.27
300.651
301.003
301.327
301.623
301.893
302.138
302.358
302.554
302.729
302.882
303.015
303.129
303.225
303.304
303.367
303.415
303.449
303.471
303.481
303.479
303.468
303.447
303.418
303.38
303.336
303.286
303.23
303.169
303.104
303.035
302.963
302.888
302.81
302.731
302.65
302.568
302.485
302.401
302.318
302.234
302.151
302.068
301.985
301.904
301.823
301.744
301.665
301.588
301.512
301.438
301.365
301.294
301.223
301.155
301.088
301.022
300.958
300.895
300.833
300.773
300.714
300.656
300.599
300.543
300.489
300.435
300.382
300.329
300.278
300.226
300.176
300.125
300.075
300.025
281.28
282.165
283.075
284.002
284.939
285.88
286.819
287.752
288.673
289.579
290.465
291.33
292.171
292.985
293.77
294.525
295.249
295.94
296.599
297.225
297.817
298.375
298.9
299.393
299.853
300.281
300.677
301.044
301.381
301.689
301.97
302.224
302.453
302.658
302.839
302.998
303.137
303.255
303.355
303.437
303.503
303.553
303.589
303.611
303.621
303.62
303.608
303.586
303.556
303.517
303.472
303.419
303.361
303.298
303.23
303.158
303.083
303.005
302.924
302.841
302.757
302.672
302.585
302.499
302.412
302.325
302.238
302.151
302.066
301.981
301.897
301.814
301.733
301.653
301.574
301.496
301.42
301.346
301.273
301.202
301.132
301.063
300.996
300.931
300.867
300.804
300.743
300.682
300.623
300.565
300.508
300.452
300.397
300.343
300.289
300.236
300.183
300.13
300.078
300.026
280.556
281.475
282.42
283.383
284.357
285.334
286.31
287.278
288.235
289.176
290.097
290.995
291.868
292.714
293.529
294.313
295.065
295.784
296.468
297.117
297.732
298.312
298.858
299.369
299.847
300.291
300.703
301.084
301.434
301.754
302.046
302.31
302.548
302.76
302.949
303.114
303.258
303.381
303.485
303.57
303.638
303.691
303.728
303.751
303.761
303.76
303.747
303.725
303.693
303.653
303.606
303.551
303.491
303.425
303.355
303.28
303.202
303.121
303.037
302.951
302.864
302.775
302.685
302.595
302.505
302.414
302.324
302.235
302.146
302.058
301.97
301.885
301.8
301.716
301.635
301.554
301.475
301.398
301.322
301.248
301.175
301.104
301.035
300.967
300.9
300.835
300.771
300.709
300.647
300.587
300.528
300.47
300.413
300.356
300.3
300.245
300.19
300.135
300.081
300.027
279.837
280.79
281.771
282.769
283.778
284.792
285.804
286.808
287.8
288.776
289.731
290.662
291.568
292.444
293.29
294.103
294.883
295.628
296.337
297.011
297.648
298.25
298.816
299.346
299.841
300.302
300.73
301.124
301.487
301.819
302.122
302.396
302.642
302.863
303.058
303.229
303.378
303.506
303.614
303.702
303.773
303.827
303.866
303.89
303.901
303.899
303.886
303.863
303.83
303.788
303.739
303.683
303.62
303.552
303.479
303.401
303.32
303.236
303.149
303.06
302.97
302.878
302.785
302.691
302.597
302.504
302.41
302.317
302.225
302.134
302.043
301.954
301.866
301.78
301.695
301.612
301.53
301.45
301.371
301.294
301.219
301.145
301.073
301.003
300.934
300.866
300.8
300.735
300.671
300.609
300.548
300.487
300.428
300.369
300.311
300.254
300.197
300.14
300.084
300.028
279.123
280.11
281.125
282.159
283.204
284.254
285.301
286.341
287.368
288.378
289.367
290.332
291.269
292.177
293.052
293.894
294.702
295.473
296.207
296.905
297.565
298.188
298.774
299.323
299.836
300.313
300.755
301.164
301.54
301.884
302.197
302.48
302.736
302.964
303.166
303.344
303.498
303.63
303.741
303.833
303.906
303.962
304.002
304.027
304.039
304.037
304.024
303.999
303.965
303.922
303.871
303.813
303.748
303.678
303.602
303.522
303.438
303.351
303.261
303.169
303.075
302.98
302.883
302.786
302.689
302.592
302.496
302.399
302.304
302.209
302.116
302.023
301.932
301.843
301.755
301.669
301.584
301.501
301.42
301.34
301.262
301.186
301.111
301.038
300.967
300.897
300.828
300.761
300.695
300.631
300.567
300.505
300.443
300.382
300.322
300.263
300.204
300.145
300.087
300.029
278.414
279.435
280.484
281.553
282.634
283.719
284.802
285.877
286.939
287.984
289.006
290.004
290.973
291.911
292.816
293.687
294.522
295.319
296.079
296.8
297.482
298.126
298.732
299.3
299.83
300.323
300.781
301.203
301.592
301.948
302.271
302.565
302.829
303.064
303.274
303.457
303.617
303.753
303.869
303.963
304.039
304.097
304.138
304.164
304.176
304.174
304.16
304.135
304.1
304.056
304.003
303.943
303.875
303.802
303.724
303.641
303.555
303.464
303.372
303.276
303.179
303.081
302.981
302.881
302.781
302.68
302.58
302.481
302.382
302.284
302.187
302.092
301.998
301.906
301.815
301.725
301.638
301.552
301.468
301.385
301.305
301.226
301.149
301.073
300.999
300.927
300.856
300.787
300.719
300.652
300.586
300.522
300.458
300.395
300.333
300.272
300.211
300.15
300.09
300.03
277.711
278.765
279.848
280.952
282.068
283.188
284.307
285.417
286.514
287.592
288.648
289.678
290.679
291.647
292.582
293.481
294.343
295.167
295.951
296.696
297.4
298.065
298.691
299.277
299.824
300.334
300.806
301.243
301.644
302.011
302.345
302.648
302.921
303.164
303.38
303.57
303.735
303.876
303.995
304.092
304.171
304.23
304.273
304.3
304.312
304.31
304.296
304.27
304.234
304.188
304.133
304.071
304.002
303.926
303.846
303.76
303.67
303.577
303.481
303.383
303.283
303.181
303.078
302.975
302.871
302.768
302.664
302.562
302.46
302.359
302.259
302.16
302.063
301.968
301.874
301.781
301.691
301.602
301.516
301.431
301.347
301.266
301.186
301.108
301.032
300.957
300.884
300.813
300.742
300.673
300.605
300.539
300.473
300.408
300.344
300.281
300.218
300.155
300.093
300.031
277.013
278.1
279.217
280.356
281.506
282.662
283.815
284.96
286.091
287.203
288.292
289.355
290.387
291.386
292.35
293.277
294.166
295.015
295.824
296.592
297.319
298.005
298.65
299.254
299.819
300.344
300.832
301.282
301.695
302.074
302.419
302.731
303.012
303.263
303.486
303.682
303.852
303.997
304.12
304.221
304.301
304.363
304.407
304.434
304.447
304.445
304.43
304.404
304.366
304.319
304.263
304.198
304.127
304.049
303.966
303.878
303.785
303.689
303.59
303.489
303.386
303.281
303.175
303.068
302.961
302.854
302.748
302.642
302.537
302.432
302.329
302.228
302.128
302.029
301.932
301.837
301.744
301.653
301.563
301.475
301.39
301.306
301.223
301.143
301.064
300.987
300.912
300.838
300.765
300.694
300.624
300.556
300.488
300.421
300.355
300.289
300.224
300.16
300.096
300.032
276.321
277.441
278.592
279.764
280.95
282.14
283.328
284.507
285.672
286.818
287.94
289.034
290.097
291.127
292.12
293.075
293.99
294.865
295.698
296.489
297.238
297.945
298.609
299.232
299.813
300.355
300.857
301.32
301.746
302.136
302.492
302.813
303.103
303.362
303.591
303.793
303.968
304.117
304.244
304.348
304.431
304.494
304.54
304.568
304.581
304.579
304.564
304.536
304.498
304.449
304.391
304.325
304.251
304.171
304.085
303.995
303.899
303.8
303.698
303.594
303.487
303.379
303.27
303.161
303.05
302.94
302.831
302.721
302.613
302.506
302.4
302.295
302.192
302.09
301.991
301.893
301.797
301.702
301.61
301.52
301.431
301.345
301.26
301.177
301.096
301.017
300.939
300.863
300.789
300.715
300.643
300.572
300.502
300.433
300.365
300.298
300.231
300.165
300.099
300.033
275.634
276.787
277.971
279.178
280.397
281.622
282.845
284.058
285.257
286.436
287.59
288.716
289.81
290.869
291.891
292.874
293.816
294.716
295.574
296.388
297.158
297.885
298.569
299.21
299.808
300.365
300.882
301.358
301.797
302.198
302.564
302.895
303.193
303.459
303.695
303.903
304.083
304.237
304.367
304.474
304.559
304.625
304.671
304.7
304.713
304.712
304.696
304.668
304.628
304.578
304.518
304.45
304.375
304.292
304.204
304.11
304.012
303.911
303.806
303.698
303.589
303.477
303.365
303.252
303.139
303.026
302.913
302.8
302.689
302.578
302.469
302.361
302.255
302.151
302.048
301.947
301.849
301.752
301.657
301.564
301.473
301.384
301.297
301.212
301.128
301.047
300.967
300.888
300.811
300.736
300.662
300.589
300.517
300.446
300.376
300.307
300.238
300.17
300.102
300.034
274.954
276.138
277.356
278.596
279.85
281.109
282.366
283.613
284.845
286.057
287.244
288.401
289.526
290.614
291.665
292.675
293.643
294.569
295.45
296.287
297.079
297.826
298.529
299.188
299.803
300.375
300.906
301.396
301.847
302.26
302.636
302.976
303.282
303.556
303.798
304.012
304.197
304.355
304.489
304.599
304.687
304.754
304.802
304.832
304.845
304.843
304.827
304.798
304.757
304.706
304.645
304.575
304.497
304.412
304.321
304.225
304.124
304.02
303.912
303.801
303.689
303.575
303.459
303.343
303.226
303.11
302.994
302.878
302.764
302.65
302.538
302.427
302.318
302.211
302.105
302.002
301.9
301.801
301.703
301.608
301.514
301.423
301.333
301.245
301.16
301.076
300.994
300.913
300.834
300.756
300.68
300.605
300.531
300.459
300.386
300.315
300.245
300.174
300.104
300.035
274.28
275.496
276.746
278.02
279.308
280.6
281.891
283.172
284.438
285.682
286.9
288.089
289.244
290.362
291.441
292.478
293.472
294.423
295.328
296.187
297
297.768
298.489
299.166
299.797
300.385
300.931
301.434
301.897
302.321
302.706
303.056
303.37
303.651
303.901
304.119
304.31
304.472
304.609
304.722
304.813
304.882
304.931
304.962
304.976
304.974
304.957
304.927
304.885
304.832
304.77
304.698
304.618
304.531
304.438
304.339
304.235
304.128
304.017
303.904
303.788
303.671
303.552
303.433
303.313
303.194
303.075
302.956
302.838
302.722
302.606
302.493
302.381
302.27
302.162
302.056
301.951
301.849
301.749
301.651
301.555
301.461
301.369
301.279
301.191
301.105
301.02
300.938
300.856
300.777
300.699
300.622
300.546
300.471
300.397
300.324
300.251
300.179
300.107
300.036
273.612
274.86
276.142
277.449
278.77
280.097
281.421
282.735
284.033
285.31
286.56
287.78
288.964
290.111
291.218
292.283
293.303
294.278
295.206
296.088
296.922
297.71
298.45
299.144
299.792
300.395
300.955
301.471
301.946
302.381
302.777
303.135
303.458
303.746
304.002
304.226
304.421
304.588
304.729
304.845
304.938
305.008
305.059
305.091
305.105
305.103
305.086
305.055
305.012
304.958
304.893
304.82
304.738
304.648
304.553
304.452
304.345
304.235
304.122
304.005
303.886
303.766
303.644
303.522
303.399
303.277
303.154
303.033
302.912
302.792
302.674
302.557
302.443
302.329
302.218
302.109
302.002
301.897
301.794
301.694
301.595
301.499
301.404
301.312
301.222
301.133
301.047
300.962
300.879
300.797
300.717
300.638
300.56
300.483
300.407
300.332
300.258
300.184
300.11
300.037
272.951
274.23
275.545
276.884
278.238
279.598
280.955
282.302
283.633
284.942
286.223
287.473
288.688
289.864
290.998
292.089
293.135
294.134
295.086
295.99
296.845
297.652
298.411
299.123
299.787
300.405
300.979
301.508
301.995
302.441
302.846
303.214
303.545
303.84
304.102
304.332
304.532
304.703
304.848
304.966
305.061
305.134
305.186
305.218
305.233
305.231
305.213
305.182
305.138
305.082
305.016
304.94
304.856
304.765
304.667
304.563
304.454
304.341
304.225
304.106
303.984
303.86
303.736
303.61
303.485
303.359
303.233
303.109
302.985
302.862
302.741
302.622
302.504
302.388
302.274
302.162
302.052
301.945
301.839
301.736
301.635
301.536
301.44
301.345
301.252
301.162