/*--------------------------------*- C++ -*----------------------------------*\
| =========                 |                                                 |
| \\      /  F ield         | OpenFOAM: The Open Source CFD Toolbox           |
|  \\    /   O peration     | Version:  2406                                  |
|   \\  /    A nd           | Website:  www.openfoam.com                      |
|    \\/     M anipulation  |                                                 |
\*---------------------------------------------------------------------------*/
FoamFile
{
    version     2.0;
    format      ascii;
    arch        "LSB;label=32;scalar=64";
    class       volVectorField;
    location    "20";
    object      flux;
}
// * * * * * * * * * * * * * * * * * * * * * * * * * * * * * * * * * * * * * //

dimensions      [0 1 -1 1 0 0 0];

internalField   nonuniform List<vector> 
20000
(
(-0.00140876 0.0343157 0)
(-0.00131292 0.0315968 0)
(-0.00122222 0.0290643 0)
(-0.00113654 0.0267082 0)
(-0.00105572 0.0245184 0)
(-0.000979522 0.0224856 0)
(-0.000907793 0.0206006 0)
(-0.0008404 0.0188546 0)
(-0.000777159 0.0172392 0)
(-0.000717823 0.0157462 0)
(-0.000662273 0.0143681 0)
(-0.000610382 0.0130973 0)
(-0.000561912 0.0119267 0)
(-0.000516678 0.0108498 0)
(-0.000474553 0.00986014 0)
(-0.000435391 0.00895168 0)
(-0.000399018 0.00811867 0)
(-0.000365264 0.00735571 0)
(-0.00033398 0.00665771 0)
(-0.000305031 0.00601988 0)
(-0.000278284 0.00543766 0)
(-0.000253602 0.00490681 0)
(-0.000230853 0.00442331 0)
(-0.000209909 0.00398345 0)
(-0.000190649 0.00358373 0)
(-0.000172963 0.0032209 0)
(-0.000156742 0.00289193 0)
(-0.000141887 0.00259397 0)
(-0.000128299 0.00232441 0)
(-0.000115886 0.00208081 0)
(-0.000104561 0.00186089 0)
(-9.42398e-05 0.00166259 0)
(-8.48454e-05 0.00148396 0)
(-7.63047e-05 0.00132323 0)
(-6.85496e-05 0.00117876 0)
(-6.15164e-05 0.00104905 0)
(-5.51458e-05 0.000932708 0)
(-4.93823e-05 0.000828477 0)
(-4.41743e-05 0.000735192 0)
(-3.94741e-05 0.000651791 0)
(-3.52371e-05 0.000577305 0)
(-3.14221e-05 0.000510851 0)
(-2.79913e-05 0.000451624 0)
(-2.49094e-05 0.000398893 0)
(-2.21443e-05 0.000351993 0)
(-1.96661e-05 0.000310321 0)
(-1.74476e-05 0.000273333 0)
(-1.54639e-05 0.000240535 0)
(-1.36921e-05 0.000211482 0)
(-1.21113e-05 0.00018577 0)
(-1.07025e-05 0.000163039 0)
(-9.44835e-06 0.000142963 0)
(-8.33308e-06 0.000125248 0)
(-7.34239e-06 0.000109633 0)
(-6.4633e-06 9.58805e-05 0)
(-5.68407e-06 8.3781e-05 0)
(-4.99408e-06 7.31456e-05 0)
(-4.38375e-06 6.38059e-05 0)
(-3.84445e-06 5.56116e-05 0)
(-3.36839e-06 4.8429e-05 0)
(-2.94858e-06 4.21389e-05 0)
(-2.57876e-06 3.66354e-05 0)
(-2.2533e-06 3.18245e-05 0)
(-1.96716e-06 2.76228e-05 0)
(-1.71584e-06 2.39563e-05 0)
(-1.49531e-06 2.07598e-05 0)
(-1.30199e-06 1.79755e-05 0)
(-1.13269e-06 1.55522e-05 0)
(-9.84565e-07 1.3445e-05 0)
(-8.55084e-07 1.16142e-05 0)
(-7.4201e-07 1.00248e-05 0)
(-6.43354e-07 8.64631e-06 0)
(-5.57358e-07 7.45159e-06 0)
(-4.82467e-07 6.41701e-06 0)
(-4.17305e-07 5.52184e-06 0)
(-3.60662e-07 4.7479e-06 0)
(-3.11468e-07 4.07928e-06 0)
(-2.68784e-07 3.5021e-06 0)
(-2.31782e-07 3.00421e-06 0)
(-1.99736e-07 2.57503e-06 0)
(-1.7201e-07 2.20531e-06 0)
(-1.48045e-07 1.88703e-06 0)
(-1.27354e-07 1.61317e-06 0)
(-1.0951e-07 1.37764e-06 0)
(-9.41403e-08 1.17516e-06 0)
(-8.09214e-08 1.00111e-06 0)
(-6.9571e-08 8.51491e-07 0)
(-5.98444e-08 7.22839e-07 0)
(-5.15297e-08 6.12128e-07 0)
(-4.4444e-08 5.16732e-07 0)
(-3.84298e-08 4.34363e-07 0)
(-3.33523e-08 3.63022e-07 0)
(-2.90967e-08 3.00962e-07 0)
(-2.5566e-08 2.46643e-07 0)
(-2.26792e-08 1.98704e-07 0)
(-2.03697e-08 1.55931e-07 0)
(-1.85836e-08 1.1723e-07 0)
(-1.72794e-08 8.16012e-08 0)
(-1.64265e-08 4.81166e-08 0)
(-1.60048e-08 1.5899e-08 0)
(-0.00422591 0.0343072 0)
(-0.00393844 0.0315891 0)
(-0.00366641 0.0290572 0)
(-0.00340934 0.0267016 0)
(-0.00316683 0.0245124 0)
(-0.0029383 0.0224801 0)
(-0.0027232 0.0205955 0)
(-0.002521 0.01885 0)
(-0.00233123 0.017235 0)
(-0.0021533 0.0157424 0)
(-0.0019867 0.0143645 0)
(-0.00183099 0.013094 0)
(-0.00168557 0.0119238 0)
(-0.0015499 0.0108471 0)
(-0.00142356 0.00985772 0)
(-0.00130608 0.00894946 0)
(-0.00119695 0.00811665 0)
(-0.00109569 0.00735389 0)
(-0.00100185 0.00665608 0)
(-0.000915018 0.0060184 0)
(-0.000834787 0.00543633 0)
(-0.000760748 0.0049056 0)
(-0.000692504 0.00442222 0)
(-0.000629674 0.00398246 0)
(-0.000571899 0.00358285 0)
(-0.000518844 0.00322011 0)
(-0.000470188 0.00289121 0)
(-0.000425626 0.00259333 0)
(-0.000384866 0.00232384 0)
(-0.000347631 0.00208029 0)
(-0.000313657 0.00186044 0)
(-0.000282696 0.00166218 0)
(-0.000254515 0.00148359 0)
(-0.000228895 0.0013229 0)
(-0.000205632 0.00117847 0)
(-0.000184534 0.00104879 0)
(-0.000165424 0.000932478 0)
(-0.000148135 0.000828272 0)
(-0.000132512 0.00073501 0)
(-0.000118412 0.00065163 0)
(-0.000105702 0.000577163 0)
(-9.42586e-05 0.000510725 0)
(-8.39669e-05 0.000451513 0)
(-7.47221e-05 0.000398795 0)
(-6.64273e-05 0.000351906 0)
(-5.89934e-05 0.000310245 0)
(-5.23385e-05 0.000273266 0)
(-4.63879e-05 0.000240476 0)
(-4.10729e-05 0.000211429 0)
(-3.63309e-05 0.000185724 0)
(-3.21049e-05 0.000162999 0)
(-2.83427e-05 0.000142928 0)
(-2.49972e-05 0.000125217 0)
(-2.20254e-05 0.000109606 0)
(-1.93883e-05 9.58568e-05 0)
(-1.70508e-05 8.37603e-05 0)
(-1.4981e-05 7.31275e-05 0)
(-1.31502e-05 6.37901e-05 0)
(-1.15324e-05 5.55979e-05 0)
(-1.01043e-05 4.84171e-05 0)
(-8.84503e-06 4.21285e-05 0)
(-7.73566e-06 3.66264e-05 0)
(-6.75935e-06 3.18167e-05 0)
(-5.90099e-06 2.7616e-05 0)
(-5.14709e-06 2.39504e-05 0)
(-4.48556e-06 2.07547e-05 0)
(-3.90566e-06 1.7971e-05 0)
(-3.3978e-06 1.55484e-05 0)
(-2.95345e-06 1.34417e-05 0)
(-2.56504e-06 1.16113e-05 0)
(-2.22585e-06 1.00224e-05 0)
(-1.9299e-06 8.64419e-06 0)
(-1.67194e-06 7.44976e-06 0)
(-1.44728e-06 6.41544e-06 0)
(-1.25181e-06 5.52048e-06 0)
(-1.0819e-06 4.74673e-06 0)
(-9.34329e-07 4.07828e-06 0)
(-8.06286e-07 3.50124e-06 0)
(-6.95289e-07 3.00347e-06 0)
(-5.99159e-07 2.5744e-06 0)
(-5.15988e-07 2.20477e-06 0)
(-4.441e-07 1.88657e-06 0)
(-3.82031e-07 1.61278e-06 0)
(-3.28503e-07 1.37731e-06 0)
(-2.82398e-07 1.17487e-06 0)
(-2.42745e-07 1.00086e-06 0)
(-2.08696e-07 8.51284e-07 0)
(-1.79519e-07 7.22663e-07 0)
(-1.54577e-07 6.11979e-07 0)
(-1.33321e-07 5.16607e-07 0)
(-1.1528e-07 4.34258e-07 0)
(-1.00049e-07 3.62935e-07 0)
(-8.72831e-08 3.00889e-07 0)
(-7.66919e-08 2.46583e-07 0)
(-6.80323e-08 1.98656e-07 0)
(-6.11041e-08 1.55894e-07 0)
(-5.57464e-08 1.17202e-07 0)
(-5.18342e-08 8.1582e-08 0)
(-4.92758e-08 4.81054e-08 0)
(-4.80108e-08 1.58953e-08 0)
(-0.00704198 0.0342902 0)
(-0.00656294 0.0315734 0)
(-0.00610971 0.0290429 0)
(-0.00568135 0.0266884 0)
(-0.00527719 0.0245003 0)
(-0.00489634 0.022469 0)
(-0.00453792 0.0205854 0)
(-0.00420098 0.0188407 0)
(-0.00388473 0.0172265 0)
(-0.00358825 0.0157346 0)
(-0.00331065 0.0143574 0)
(-0.00305114 0.0130875 0)
(-0.00280879 0.0119179 0)
(-0.00258274 0.0108418 0)
(-0.00237222 0.00985285 0)
(-0.00217645 0.00894504 0)
(-0.00199459 0.00811264 0)
(-0.00182584 0.00735026 0)
(-0.00166947 0.0066528 0)
(-0.00152478 0.00601544 0)
(-0.00139109 0.00543364 0)
(-0.00126771 0.00490317 0)
(-0.00115398 0.00442003 0)
(-0.00104928 0.0039805 0)
(-0.000953006 0.00358108 0)
(-0.000864595 0.00321852 0)
(-0.000783517 0.00288979 0)
(-0.00070926 0.00259206 0)
(-0.000641339 0.00232269 0)
(-0.000579291 0.00207927 0)
(-0.000522677 0.00185952 0)
(-0.000471084 0.00166136 0)
(-0.000424122 0.00148286 0)
(-0.000381429 0.00132225 0)
(-0.000342663 0.00117788 0)
(-0.000307506 0.00104827 0)
(-0.00027566 0.000932017 0)
(-0.00024685 0.000827863 0)
(-0.000220817 0.000734647 0)
(-0.000197322 0.000651308 0)
(-0.000176142 0.000576878 0)
(-0.000157072 0.000510473 0)
(-0.000139922 0.00045129 0)
(-0.000124516 0.000398598 0)
(-0.000110694 0.000351732 0)
(-9.83061e-05 0.000310092 0)
(-8.72165e-05 0.000273131 0)
(-7.73005e-05 0.000240357 0)
(-6.84436e-05 0.000211325 0)
(-6.05416e-05 0.000185633 0)
(-5.34993e-05 0.000162919 0)
(-4.72301e-05 0.000142857 0)
(-4.16551e-05 0.000125156 0)
(-3.67029e-05 0.000109551 0)
(-3.23085e-05 9.58095e-05 0)
(-2.84134e-05 8.3719e-05 0)
(-2.49643e-05 7.30915e-05 0)
(-2.19134e-05 6.37587e-05 0)
(-1.92175e-05 5.55705e-05 0)
(-1.68378e-05 4.83932e-05 0)
(-1.47393e-05 4.21078e-05 0)
(-1.28906e-05 3.66083e-05 0)
(-1.12637e-05 3.1801e-05 0)
(-9.83337e-06 2.76023e-05 0)
(-8.57707e-06 2.39386e-05 0)
(-7.47471e-06 2.07445e-05 0)
(-6.50837e-06 1.79622e-05 0)
(-5.66207e-06 1.55407e-05 0)
(-4.92161e-06 1.3435e-05 0)
(-4.27437e-06 1.16056e-05 0)
(-3.70913e-06 1.00174e-05 0)
(-3.21598e-06 8.63993e-06 0)
(-2.78611e-06 7.44609e-06 0)
(-2.41174e-06 6.41228e-06 0)
(-2.08601e-06 5.51777e-06 0)
(-1.80287e-06 4.7444e-06 0)
(-1.55696e-06 4.07628e-06 0)
(-1.34359e-06 3.49952e-06 0)
(-1.15862e-06 3.002e-06 0)
(-9.98435e-07 2.57313e-06 0)
(-8.59838e-07 2.20369e-06 0)
(-7.40045e-07 1.88564e-06 0)
(-6.36614e-07 1.61198e-06 0)
(-5.47415e-07 1.37663e-06 0)
(-4.70587e-07 1.17429e-06 0)
(-4.04508e-07 1.00037e-06 0)
(-3.4777e-07 8.50867e-07 0)
(-2.99149e-07 7.22309e-07 0)
(-2.57586e-07 6.1168e-07 0)
(-2.22166e-07 5.16355e-07 0)
(-1.92102e-07 4.34046e-07 0)
(-1.66721e-07 3.62758e-07 0)
(-1.45448e-07 3.00743e-07 0)
(-1.27799e-07 2.46463e-07 0)
(-1.13369e-07 1.9856e-07 0)
(-1.01824e-07 1.55818e-07 0)
(-9.28956e-08 1.17146e-07 0)
(-8.63764e-08 8.15427e-08 0)
(-8.21131e-08 4.80823e-08 0)
(-8.00055e-08 1.58878e-08 0)
(-0.00985633 0.0342648 0)
(-0.00918579 0.03155 0)
(-0.00855145 0.0290214 0)
(-0.00795196 0.0266687 0)
(-0.00738628 0.0244821 0)
(-0.00685319 0.0224523 0)
(-0.0063515 0.0205701 0)
(-0.00587992 0.0188267 0)
(-0.00543728 0.0172137 0)
(-0.00502231 0.015723 0)
(-0.00463377 0.0143468 0)
(-0.00427053 0.0130779 0)
(-0.00393132 0.0119091 0)
(-0.00361495 0.0108338 0)
(-0.00332031 0.00984555 0)
(-0.00304629 0.00893841 0)
(-0.00279173 0.00810664 0)
(-0.00255554 0.00734482 0)
(-0.00233668 0.00664788 0)
(-0.00213417 0.00601098 0)
(-0.00194705 0.00542962 0)
(-0.00177436 0.00489954 0)
(-0.00161518 0.00441676 0)
(-0.00146863 0.00397755 0)
(-0.00133388 0.00357843 0)
(-0.00121013 0.00321614 0)
(-0.00109665 0.00288765 0)
(-0.00099272 0.00259014 0)
(-0.000897655 0.00232098 0)
(-0.000810809 0.00207773 0)
(-0.000731569 0.00185814 0)
(-0.000659355 0.00166013 0)
(-0.000593625 0.00148176 0)
(-0.000533869 0.00132127 0)
(-0.000479609 0.00117701 0)
(-0.000430401 0.00104749 0)
(-0.000385829 0.000931327 0)
(-0.000345505 0.00082725 0)
(-0.000309067 0.000734103 0)
(-0.000276182 0.000650826 0)
(-0.000246538 0.000576451 0)
(-0.000219846 0.000510095 0)
(-0.000195842 0.000450956 0)
(-0.00017428 0.000398303 0)
(-0.000154933 0.000351472 0)
(-0.000137595 0.000309862 0)
(-0.000122073 0.000272929 0)
(-0.000108194 0.000240179 0)
(-9.57974e-05 0.000211169 0)
(-8.47373e-05 0.000185495 0)
(-7.48806e-05 0.000162798 0)
(-6.61058e-05 0.000142751 0)
(-5.83028e-05 0.000125063 0)
(-5.13714e-05 0.00010947 0)
(-4.52208e-05 9.57386e-05 0)
(-3.97689e-05 8.36571e-05 0)
(-3.49413e-05 7.30374e-05 0)
(-3.06711e-05 6.37115e-05 0)
(-2.68979e-05 5.55294e-05 0)
(-2.35671e-05 4.83574e-05 0)
(-2.06299e-05 4.20766e-05 0)
(-1.80424e-05 3.65813e-05 0)
(-1.57653e-05 3.17775e-05 0)
(-1.37633e-05 2.75819e-05 0)
(-1.20049e-05 2.39209e-05 0)
(-1.0462e-05 2.07292e-05 0)
(-9.10946e-06 1.79489e-05 0)
(-7.92494e-06 1.55292e-05 0)
(-6.88856e-06 1.34251e-05 0)
(-5.98264e-06 1.1597e-05 0)
(-5.19151e-06 1.00101e-05 0)
(-4.50126e-06 8.63355e-06 0)
(-3.89959e-06 7.4406e-06 0)
(-3.3756e-06 6.40755e-06 0)
(-2.9197e-06 5.5137e-06 0)
(-2.52339e-06 4.7409e-06 0)
(-2.17921e-06 4.07327e-06 0)
(-1.88056e-06 3.49694e-06 0)
(-1.62168e-06 2.99979e-06 0)
(-1.39747e-06 2.57124e-06 0)
(-1.20348e-06 2.20207e-06 0)
(-1.03581e-06 1.88426e-06 0)
(-8.91041e-07 1.6108e-06 0)
(-7.66193e-07 1.37562e-06 0)
(-6.58659e-07 1.17343e-06 0)
(-5.66172e-07 9.99637e-07 0)
(-4.86758e-07 8.50243e-07 0)
(-4.18706e-07 7.21779e-07 0)
(-3.60531e-07 6.11232e-07 0)
(-3.10956e-07 5.15976e-07 0)
(-2.68877e-07 4.33728e-07 0)
(-2.33352e-07 3.62492e-07 0)
(-2.03577e-07 3.00523e-07 0)
(-1.78875e-07 2.46283e-07 0)
(-1.58677e-07 1.98415e-07 0)
(-1.42518e-07 1.55705e-07 0)
(-1.30022e-07 1.1706e-07 0)
(-1.20898e-07 8.14835e-08 0)
(-1.14931e-07 4.80475e-08 0)
(-1.11981e-07 1.58763e-08 0)
(-0.0126683 0.034231 0)
(-0.0118064 0.0315188 0)
(-0.0109911 0.0289927 0)
(-0.0102206 0.0266423 0)
(-0.00949352 0.024458 0)
(-0.00880836 0.0224302 0)
(-0.00816352 0.0205498 0)
(-0.00755742 0.0188081 0)
(-0.00698849 0.0171967 0)
(-0.00645513 0.0157074 0)
(-0.00595575 0.0143326 0)
(-0.00548888 0.0130649 0)
(-0.00505289 0.0118973 0)
(-0.00464627 0.0108231 0)
(-0.00426757 0.00983582 0)
(-0.00391536 0.00892958 0)
(-0.00358818 0.00809863 0)
(-0.0032846 0.00733757 0)
(-0.00300331 0.00664131 0)
(-0.00274304 0.00600504 0)
(-0.00250253 0.00542425 0)
(-0.00228057 0.0048947 0)
(-0.00207598 0.00441239 0)
(-0.00188761 0.00397362 0)
(-0.00171441 0.00357489 0)
(-0.00155537 0.00321296 0)
(-0.00140952 0.0028848 0)
(-0.00127593 0.00258758 0)
(-0.00115375 0.00231868 0)
(-0.00104213 0.00207568 0)
(-0.00094028 0.0018563 0)
(-0.000847464 0.00165848 0)
(-0.000762981 0.0014803 0)
(-0.000686177 0.00131996 0)
(-0.000616437 0.00117585 0)
(-0.000553191 0.00104646 0)
(-0.000495902 0.000930407 0)
(-0.000444074 0.000826433 0)
(-0.000397241 0.000733378 0)
(-0.000354974 0.000650183 0)
(-0.000316872 0.000575881 0)
(-0.000282567 0.000509591 0)
(-0.000251714 0.000450511 0)
(-0.000224 0.000397909 0)
(-0.000199134 0.000351125 0)
(-0.000176849 0.000309556 0)
(-0.000156899 0.000272659 0)
(-0.000139061 0.000239942 0)
(-0.000123128 0.00021096 0)
(-0.000108912 0.000185312 0)
(-9.62433e-05 0.000162637 0)
(-8.49652e-05 0.00014261 0)
(-7.49361e-05 0.000124939 0)
(-6.60272e-05 0.000109362 0)
(-5.81219e-05 9.56441e-05 0)
(-5.11146e-05 8.35745e-05 0)
(-4.49098e-05 7.29653e-05 0)
(-3.94214e-05 6.36486e-05 0)
(-3.45716e-05 5.54746e-05 0)
(-3.02906e-05 4.83097e-05 0)
(-2.65154e-05 4.20351e-05 0)
(-2.31898e-05 3.65452e-05 0)
(-2.0263e-05 3.17461e-05 0)
(-1.76899e-05 2.75547e-05 0)
(-1.54298e-05 2.38974e-05 0)
(-1.34467e-05 2.07087e-05 0)
(-1.17083e-05 1.79312e-05 0)
(-1.01859e-05 1.55139e-05 0)
(-8.85381e-06 1.34119e-05 0)
(-7.68944e-06 1.15856e-05 0)
(-6.6726e-06 1.00002e-05 0)
(-5.78543e-06 8.62505e-06 0)
(-5.01211e-06 7.43327e-06 0)
(-4.33864e-06 6.40124e-06 0)
(-3.75267e-06 5.50827e-06 0)
(-3.2433e-06 4.73623e-06 0)
(-2.80092e-06 4.06926e-06 0)
(-2.41707e-06 3.4935e-06 0)
(-2.08433e-06 2.99684e-06 0)
(-1.79615e-06 2.56871e-06 0)
(-1.54682e-06 2.19991e-06 0)
(-1.33132e-06 1.8824e-06 0)
(-1.14525e-06 1.60922e-06 0)
(-9.84782e-07 1.37427e-06 0)
(-8.4657e-07 1.17228e-06 0)
(-7.27697e-07 9.98657e-07 0)
(-6.25627e-07 8.49409e-07 0)
(-5.3816e-07 7.21072e-07 0)
(-4.63389e-07 6.10633e-07 0)
(-3.9967e-07 5.15471e-07 0)
(-3.45586e-07 4.33304e-07 0)
(-2.99926e-07 3.62138e-07 0)
(-2.61657e-07 3.00229e-07 0)
(-2.29907e-07 2.46043e-07 0)
(-2.03947e-07 1.98221e-07 0)
(-1.83178e-07 1.55553e-07 0)
(-1.67117e-07 1.16946e-07 0)
(-1.55389e-07 8.14042e-08 0)
(-1.4772e-07 4.80007e-08 0)
(-1.43929e-07 1.58609e-08 0)
(-0.0154772 0.0341888 0)
(-0.0144242 0.0314799 0)
(-0.013428 0.0289568 0)
(-0.0124867 0.0266094 0)
(-0.0115984 0.0244277 0)
(-0.0107613 0.0224025 0)
(-0.00997354 0.0205244 0)
(-0.00923304 0.0187849 0)
(-0.00853798 0.0171754 0)
(-0.00788636 0.015688 0)
(-0.00727626 0.0143149 0)
(-0.00670587 0.0130488 0)
(-0.00617322 0.0118826 0)
(-0.00567644 0.0108097 0)
(-0.00521378 0.00982367 0)
(-0.00478347 0.00891855 0)
(-0.00438374 0.00808863 0)
(-0.00401286 0.00732851 0)
(-0.00366921 0.00663311 0)
(-0.00335123 0.00599762 0)
(-0.0030574 0.00541755 0)
(-0.00278622 0.00488865 0)
(-0.00253626 0.00440694 0)
(-0.00230613 0.00396871 0)
(-0.00209453 0.00357048 0)
(-0.00190022 0.00320899 0)
(-0.00172203 0.00288124 0)
(-0.00155884 0.00258439 0)
(-0.00140956 0.00231582 0)
(-0.00127319 0.00207311 0)
(-0.00114876 0.00185401 0)
(-0.00103536 0.00165644 0)
(-0.000932149 0.00147847 0)
(-0.000838315 0.00131833 0)
(-0.000753113 0.0011744 0)
(-0.000675844 0.00104516 0)
(-0.000605853 0.000929257 0)
(-0.000542533 0.000825411 0)
(-0.000485317 0.000732472 0)
(-0.000433679 0.000649379 0)
(-0.000387129 0.00057517 0)
(-0.000345217 0.000508962 0)
(-0.000307524 0.000449954 0)
(-0.000273666 0.000397418 0)
(-0.000243286 0.000350691 0)
(-0.00021606 0.000309174 0)
(-0.000191687 0.000272323 0)
(-0.000169893 0.000239646 0)
(-0.000150427 0.0002107 0)
(-0.00013306 0.000185083 0)
(-0.000117582 0.000162436 0)
(-0.000103804 0.000142434 0)
(-9.15509e-05 0.000124785 0)
(-8.06667e-05 0.000109227 0)
(-7.10087e-05 9.5526e-05 0)
(-6.24477e-05 8.34713e-05 0)
(-5.48672e-05 7.28752e-05 0)
(-4.81619e-05 6.35701e-05 0)
(-4.22368e-05 5.54061e-05 0)
(-3.70066e-05 4.82501e-05 0)
(-3.23944e-05 4.19832e-05 0)
(-2.83314e-05 3.65001e-05 0)
(-2.47558e-05 3.17069e-05 0)
(-2.16121e-05 2.75207e-05 0)
(-1.88509e-05 2.38679e-05 0)
(-1.64281e-05 2.06832e-05 0)
(-1.43043e-05 1.79091e-05 0)
(-1.24443e-05 1.54948e-05 0)
(-1.08169e-05 1.33954e-05 0)
(-9.39434e-06 1.15713e-05 0)
(-8.15205e-06 9.98787e-06 0)
(-7.06818e-06 8.61442e-06 0)
(-6.12339e-06 7.42411e-06 0)
(-5.3006e-06 6.39336e-06 0)
(-4.58471e-06 5.50149e-06 0)
(-3.9624e-06 4.7304e-06 0)
(-3.42194e-06 4.06426e-06 0)
(-2.95299e-06 3.4892e-06 0)
(-2.54647e-06 2.99315e-06 0)
(-2.1944e-06 2.56555e-06 0)
(-1.88978e-06 2.1972e-06 0)
(-1.6265e-06 1.88009e-06 0)
(-1.39917e-06 1.60724e-06 0)
(-1.20313e-06 1.37258e-06 0)
(-1.03427e-06 1.17084e-06 0)
(-8.89044e-07 9.97431e-07 0)
(-7.64343e-07 8.48367e-07 0)
(-6.57482e-07 7.20188e-07 0)
(-5.66133e-07 6.09885e-07 0)
(-4.88285e-07 5.1484e-07 0)
(-4.2221e-07 4.32773e-07 0)
(-3.66426e-07 3.61695e-07 0)
(-3.19672e-07 2.99862e-07 0)
(-2.80883e-07 2.45742e-07 0)
(-2.49167e-07 1.97979e-07 0)
(-2.23793e-07 1.55363e-07 0)
(-2.04171e-07 1.16804e-07 0)
(-1.89843e-07 8.13048e-08 0)
(-1.80474e-07 4.79422e-08 0)
(-1.75843e-07 1.58415e-08 0)
(-0.0182822 0.0341381 0)
(-0.0170384 0.0314332 0)
(-0.0158616 0.0289139 0)
(-0.0147497 0.0265699 0)
(-0.0137005 0.0243915 0)
(-0.0127117 0.0223692 0)
(-0.0117811 0.020494 0)
(-0.0109064 0.018757 0)
(-0.0100854 0.01715 0)
(-0.00931564 0.0156647 0)
(-0.00859497 0.0142937 0)
(-0.0079212 0.0130294 0)
(-0.00729202 0.011865 0)
(-0.00670521 0.0107936 0)
(-0.0061587 0.00980909 0)
(-0.0056504 0.00890532 0)
(-0.00517822 0.00807663 0)
(-0.00474012 0.00731764 0)
(-0.0043342 0.00662326 0)
(-0.00395859 0.00598872 0)
(-0.00361151 0.00540951 0)
(-0.00329118 0.00488139 0)
(-0.00299591 0.0044004 0)
(-0.00272408 0.00396282 0)
(-0.00247413 0.00356518 0)
(-0.00224461 0.00320423 0)
(-0.00203413 0.00287696 0)
(-0.00184135 0.00258055 0)
(-0.00166502 0.00231238 0)
(-0.00150394 0.00207003 0)
(-0.00135696 0.00185126 0)
(-0.00122301 0.00165398 0)
(-0.00110109 0.00147627 0)
(-0.000990247 0.00131637 0)
(-0.000889603 0.00117265 0)
(-0.00079833 0.00104361 0)
(-0.000715655 0.000927878 0)
(-0.000640859 0.000824187 0)
(-0.000573273 0.000731385 0)
(-0.000512276 0.000648416 0)
(-0.00045729 0.000574316 0)
(-0.000407782 0.000508207 0)
(-0.000363258 0.000449286 0)
(-0.000323263 0.000396828 0)
(-0.000287378 0.000350171 0)
(-0.000255218 0.000308715 0)
(-0.000226427 0.000271919 0)
(-0.000200684 0.00023929 0)
(-0.00017769 0.000210387 0)
(-0.000157175 0.000184809 0)
(-0.000138892 0.000162196 0)
(-0.000122617 0.000142223 0)
(-0.000108143 0.0001246 0)
(-9.52863e-05 0.000109065 0)
(-8.38779e-05 9.53844e-05 0)
(-7.37654e-05 8.33475e-05 0)
(-6.4811e-05 7.27672e-05 0)
(-5.68905e-05 6.34758e-05 0)
(-4.98916e-05 5.5324e-05 0)
(-4.37135e-05 4.81786e-05 0)
(-3.82655e-05 4.1921e-05 0)
(-3.34661e-05 3.6446e-05 0)
(-2.92424e-05 3.166e-05 0)
(-2.5529e-05 2.748e-05 0)
(-2.22674e-05 2.38325e-05 0)
(-1.94055e-05 2.06526e-05 0)
(-1.68967e-05 1.78826e-05 0)
(-1.46996e-05 1.54718e-05 0)
(-1.27773e-05 1.33755e-05 0)
(-1.10969e-05 1.15542e-05 0)
(-9.6295e-06 9.97308e-06 0)
(-8.34919e-06 8.60167e-06 0)
(-7.23317e-06 7.41313e-06 0)
(-6.26126e-06 6.3839e-06 0)
(-5.41563e-06 5.49335e-06 0)
(-4.68053e-06 4.72341e-06 0)
(-4.04212e-06 4.05825e-06 0)
(-3.48818e-06 3.48404e-06 0)
(-3.00798e-06 2.98873e-06 0)
(-2.5921e-06 2.56176e-06 0)
(-2.23228e-06 2.19396e-06 0)
(-1.92128e-06 1.87731e-06 0)
(-1.65276e-06 1.60487e-06 0)
(-1.42118e-06 1.37056e-06 0)
(-1.22172e-06 1.16911e-06 0)
(-1.05017e-06 9.9596e-07 0)
(-9.0287e-07 8.47117e-07 0)
(-7.76642e-07 7.19127e-07 0)
(-6.68737e-07 6.08986e-07 0)
(-5.76781e-07 5.14082e-07 0)
(-4.98731e-07 4.32136e-07 0)
(-4.32837e-07 3.61163e-07 0)
(-3.77609e-07 2.99421e-07 0)
(-3.3179e-07 2.45381e-07 0)
(-2.94326e-07 1.97688e-07 0)
(-2.64353e-07 1.55135e-07 0)
(-2.41175e-07 1.16632e-07 0)
(-2.24251e-07 8.11855e-08 0)
(-2.13184e-07 4.78718e-08 0)
(-2.07713e-07 1.58183e-08 0)
(-0.0210827 0.0340789 0)
(-0.0196483 0.0313788 0)
(-0.0182913 0.0288638 0)
(-0.0170091 0.0265239 0)
(-0.0157991 0.0243492 0)
(-0.0146589 0.0223304 0)
(-0.0135857 0.0204585 0)
(-0.0125771 0.0187245 0)
(-0.0116302 0.0171202 0)
(-0.0107426 0.0156376 0)
(-0.00991156 0.0142689 0)
(-0.00913458 0.0130069 0)
(-0.00840902 0.0118444 0)
(-0.00773232 0.0107749 0)
(-0.0071021 0.0097921 0)
(-0.00651594 0.00888989 0)
(-0.00597142 0.00806263 0)
(-0.00546622 0.00730496 0)
(-0.00499812 0.00661179 0)
(-0.00456498 0.00597835 0)
(-0.00416473 0.00540014 0)
(-0.00379533 0.00487293 0)
(-0.00345483 0.00439278 0)
(-0.00314135 0.00395596 0)
(-0.00285312 0.003559 0)
(-0.00258844 0.00319868 0)
(-0.00234572 0.00287198 0)
(-0.00212342 0.00257608 0)
(-0.00192008 0.00230838 0)
(-0.00173431 0.00206645 0)
(-0.00156482 0.00184805 0)
(-0.00141035 0.00165111 0)
(-0.00126975 0.00147371 0)
(-0.00114193 0.00131409 0)
(-0.00102587 0.00117062 0)
(-0.000920618 0.0010418 0)
(-0.000825279 0.00092627 0)
(-0.000739026 0.000822758 0)
(-0.000661088 0.000730117 0)
(-0.000590747 0.000647292 0)
(-0.000527339 0.000573321 0)
(-0.000470247 0.000507326 0)
(-0.000418903 0.000448508 0)
(-0.000372781 0.000396141 0)
(-0.000331399 0.000349564 0)
(-0.000294312 0.00030818 0)
(-0.000261112 0.000271448 0)
(-0.000231425 0.000238876 0)
(-0.000204909 0.000210023 0)
(-0.000181252 0.000184489 0)
(-0.000160168 0.000161915 0)
(-0.000141399 0.000141977 0)
(-0.000124709 0.000124384 0)
(-0.000109882 0.000108876 0)
(-9.67265e-05 9.52192e-05 0)
(-8.50649e-05 8.32032e-05 0)
(-7.47389e-05 7.26412e-05 0)
(-6.5605e-05 6.33659e-05 0)
(-5.75341e-05 5.52282e-05 0)
(-5.04096e-05 4.80951e-05 0)
(-4.4127e-05 4.18484e-05 0)
(-3.85925e-05 3.63829e-05 0)
(-3.37218e-05 3.16052e-05 0)
(-2.94395e-05 2.74324e-05 0)
(-2.56784e-05 2.37913e-05 0)
(-2.23781e-05 2.06168e-05 0)
(-1.9485e-05 1.78516e-05 0)
(-1.69513e-05 1.54451e-05 0)
(-1.47345e-05 1.33524e-05 0)
(-1.27968e-05 1.15342e-05 0)
(-1.11046e-05 9.95584e-06 0)
(-9.62813e-06 8.5868e-06 0)
(-8.34117e-06 7.40031e-06 0)
(-7.22038e-06 6.37287e-06 0)
(-6.24521e-06 5.48386e-06 0)
(-5.39751e-06 4.71525e-06 0)
(-4.6613e-06 4.05124e-06 0)
(-4.0225e-06 3.47803e-06 0)
(-3.46875e-06 2.98357e-06 0)
(-2.98917e-06 2.55734e-06 0)
(-2.57423e-06 2.19017e-06 0)
(-2.21559e-06 1.87408e-06 0)
(-1.90593e-06 1.6021e-06 0)
(-1.63888e-06 1.36819e-06 0)
(-1.40887e-06 1.1671e-06 0)
(-1.21104e-06 9.94244e-07 0)
(-1.04118e-06 8.45657e-07 0)
(-8.95612e-07 7.17888e-07 0)
(-7.71178e-07 6.07938e-07 0)
(-6.65136e-07 5.13197e-07 0)
(-5.75129e-07 4.31393e-07 0)
(-4.99142e-07 3.60541e-07 0)
(-4.35454e-07 2.98906e-07 0)
(-3.82615e-07 2.44959e-07 0)
(-3.39413e-07 1.97349e-07 0)
(-3.04849e-07 1.54868e-07 0)
(-2.7812e-07 1.16432e-07 0)
(-2.58604e-07 8.10461e-08 0)
(-2.45841e-07 4.77897e-08 0)
(-2.39533e-07 1.57911e-08 0)
(-0.023878 0.0340113 0)
(-0.0222535 0.0313165 0)
(-0.0207165 0.0288066 0)
(-0.0192642 0.0264713 0)
(-0.0178939 0.024301 0)
(-0.0166024 0.0222862 0)
(-0.015387 0.0204179 0)
(-0.0142446 0.0186874 0)
(-0.0131723 0.0170863 0)
(-0.012167 0.0156066 0)
(-0.0112257 0.0142406 0)
(-0.0103457 0.0129811 0)
(-0.00952394 0.0118209 0)
(-0.00875753 0.0107536 0)
(-0.00804375 0.00977269 0)
(-0.00737987 0.00887227 0)
(-0.00676315 0.00804665 0)
(-0.00619097 0.00729047 0)
(-0.00566081 0.00659868 0)
(-0.00517024 0.00596649 0)
(-0.00471692 0.00538943 0)
(-0.00429854 0.00486327 0)
(-0.00391289 0.00438407 0)
(-0.00355785 0.00394811 0)
(-0.0032314 0.00355195 0)
(-0.00293163 0.00319234 0)
(-0.00265673 0.00286629 0)
(-0.00240495 0.00257097 0)
(-0.00217466 0.0023038 0)
(-0.00196426 0.00206235 0)
(-0.00177229 0.00184439 0)
(-0.00159735 0.00164784 0)
(-0.00143811 0.00147079 0)
(-0.00129334 0.00131149 0)
(-0.00116189 0.0011683 0)
(-0.00104268 0.00103974 0)
(-0.0009347 0.000924433 0)
(-0.000837011 0.000821127 0)
(-0.000748739 0.00072867 0)
(-0.000669072 0.000646009 0)
(-0.000597257 0.000572184 0)
(-0.000532595 0.00050632 0)
(-0.000474444 0.000447619 0)
(-0.000422207 0.000395355 0)
(-0.000375339 0.000348871 0)
(-0.000333334 0.000307569 0)
(-0.000295732 0.000270909 0)
(-0.000262109 0.000238402 0)
(-0.000232077 0.000209606 0)
(-0.000205283 0.000184123 0)
(-0.000181404 0.000161594 0)
(-0.000160147 0.000141695 0)
(-0.000141243 0.000124138 0)
(-0.000124451 0.000108661 0)
(-0.000109551 9.50305e-05 0)
(-9.63434e-05 8.30383e-05 0)
(-8.46483e-05 7.24972e-05 0)
(-7.43034e-05 6.32404e-05 0)
(-6.51623e-05 5.51188e-05 0)
(-5.70933e-05 4.79999e-05 0)
(-4.99777e-05 4.17655e-05 0)
(-4.37094e-05 3.63108e-05 0)
(-3.81929e-05 3.15426e-05 0)
(-3.33428e-05 2.73781e-05 0)
(-2.9083e-05 2.37442e-05 0)
(-2.53451e-05 2.0576e-05 0)
(-2.20685e-05 1.78163e-05 0)
(-1.91989e-05 1.54145e-05 0)
(-1.66881e-05 1.3326e-05 0)
(-1.44935e-05 1.15114e-05 0)
(-1.25769e-05 9.93614e-06 0)
(-1.09047e-05 8.56981e-06 0)
(-9.4471e-06 7.38567e-06 0)
(-8.17771e-06 6.36026e-06 0)
(-7.07325e-06 5.47302e-06 0)
(-6.11316e-06 4.70592e-06 0)
(-5.27934e-06 4.04323e-06 0)
(-4.55584e-06 3.47115e-06 0)
(-3.92867e-06 2.97767e-06 0)
(-3.3855e-06 2.55229e-06 0)
(-2.91554e-06 2.18585e-06 0)
(-2.50935e-06 1.87038e-06 0)
(-2.15864e-06 1.59894e-06 0)
(-1.85618e-06 1.36549e-06 0)
(-1.59567e-06 1.1648e-06 0)
(-1.37161e-06 9.92283e-07 0)
(-1.17923e-06 8.4399e-07 0)
(-1.01436e-06 7.16473e-07 0)
(-8.73429e-07 6.0674e-07 0)
(-7.53327e-07 5.12186e-07 0)
(-6.51387e-07 4.30543e-07 0)
(-5.65324e-07 3.59832e-07 0)
(-4.93192e-07 2.98318e-07 0)
(-4.33347e-07 2.44477e-07 0)
(-3.84417e-07 1.9696e-07 0)
(-3.4527e-07 1.54564e-07 0)
(-3.14998e-07 1.16203e-07 0)
(-2.92893e-07 8.08868e-08 0)
(-2.78439e-07 4.76957e-08 0)
(-2.71294e-07 1.57601e-08 0)
(-0.0266674 0.0339354 0)
(-0.0248531 0.0312466 0)
(-0.0231366 0.0287422 0)
(-0.0215147 0.0264122 0)
(-0.0199842 0.0242467 0)
(-0.0185419 0.0222364 0)
(-0.0171845 0.0203723 0)
(-0.0159086 0.0186457 0)
(-0.014711 0.0170481 0)
(-0.0135883 0.0155718 0)
(-0.0125371 0.0142088 0)
(-0.0115543 0.0129521 0)
(-0.0106365 0.0117945 0)
(-0.00978058 0.0107296 0)
(-0.00898341 0.00975086 0)
(-0.00824197 0.00885245 0)
(-0.00755322 0.00802868 0)
(-0.00691419 0.00727419 0)
(-0.0063221 0.00658394 0)
(-0.00577423 0.00595317 0)
(-0.00526795 0.0053774 0)
(-0.0048007 0.00485241 0)
(-0.00436999 0.00437428 0)
(-0.00397347 0.0039393 0)
(-0.00360889 0.00354402 0)
(-0.0032741 0.00318521 0)
(-0.00296709 0.00285989 0)
(-0.0026859 0.00256523 0)
(-0.0024287 0.00229866 0)
(-0.00219373 0.00205774 0)
(-0.00197933 0.00184027 0)
(-0.00178395 0.00164416 0)
(-0.0016061 0.00146751 0)
(-0.00144443 0.00130856 0)
(-0.00129762 0.00116569 0)
(-0.00116448 0.00103742 0)
(-0.00104389 0.000922368 0)
(-0.000934789 0.000819293 0)
(-0.000836206 0.000727042 0)
(-0.000747232 0.000644566 0)
(-0.000667027 0.000570907 0)
(-0.000594812 0.00050519 0)
(-0.000529868 0.000446619 0)
(-0.000471529 0.000394472 0)
(-0.000419185 0.000348092 0)
(-0.000372274 0.000306883 0)
(-0.000330279 0.000270305 0)
(-0.000292728 0.00023787 0)
(-0.000259188 0.000209138 0)
(-0.000229264 0.000183712 0)
(-0.000202596 0.000161233 0)
(-0.000178855 0.000141379 0)
(-0.000157743 0.000123861 0)
(-0.00013899 0.000108418 0)
(-0.000122349 9.48184e-05 0)
(-0.000107598 8.2853e-05 0)
(-9.45369e-05 7.23354e-05 0)
(-8.29835e-05 6.30992e-05 0)
(-7.27745e-05 5.49958e-05 0)
(-6.37628e-05 4.78928e-05 0)
(-5.58161e-05 4.16723e-05 0)
(-4.88155e-05 3.62298e-05 0)
(-4.26545e-05 3.14722e-05 0)
(-3.72379e-05 2.7317e-05 0)
(-3.24804e-05 2.36912e-05 0)
(-2.83059e-05 2.05301e-05 0)
(-2.46465e-05 1.77766e-05 0)
(-2.14417e-05 1.53801e-05 0)
(-1.86376e-05 1.32962e-05 0)
(-1.61866e-05 1.14857e-05 0)
(-1.40461e-05 9.91399e-06 0)
(-1.21786e-05 8.55071e-06 0)
(-1.05507e-05 7.36922e-06 0)
(-9.13304e-06 6.34609e-06 0)
(-7.89955e-06 5.46082e-06 0)
(-6.8273e-06 4.69544e-06 0)
(-5.89607e-06 4.03422e-06 0)
(-5.08806e-06 3.46342e-06 0)
(-4.38762e-06 2.97104e-06 0)
(-3.781e-06 2.54661e-06 0)
(-3.25614e-06 2.18098e-06 0)
(-2.80249e-06 1.86621e-06 0)
(-2.41081e-06 1.59538e-06 0)
(-2.07302e-06 1.36246e-06 0)
(-1.78208e-06 1.16221e-06 0)
(-1.53185e-06 9.90077e-07 0)
(-1.31699e-06 8.42114e-07 0)
(-1.13286e-06 7.14881e-07 0)
(-9.75465e-07 6.05392e-07 0)
(-8.41332e-07 5.11049e-07 0)
(-7.27484e-07 4.29587e-07 0)
(-6.31367e-07 3.59033e-07 0)
(-5.50808e-07 2.97656e-07 0)
(-4.83973e-07 2.43935e-07 0)
(-4.29326e-07 1.96524e-07 0)
(-3.85606e-07 1.54221e-07 0)
(-3.51798e-07 1.15945e-07 0)
(-3.27111e-07 8.07075e-08 0)
(-3.10968e-07 4.759e-08 0)
(-3.02988e-07 1.57252e-08 0)
(-0.0294502 0.033851 0)
(-0.0274466 0.031169 0)
(-0.0255509 0.0286708 0)
(-0.0237598 0.0263465 0)
(-0.0220696 0.0241864 0)
(-0.0204768 0.0221812 0)
(-0.0189778 0.0203217 0)
(-0.0175688 0.0185993 0)
(-0.0162462 0.0170058 0)
(-0.0150063 0.0155331 0)
(-0.0138454 0.0141735 0)
(-0.01276 0.0129199 0)
(-0.0117465 0.0117652 0)
(-0.0108012 0.0107029 0)
(-0.00992086 0.00972663 0)
(-0.00910205 0.00883046 0)
(-0.00834142 0.00800873 0)
(-0.00763571 0.00725612 0)
(-0.00698183 0.00656758 0)
(-0.00637679 0.00593838 0)
(-0.00581768 0.00536403 0)
(-0.00530166 0.00484036 0)
(-0.00482601 0.00436341 0)
(-0.00438811 0.00392951 0)
(-0.00398548 0.00353521 0)
(-0.00361577 0.0031773 0)
(-0.00327671 0.00285278 0)
(-0.00296618 0.00255886 0)
(-0.00268214 0.00229294 0)
(-0.00242265 0.00205263 0)
(-0.00218588 0.00183569 0)
(-0.00197011 0.00164007 0)
(-0.00177371 0.00146386 0)
(-0.00159516 0.0013053 0)
(-0.00143303 0.00116279 0)
(-0.001286 0.00103484 0)
(-0.00115282 0.000920076 0)
(-0.00103234 0.000817257 0)
(-0.000923466 0.000725236 0)
(-0.000825208 0.000642965 0)
(-0.000736633 0.000569488 0)
(-0.000656883 0.000503934 0)
(-0.000585161 0.00044551 0)