/*--------------------------------*- C++ -*----------------------------------*\
| =========                 |                                                 |
| \\      /  F ield         | OpenFOAM: The Open Source CFD Toolbox           |
|  \\    /   O peration     | Version:  2406                                  |
|   \\  /    A nd           | Website:  www.openfoam.com                      |
|    \\/     M anipulation  |                                                 |
\*---------------------------------------------------------------------------*/
FoamFile
{
    version     2.0;
    format      ascii;
    arch        "LSB;label=32;scalar=64";
    class       volScalarField;
    location    "175";
    object      gradTx;
}
// * * * * * * * * * * * * * * * * * * * * * * * * * * * * * * * * * * * * * //

dimensions      [0 -1 0 1 0 0 0];

internalField   nonuniform List<scalar> 
20000
(
5.53144
5.47173
5.38309
5.26912
5.13329
4.97919
4.80957
4.62701
4.43429
4.23381
4.02759
3.8175
3.60525
3.39242
3.18042
2.97047
2.76365
2.56089
2.36301
2.1707
1.98453
1.80498
1.63244
1.46721
1.30952
1.15951
1.01728
0.882851
0.756214
0.637303
0.526011
0.422202
0.325705
0.236326
0.15385
0.0780398
0.00864832
-0.0545854
-0.11193
-0.163662
-0.210059
-0.251401
-0.287969
-0.320041
-0.347892
-0.371792
-0.392006
-0.408792
-0.422399
-0.43307
-0.441038
-0.446528
-0.449754
-0.450922
-0.450226
-0.447854
-0.443979
-0.438769
-0.432378
-0.424955
-0.416636
-0.407549
-0.397814
-0.387542
-0.376836
-0.365791
-0.354493
-0.343024
-0.331456
-0.319858
-0.308288
-0.296804
-0.285454
-0.274283
-0.263332
-0.252636
-0.242226
-0.232131
-0.222375
-0.212981
-0.203965
-0.195345
-0.187133
-0.179342
-0.171982
-0.16506
-0.158582
-0.152556
-0.146984
-0.14187
-0.137216
-0.133025
-0.129298
-0.126036
-0.123239
-0.120908
-0.119043
-0.117644
-0.116712
-0.116246
16.593
16.4139
16.1478
15.806
15.3988
14.9363
14.4274
13.8799
13.3018
12.7004
12.0818
11.4515
10.8148
10.1764
9.54047
8.91067
8.29026
7.68205
7.08846
6.51157
5.9531
5.4145
4.89692
4.40128
3.92823
3.47824
3.05158
2.64833
2.26846
1.91175
1.5779
1.2665
0.977035
0.708921
0.461511
0.2341
0.0259429
-0.163743
-0.335764
-0.490945
-0.630124
-0.75414
-0.863836
-0.960044
-1.04359
-1.11529
-1.17592
-1.22627
-1.26709
-1.2991
-1.32301
-1.33947
-1.34915
-1.35265
-1.35057
-1.34345
-1.33183
-1.3162
-1.29703
-1.27476
-1.2498
-1.22255
-1.19334
-1.16253
-1.13042
-1.09728
-1.06339
-1.02899
-0.994287
-0.959494
-0.924789
-0.890338
-0.856291
-0.822782
-0.789931
-0.757844
-0.726618
-0.696336
-0.667072
-0.638889
-0.611844
-0.585985
-0.561353
-0.537983
-0.515903
-0.495138
-0.475708
-0.457629
-0.440915
-0.425574
-0.411614
-0.399042
-0.387862
-0.378076
-0.369686
-0.362694
-0.3571
-0.352904
-0.350107
-0.348709
27.6505
27.3521
26.9086
26.339
25.6606
24.8898
24.0415
23.1293
22.1662
21.164
20.133
19.0827
18.0217
16.9579
15.8982
14.8487
13.8148
12.8013
11.8122
10.8508
9.9202
9.02268
8.1602
7.33426
6.54598
5.79612
5.08513
4.41317
3.78014
3.18573
2.62941
2.11049
1.62812
1.18134
0.769058
0.390103
0.0432308
-0.27286
-0.559514
-0.818107
-1.05003
-1.25669
-1.43949
-1.59981
-1.73903
-1.8585
-1.95955
-2.04345
-2.11147
-2.16481
-2.20465
-2.23209
-2.24821
-2.25405
-2.25058
-2.23872
-2.21935
-2.1933
-2.16136
-2.12425
-2.08266
-2.03724
-1.98858
-1.93723
-1.88372
-1.8285
-1.77203
-1.7147
-1.65687
-1.59889
-1.54106
-1.48365
-1.42692
-1.37108
-1.31633
-1.26287
-1.21083
-1.16037
-1.1116
-1.06464
-1.01957
-0.976482
-0.935435
-0.89649
-0.859697
-0.825094
-0.792717
-0.76259
-0.734737
-0.709173
-0.685911
-0.664961
-0.64633
-0.630023
-0.616042
-0.604391
-0.595069
-0.588077
-0.583416
-0.581085
38.7011
38.2834
37.6628
36.8655
35.9159
34.837
33.6498
32.373
31.025
29.6223
28.1792
26.7092
25.2242
23.7352
22.2519
20.783
19.336
17.9174
16.533
15.1874
13.8849
12.6286
11.4215
10.2654
9.1621
8.11256
7.11742
6.17691
5.29089
4.45892
3.68026
2.95395
2.27881
1.65347
1.07641
0.546008
0.0605076
-0.38191
-0.783127
-1.14507
-1.46968
-1.75894
-2.01479
-2.23918
-2.43404
-2.60126
-2.74269
-2.86013
-2.95533
-3.02999
-3.08574
-3.12415
-3.14672
-3.15489
-3.15003
-3.13343
-3.10632
-3.06986
-3.02515
-2.97322
-2.91501
-2.85143
-2.78332
-2.71146
-2.63655
-2.55927
-2.48023
-2.39998
-2.31905
-2.2379
-2.15695
-2.0766
-1.99719
-1.91903
-1.84241
-1.76758
-1.69474
-1.62412
-1.55586
-1.49013
-1.42705
-1.36674
-1.30929
-1.25478
-1.20328
-1.15485
-1.10953
-1.06736
-1.02838
-0.992597
-0.960038
-0.930716
-0.904639
-0.881814
-0.862246
-0.845938
-0.83289
-0.823105
-0.816581
-0.813319
49.7421
49.2053
48.4076
47.3829
46.1624
44.7757
43.2497
41.6088
39.8763
38.0733
36.2185
34.3291
32.4204
30.5066
28.6002
26.7122
24.8524
23.0291
21.2497
19.5203
17.8461
16.2315
14.6799
13.1941
11.776
10.427
9.14796
7.93912
6.80033
5.731
4.73021
3.79669
2.92893
2.12519
1.38351
0.701779
0.0777692
-0.490866
-1.00655
-1.47175
-1.88897
-2.26075
-2.58959
-2.878
-3.12846
-3.34338
-3.52516
-3.6761
-3.79846
-3.89442
-3.96608
-4.01544
-4.04446
-4.05496
-4.04871
-4.02737
-3.99253
-3.94567
-3.8882
-3.82145
-3.74664
-3.66492
-3.57738
-3.48501
-3.38874
-3.28941
-3.18781
-3.08468
-2.98065
-2.87635
-2.77231
-2.66904
-2.56697
-2.46652
-2.36804
-2.27185
-2.17824
-2.08746
-1.99973
-1.91525
-1.83417
-1.75666
-1.68281
-1.61275
-1.54656
-1.48431
-1.42607
-1.37187
-1.32176
-1.27578
-1.23393
-1.19624
-1.16272
-1.13339
-1.10824
-1.08728
-1.07051
-1.05793
-1.04954
-1.04535
60.7708
60.1151
59.1405
57.8887
56.3976
54.7034
52.839
50.8343
48.7177
46.5149
44.2489
41.9405
39.6086
37.2705
34.9414
32.6349
30.3627
28.1351
25.9611
23.8483
21.8029
19.8303
17.9347
16.1194
14.3869
12.7389
11.1762
9.69938
8.3081
7.00168
5.77898
4.63849
3.57833
2.59638
1.69025
0.857376
0.0950113
-0.599702
-1.22972
-1.79806
-2.3078
-2.762
-3.16375
-3.51611
-3.8221
-4.08467
-4.30675
-4.49117
-4.64066
-4.75789
-4.84544
-4.90575
-4.94119
-4.95402
-4.94638
-4.92031
-4.87775
-4.8205
-4.7503
-4.66874
-4.57734
-4.47751
-4.37056
-4.25771
-4.14008
-4.01873
-3.89461
-3.76861
-3.64152
-3.51409
-3.38699
-3.26082
-3.13612
-3.01339
-2.89308
-2.77556
-2.6612
-2.55029
-2.44311
-2.3399
-2.24085
-2.14614
-2.05593
-1.97033
-1.88947
-1.81342
-1.74226
-1.67604
-1.61483
-1.55864
-1.50751
-1.46147
-1.42052
-1.38468
-1.35396
-1.32835
-1.30786
-1.29249
-1.28225
-1.27713
71.7846
71.01
69.8589
68.3801
66.6188
64.6176
62.4153
60.0472
57.547
54.945
52.2683
49.5415
46.7871
44.0252
41.274
38.5495
35.8655
33.2342
30.6662
28.1704
25.7544
23.4243
21.1851
19.0408
16.9943
15.0476
13.2018
11.4572
9.81381
8.27062
6.82634
5.47914
4.22685
3.06694
1.99659
1.01276
0.112229
-0.70839
-1.45259
-2.12393
-2.72605
-3.26257
-3.73714
-4.15335
-4.51479
-4.82496
-5.08729
-5.30512
-5.48171
-5.62019
-5.7236
-5.79484
-5.83671
-5.85186
-5.84284
-5.81205
-5.76176
-5.69414
-5.61121
-5.51488
-5.40691
-5.28899
-5.16265
-5.02935
-4.89041
-4.74707
-4.60045
-4.45161
-4.30149
-4.15097
-4.00083
-3.85179
-3.70449
-3.55953
-3.4174
-3.27859
-3.1435
-3.01249
-2.88589
-2.76397
-2.64697
-2.53509
-2.42853
-2.32742
-2.2319
-2.14207
-2.05801
-1.9798
-1.90749
-1.84112
-1.78073
-1.72634
-1.67797
-1.63563
-1.59934
-1.56909
-1.54489
-1.52674
-1.51464
-1.50859
82.7807
81.8874
80.56
78.8546
76.8235
74.5158
71.9762
69.2454
66.3622
63.3616
60.2748
57.1303
53.954
50.7691
47.5965
44.4545
41.3594
38.3251
35.3637
32.4856
29.6995
27.0124
24.4303
21.9576
19.5976
17.3526
15.224
13.2123
11.3171
9.53753
7.872
6.31844
4.87432
3.53673
2.30242
1.1679
0.129419
-0.816903
-1.6751
-2.44928
-3.14363
-3.76234
-4.3096
-4.78957
-5.20638
-5.56406
-5.86657
-6.11777
-6.3214
-6.4811
-6.60035
-6.6825
-6.73078
-6.74826
-6.73785
-6.70234
-6.64436
-6.56638
-6.47075
-6.35965
-6.23515
-6.09916
-5.95348
-5.79975
-5.63953
-5.47423
-5.30516
-5.13352
-4.9604
-4.78682
-4.61368
-4.44181
-4.27195
-4.10478
-3.94089
-3.78081
-3.62503
-3.47395
-3.32796
-3.18736
-3.05243
-2.92342
-2.80054
-2.68394
-2.57379
-2.4702
-2.37326
-2.28307
-2.19968
-2.12315
-2.0535
-1.99078
-1.93501
-1.88618
-1.84433
-1.80945
-1.78154
-1.7606
-1.74665
-1.73967
93.7563
92.7446
91.2412
89.3098
87.0094
84.3956
81.5193
78.4264
75.161
71.7625
68.2664
64.705
61.1076
57.5004
53.9072
50.3486
46.8431
43.4065
40.0525
36.7928
33.6372
30.5939
27.6694
24.8688
22.1959
19.6533
17.2425
14.9641
12.8176
10.8021
8.91573
7.15619
5.52059
4.00565
2.60769
1.32274
0.146577
-0.925216
-1.8972
-2.77403
-3.56044
-4.26118
-4.88099
-5.42461
-5.89668
-6.30178
-6.6444
-6.9289
-7.15954
-7.34041
-7.47547
-7.56852
-7.6232
-7.64299
-7.63121
-7.59099
-7.52532
-7.437
-7.32869
-7.20286
-7.06185
-6.90783
-6.74283
-6.56873
-6.38726
-6.20004
-6.00855
-5.81415
-5.61809
-5.42149
-5.2254
-5.03074
-4.83836
-4.64902
-4.4634
-4.2821
-4.10566
-3.93455
-3.7692
-3.60996
-3.45715
-3.31103
-3.17185
-3.0398
-2.91504
-2.79771
-2.68793
-2.58577
-2.49133
-2.40465
-2.32577
-2.25474
-2.19156
-2.13627
-2.08886
-2.04935
-2.01775
-1.99404
-1.97823
-1.97033
104.709
103.579
101.9
99.7428
97.1737
94.2546
91.0422
87.5881
83.9412
80.1457
76.2413
72.2638
68.2461
64.2175
60.2045
56.2303
52.3153
48.4772
44.7314
41.0909
37.5667
34.1679
30.9017
27.774
24.7889
21.9492
19.2568
16.7121
14.3149
12.064
9.95725
7.99216
6.1655
4.47359
2.91232
1.47726
0.163697
-1.0333
-2.11883
-3.09809
-3.97637
-4.75896
-5.45119
-6.05831
-6.58552
-7.03795
-7.42059
-7.73833
-7.99591
-8.19791
-8.34874
-8.45266
-8.51373
-8.53584
-8.52267
-8.47776
-8.40442
-8.30578
-8.18481
-8.04429
-7.88681
-7.7148
-7.53052
-7.33608
-7.13341
-6.92432
-6.71047
-6.49336
-6.27439
-6.05482
-5.83582
-5.61842
-5.40357
-5.19211
-4.98481
-4.78233
-4.58528
-4.39418
-4.20951
-4.03167
-3.86101
-3.69782
-3.54238
-3.39491
-3.25557
-3.12454
-3.00193
-2.88784
-2.78236
-2.68556
-2.59747
-2.51813
-2.44758
-2.38582
-2.33288
-2.28876
-2.25346
-2.22698
-2.20933
-2.2005
115.636
114.388
112.533
110.151
107.314
104.09
100.543
96.7282
92.7007
88.5092
84.1972
79.8047
75.3677
70.9188
66.4871
62.0981
57.7746
53.536
49.3993
45.3789
41.4869
37.7334
34.1264
30.6723
27.3756
24.2397
21.2663
18.4561
15.8087
13.3229
10.9963
8.82616
6.80889
4.94042
3.21623
1.63141
0.180777
-1.14113
-2.33993
-3.42139
-4.39131
-5.25558
-6.02004
-6.69051
-7.27274
-7.77238
-8.19495
-8.54585
-8.83031
-9.05338
-9.21996
-9.33472
-9.40216
-9.42658
-9.41204
-9.36244
-9.28144
-9.17251
-9.03892
-8.88374
-8.70982
-8.51986
-8.31635
-8.10162
-7.8778
-7.6469
-7.41072
-7.17096
-6.92914
-6.68666
-6.44481
-6.20472
-5.96745
-5.73392
-5.50498
-5.28138
-5.06376
-4.85273
-4.64879
-4.45239
-4.26391
-4.0837
-3.91204
-3.74917
-3.5953
-3.45059
-3.31519
-3.1892
-3.07271
-2.9658
-2.86852
-2.78091
-2.70299
-2.63479
-2.57632
-2.5276
-2.48861
-2.45937
-2.43988
-2.43013
126.534
125.168
123.139
120.533
117.428
113.9
110.018
105.844
101.437
96.8508
92.1325
87.326
82.4708
77.6026
72.7532
67.9506
63.2196
58.5815
54.0549
49.6556
45.3969
41.2896
37.3427
33.563
29.9557
26.5242
23.2705
20.1955
17.2986
14.5785
12.0327
9.65799
7.45059
5.40603
3.51934
1.78517
0.197812
-1.24868
-2.56047
-3.74384
-4.80518
-5.75089
-6.5874
-7.32106
-7.95817
-8.50489
-8.96729
-9.35126
-9.66253
-9.90663
-10.0889
-10.2145
-10.2883
-10.315
-10.2991
-10.2448
-10.1562
-10.037
-9.8908
-9.72099
-9.53068
-9.32282
-9.10013
-8.86516
-8.62025
-8.36758
-8.10915
-7.84679
-7.58218
-7.31685
-7.0522
-6.78949
-6.52986
-6.27432
-6.02381
-5.77912
-5.541
-5.31008
-5.08692
-4.872
-4.66577
-4.46857
-4.28074
-4.10252
-3.93414
-3.7758
-3.62763
-3.48976
-3.3623
-3.24531
-3.13886
-3.04299
-2.95774
-2.88311
-2.81913
-2.76581
-2.72315
-2.69116
-2.66983
-2.65916
137.401
135.918
133.715
130.884
127.513
123.682
119.467
114.935
110.149
105.168
100.045
94.8257
89.5536
84.2673
79.0014
73.7864
68.649
63.6126
58.6973
53.9201
49.2956
44.8356
40.5497
36.4455
32.5283
28.8021
25.269
21.9299
18.7843
15.8305
13.066
10.4874
8.09046
5.8703
3.82158
1.93847
0.214797
-1.35592
-2.78037
-4.06537
-5.21786
-6.24479
-7.15314
-7.94981
-8.64163
-9.23531
-9.73742
-10.1544
-10.4924
-10.7574
-10.9554
-11.0917
-11.1719
-11.2009
-11.1836
-11.1246
-11.0284
-10.899
-10.7402
-10.5558
-10.3492
-10.1235
-9.88167
-9.62652
-9.36058
-9.08621
-8.80558
-8.52068
-8.23335
-7.94523
-7.65786
-7.37258
-7.09065
-6.81317
-6.54114
-6.27544
-6.01687
-5.76612
-5.52379
-5.29042
-5.06647
-4.85234
-4.64837
-4.45485
-4.27201
-4.10007
-3.93918
-3.78947
-3.65106
-3.52403
-3.40844
-3.30433
-3.21175
-3.13072
-3.06124
-3.00334
-2.95702
-2.92228
-2.89912
-2.88754
148.234
146.634
144.257
141.203
137.566
133.434
128.886
123.996
118.834
113.46
107.933
102.302
96.6142
90.9112
85.2301
79.6039
74.0615
68.628
63.3251
58.1713
53.1822
48.3706
43.7468
39.3189
35.0929
31.0729
27.2613
23.6589
20.2653
17.0786
14.0962
11.3143
8.72833
6.33313
4.12288
2.09131
0.231729
-1.46283
-2.99958
-4.3859
-5.62925
-6.73715
-7.71711
-8.57659
-9.32296
-9.96344
-10.5051
-10.955
-11.3196
-11.6056
-11.8191
-11.9662
-12.0527
-12.084
-12.0653
-12.0017
-11.8979
-11.7583
-11.587
-11.3881
-11.1652
-10.9216
-10.6608
-10.3855
-10.0986
-9.80259
-9.49983
-9.19248
-8.88249
-8.57166
-8.26162
-7.95386
-7.64969
-7.35034
-7.05686
-6.77022
-6.49126
-6.22073
-5.9593
-5.70753
-5.46592
-5.23491
-5.01486
-4.80608
-4.60883
-4.42333
-4.24975
-4.08824
-3.93892
-3.80187
-3.67717
-3.56485
-3.46497
-3.37755
-3.3026
-3.24014
-3.19016
-3.15268
-3.12769
-3.1152
159.03
157.314
154.764
151.488
147.586
143.152
138.273
133.027
127.489
121.724
115.794
109.753
103.651
97.5326
91.4377
85.4018
79.4557
73.6265
67.9374
62.4082
57.0557
51.8936
46.9331
42.1827
37.6489
33.3361
29.2469
25.3821
21.7413
18.3225
15.1229
12.1383
9.36404
6.79439
4.42316
2.24362
0.248604
-1.56938
-3.21805
-4.70534
-6.03925
-7.22785
-8.27918
-9.20126
-10.002
-10.6891
-11.2703
-11.7529
-12.1441
-12.4509
-12.6799
-12.8378
-12.9305
-12.9641
-12.9441
-12.8759
-12.7645
-12.6147
-12.431
-12.2175
-11.9784
-11.7171
-11.4372
-11.1419
-10.8341
-10.5165
-10.1917
-9.862
-9.52943
-9.19596
-8.86335
-8.53317
-8.20685
-7.88569
-7.57084
-7.26332
-6.96404
-6.67381
-6.39334
-6.12323
-5.86403
-5.61619
-5.38011
-5.15613
-4.94451
-4.7455
-4.55928
-4.38601
-4.22581
-4.07878
-3.94499
-3.8245
-3.71734
-3.62355
-3.54314
-3.47613
-3.42251
-3.3823
-3.35549
-3.34209
169.787
167.955
165.233
161.735
157.569
152.836
147.627
142.026
136.112
129.958
123.627
117.177
110.662
104.13
97.6228
91.1786
84.8303
78.6068
72.5328
66.6297
60.9151
55.4038
50.1077
45.036
40.1956
35.591
31.2252
27.099
23.2119
19.5619
16.1458
12.9594
9.99745
7.25398
4.72235
2.39538
0.265417
-1.67554
-3.43573
-5.02362
-6.44776
-7.71676
-8.83921
-9.82366
-10.6785
-11.4122
-12.0326
-12.5479
-12.9655
-13.2931
-13.5376
-13.7061
-13.8052
-13.841
-13.8197
-13.7468
-13.6279
-13.468
-13.2718
-13.044
-12.7886
-12.5097
-12.2109
-11.8956
-11.567
-11.2279
-10.8811
-10.5291
-10.174
-9.818
-9.46289
-9.11037
-8.76198
-8.4191
-8.08295
-7.75463
-7.43511
-7.12525
-6.8258
-6.53742
-6.26069
-5.99609
-5.74404
-5.5049
-5.27897
-5.06649
-4.86768
-4.68269
-4.51165
-4.35468
-4.21184
-4.0832
-3.96879
-3.86866
-3.78281
-3.71126
-3.65402
-3.61109
-3.58247
-3.56816
180.503
178.555
175.66
171.942
167.513
162.481
156.943
150.989
144.702
138.159
131.429
124.572
117.646
110.702
103.784
96.9329
90.184
83.5677
77.1104
70.8347
64.7595
58.9004
53.27
47.8782
42.7323
37.8372
33.1958
28.8092
24.6768
20.7965
17.1648
13.7773
10.6284
7.71177
5.02038
2.54655
0.282164
-1.78128
-3.65257
-5.34067
-6.85469
-8.20377
-9.39706
-10.4436
-11.3525
-12.1324
-12.792
-13.3397
-13.7838
-14.132
-14.392
-14.5711
-14.6764
-14.7145
-14.6918
-14.6144
-14.488
-14.3179
-14.1094
-13.8672
-13.5957
-13.2992
-12.9815
-12.6463
-12.2969
-11.9365
-11.5678
-11.1936
-10.8161
-10.4376
-10.0601
-9.68533
-9.31496
-8.95043
-8.59307
-8.24402
-7.90434
-7.57492
-7.25658
-6.95
-6.6558
-6.3745
-6.10655
-5.85232
-5.61213
-5.38624
-5.17488
-4.97821
-4.79638
-4.6295
-4.47765
-4.34089
-4.21926
-4.11281
-4.02154
-3.94548
-3.88463
-3.83898
-3.80856
-3.79334
191.173
189.111
186.045
182.107
177.416
172.087
166.221
159.915
153.257
146.327
139.198
131.936
124.601
117.246
109.919
102.663
95.5154
88.508
81.6689
75.0222
68.5879
62.3824
56.4192
50.7087
45.2585
40.074
35.1582
30.5123
26.1356
22.0259
18.1795
14.5917
11.2567
8.16767
5.31716
2.69709
0.298841
-1.88659
-3.8685
-5.6564
-7.25992
-8.68875
-9.95259
-11.061
-12.0236
-12.8496
-13.5482
-14.1284
-14.5986
-14.9674
-15.2428
-15.4325
-15.544
-15.5844
-15.5604
-15.4784
-15.3445
-15.1644
-14.9435
-14.6869
-14.3994
-14.0854
-13.7489
-13.3939
-13.0239
-12.6422
-12.2517
-11.8553
-11.4555
-11.0547
-10.6548
-10.2579
-9.86563
-9.47955
-9.10106
-8.73139
-8.37162
-8.02273
-7.68556
-7.36086
-7.04927
-6.75134
-6.46755
-6.19829
-5.9439
-5.70466
-5.4808
-5.27251
-5.07993
-4.90318
-4.74235
-4.59751
-4.46869
-4.35595
-4.25929
-4.17873
-4.11427
-4.06593
-4.03371
-4.0176
201.797
199.62
196.384
192.226
187.275
181.65
175.458
168.802
161.773
154.459
146.934
139.268
131.525
123.761
116.028
108.368
100.823
93.4264
86.2073
79.1913
72.3993
65.849
59.5544
53.5266
47.7735
42.3009
37.112
32.2079
27.588
23.2499
19.1898
15.4026
11.8822
8.62154
5.61264
2.84697
0.315445
-1.99143
-4.08348
-5.97073
-7.66336
-9.17159
-10.5057
-11.6757
-12.6918
-13.5637
-14.3011
-14.9135
-15.4099
-15.7992
-16.0899
-16.2901
-16.4078
-16.4504
-16.4251
-16.3385
-16.1972
-16.0071
-15.7739
-15.5031
-15.1996
-14.8681
-14.513
-14.1382
-13.7476
-13.3447
-12.9325
-12.5141
-12.0921
-11.669
-11.2469
-10.8279
-10.4139
-10.0063
-9.60681
-9.21659
-8.83683
-8.46856
-8.11265
-7.76991
-7.441
-7.12652
-6.82695
-6.54273
-6.2742
-6.02167
-5.78537
-5.56551
-5.36223
-5.17566
-5.00589
-4.85299
-4.71702
-4.59801
-4.49598
-4.41094
-4.34291
-4.29188
-4.25786
-4.24086
212.371
210.079
206.674
202.299
197.088
191.168
184.652
177.647
170.25
162.552
154.633
146.566
138.417
130.246
122.107
114.047
106.106
98.3218
90.7245
83.3407
76.1929
69.2994
62.675
56.3313
50.2768
44.5174
39.0566
33.8956
29.0335
24.4681
20.1953
16.2097
12.5048
9.07329
5.90673
2.99614
0.331971
-2.09578
-4.29744
-6.28358
-8.0649
-9.65217
-11.0561
-12.2875
-13.3568
-14.2744
-15.0505
-15.6949
-16.2173
-16.627
-16.9329
-17.1437
-17.2676
-17.3124
-17.2857
-17.1946
-17.0459
-16.8458
-16.6005
-16.3154
-15.996
-15.6472
-15.2734
-14.879
-14.468
-14.0439
-13.6102
-13.1698
-12.7257
-12.2804
-11.8362
-11.3953
-10.9595
-10.5307
-10.1102
-9.69953
-9.29987
-8.91229
-8.53774
-8.17704
-7.8309
-7.49994
-7.18467
-6.88556
-6.60296
-6.3372
-6.08852
-5.85713
-5.6432
-5.44685
-5.26819
-5.10728
-4.96419
-4.83894
-4.73156
-4.64207
-4.57047
-4.51677
-4.48097
-4.46307
222.892
220.487
216.913
212.321
206.853
200.639
193.8
186.448
178.685
170.605
162.294
153.827
145.274
136.699
128.157
119.697
111.363
103.193
95.2192
87.4697
79.9677
72.7327
65.7801
59.1221
52.7676
46.7229
40.9916
35.5748
30.4719
25.6803
21.1958
17.0127
13.1244
9.5228
6.19936
3.14457
0.348414
-2.19961
-4.51035
-6.59489
-8.46446
-10.1304
-11.6039
-12.8962
-14.0185
-14.9816
-15.7961
-16.4725
-17.0208
-17.4508
-17.7718
-17.9931
-18.1231
-18.1701
-18.1421
-18.0465
-17.8904
-17.6804
-17.4229
-17.1238
-16.7885
-16.4224
-16.0301
-15.6162
-15.1848
-14.7397
-14.2845
-13.8223
-13.3562
-12.8888
-12.4226
-11.9598
-11.5025
-11.0524
-10.6111
-10.1801
-9.76061
-9.35383
-8.96072
-8.58215
-8.21886
-7.8715
-7.54062
-7.22669
-6.93009
-6.65116
-6.39016
-6.14731
-5.92278
-5.7167
-5.52919
-5.36031
-5.21013
-5.07867
-4.96597
-4.87205
-4.7969
-4.74054
-4.70297
-4.68418
233.359
230.841
227.099
222.291
216.566
210.06
202.901
195.203
187.075
178.616
169.915
161.05
152.096
143.118
134.175
125.318
116.592
108.039
99.6904
91.577
83.7228
76.148
68.8689
61.8983
55.2455
48.9169
42.9164
37.2453
31.9028
26.8862
22.1911
17.8116
13.7406
9.96997
6.49046
3.29223
0.364772
-2.3029
-4.72215
-6.90457
-8.86193
-10.6061
-12.1488
-13.5018
-14.6768
-15.6851
-16.5379
-17.246
-17.82
-18.2702
-18.6064
-18.838
-18.9741
-19.0233
-18.994
-18.8939
-18.7304
-18.5106
-18.241
-17.9278
-17.5769
-17.1935
-16.7828
-16.3495
-15.8978
-15.4318
-14.9552
-14.4714
-13.9834
-13.494
-13.006
-12.5215
-12.0426
-11.5714
-11.1093
-10.6581
-10.2189
-9.79306
-9.3815
-8.98515
-8.6048
-8.24113
-7.89471
-7.56603
-7.25551
-6.96348
-6.69022
-6.43597
-6.2009
-5.98514
-5.78883
-5.61202
-5.45478
-5.31715
-5.19916
-5.10083
-5.02215
-4.96315
-4.92381
-4.90414
243.768
241.137
237.228
232.206
226.226
219.43
211.951
203.91
195.42
186.583
177.494
168.234
158.88
149.502
140.159
130.907
121.793
112.858
104.137
95.6618
87.4572
79.5445
71.9408
64.6592
57.7096
51.0988
44.8307
38.9066
33.3258
28.0854
23.1809
18.6061
14.3535
10.4147
6.77996
3.43908
0.38104
-2.40563
-4.93278
-7.21255
-9.25722
-11.0791
-12.6907
-14.1041
-15.3314
-16.3847
-17.2755
-18.0152
-18.6149
-19.0851
-19.4363
-19.6782
-19.8204
-19.8719
-19.8412
-19.7366
-19.5659
-19.3363
-19.0546
-18.7275
-18.3609
-17.9604
-17.5314
-17.0787
-16.6069
-16.1202
-15.6223
-15.1168
-14.6071
-14.0959
-13.5861
-13.08
-12.5798
-12.0875
-11.6049
-11.1335
-10.6747
-10.2299
-9.79995
-9.38592
-8.98861
-8.60872
-8.24685
-7.90351
-7.57914
-7.27408
-6.98864
-6.72304
-6.47748
-6.25211
-6.04703
-5.86234
-5.69809
-5.55432
-5.43107
-5.32835
-5.24616
-5.18452
-5.14343
-5.12289
254.116
251.374
247.299
242.064
235.83
228.745
220.949
212.566
203.716
194.505
185.029
175.376
165.625
155.849
146.11
136.465
126.963
117.649
108.558
99.7229
91.17
82.9215
74.9949
67.4042
60.1596
53.2681
46.7339
40.5583
34.7406
29.2777
24.165
19.396
14.9629
10.8568
7.06779
3.58507
0.397213
-2.50776
-5.1422
-7.51875
-9.65021
-11.5495
-13.2294
-14.7028
-15.9823
-17.0803
-18.0089
-18.78
-19.4051
-19.8954
-20.2614
-20.5136
-20.6618
-20.7155
-20.6835
-20.5745
-20.3965
-20.1571
-19.8636
-19.5225
-19.1404
-18.7229
-18.2757
-17.8038
-17.3119
-16.8045
-16.2855
-15.7586
-15.2272
-14.6943
-14.1628
-13.6352
-13.1138
-12.6006
-12.0975
-11.6061
-11.1279
-10.6642
-10.216
-9.78439
-9.37021
-8.97418
-8.59695
-8.23904
-7.90089
-7.58289
-7.28533
-7.00846
-6.75247
-6.51753
-6.30375
-6.11121
-5.93999
-5.79012
-5.66163
-5.55455
-5.46888
-5.40462
-5.36179
-5.34037
264.402
261.549
257.309
251.863
245.375
238.004
229.892
221.171
211.962
202.378
192.518
182.475
172.329
162.157
152.024
141.988
132.103
122.411
112.952
103.759
94.8604
86.2779
78.0305
70.1326
62.5947
55.4243
48.6255
42.2
36.1468
30.4628
25.1431
20.1811
15.5685
11.2963
7.35387
3.73018
0.413289
-2.60927
-5.35034
-7.82309
-10.0408
-12.017
-13.7649
-15.298
-16.6292
-17.7717
-18.7379
-19.5402
-20.1906
-20.7007
-21.0816
-21.344
-21.4982
-21.554
-21.5207
-21.4073
-21.2221
-20.9731
-20.6676
-20.3128
-19.9151
-19.4808
-19.0154
-18.5244
-18.0127
-17.4847
-16.9447
-16.3965
-15.8436
-15.2891
-14.7361
-14.1872
-13.6446
-13.1107
-12.5872
-12.0759
-11.5784
-11.0958
-10.6295
-10.1804
-9.74949
-9.33744
-8.94494
-8.57254
-8.2207
-7.88983
-7.58022
-7.29214
-7.0258
-6.78135
-6.55891
-6.35858
-6.18043
-6.02449
-5.8908
-5.77939
-5.69025
-5.62339
-5.57882
-5.55653
274.623
271.66
267.256
261.599
254.861
247.205
238.779
229.72
220.156
210.201
199.96
189.528
178.991
168.425
157.9
147.477
137.209
127.143
117.318
107.77
98.5273
89.6131
81.0469
72.8436
65.0144
57.5668
50.5052
43.8313
37.5441
31.6404
26.1151
20.9612
16.1703
11.7329
7.63814
3.87438
0.429263
-2.71013
-5.55717
-8.1255
-10.429
-12.4815
-14.297
-15.8893
-17.2721
-18.4586
-19.4622
-20.2956
-20.9711
-21.5009
-21.8965
-22.169
-22.3292
-22.3872
-22.3527
-22.2348
-22.0425
-21.7838
-21.4665
-21.098
-20.6849
-20.2338
-19.7505
-19.2405
-18.709
-18.1606
-17.5997
-17.0303
-16.456
-15.8801
-15.3058
-14.7356
-14.1721
-13.6175
-13.0738
-12.5427
-12.0259
-11.5247
-11.0404
-10.574
-10.1264
-9.69839
-9.29071
-8.90392
-8.53848
-8.19482
-7.87324
-7.57403
-7.29739
-7.04349
-6.81245
-6.60438
-6.41934
-6.25737
-6.11852
-6.00279
-5.91021
-5.84077
-5.79448
-5.77133
284.776
281.703
277.137
271.27
264.283
256.344
247.607
238.213
228.295
217.972
207.353
196.535
185.608
174.652
163.738
152.93
142.282
131.843
121.656
111.755
102.17
92.9261
84.0432
75.5367
67.418
59.695
52.3724
45.4518
38.9321
32.8102
27.0805
21.7361
16.7682
12.1667
7.92052
4.01761
0.445131
-2.81033
-5.76262
-8.4259
-10.8145
-12.943
-14.8256
-16.4768
-17.9106
-19.1411
-20.1817
-21.0459
-21.7464
-22.2958
-22.706
-22.9886
-23.1547
-23.2148
-23.179
-23.0569
-22.8574
-22.5892
-22.2602
-21.878
-21.4497
-20.9819
-20.4807
-19.9519
-19.4007
-18.832
-18.2504
-17.6599
-17.0644
-16.4672
-15.8716
-15.2804
-14.696
-14.1209
-13.5571
-13.0065
-12.4705
-11.9508
-11.4486
-10.9649
-10.5007
-10.0569
-9.6342
-9.2331
-8.85416
-8.49778
-8.16432
-7.85404
-7.56718
-7.30389
-7.06431
-6.84855
-6.65667
-6.48871
-6.34473
-6.22472
-6.12871
-6.05671
-6.0087
-5.9847
294.859
291.677
286.949
280.875
273.64
265.42
256.374
246.647
236.378
225.69
214.694
203.494
192.18
180.836
169.535
158.344
147.319
136.511
125.963
115.712
105.787
96.2163
87.0188
78.2111
69.805
61.8086
54.2267
47.061
40.3105
33.9718
28.0394
22.5057
17.3619
12.5975
8.20095
4.15986
0.460889
-2.90983
-5.96665
-8.72423
-11.1974
-13.4012
-15.3505
-17.0601
-18.5448
-19.8188
-20.8963
-21.791
-22.5164
-23.0852
-23.5099
-23.8026
-23.9745
-24.0368
-23.9997
-23.8732
-23.6667
-23.3889
-23.0483
-22.6526
-22.2091
-21.7247
-21.2058
-20.6583
-20.0876
-19.4988
-18.8966
-18.2852
-17.6686
-17.0503
-16.4336
-15.8214
-15.2164
-14.6209
-14.0371
-13.467
-12.9121
-12.374
-11.8539
-11.3531
-10.8725
-10.413
-9.9753
-9.56001
-9.16765
-8.79866
-8.45339
-8.13212
-7.8351
-7.56249
-7.31443
-7.09103
-6.89235
-6.71845
-6.56937
-6.44512
-6.34571
-6.27115
-6.22145
-6.19659
304.869
301.579
296.69
290.41
282.93
274.431
265.077
255.021
244.402
233.351
221.983
210.402
198.704
186.975
175.291
163.72
152.321
141.146
130.239
119.64
109.379
99.4827
89.973
80.8662
72.1747
63.9069
56.0676
48.6587
41.679
35.1251
28.9912
23.2697
17.9513
13.0251
8.47936
4.30108
0.476534
-3.00862
-6.16921
-9.02041
-11.5776
-13.8562
-15.8716
-17.6393
-19.1743
-20.4916
-21.6057
-22.5308
-23.2808
-23.8689
-24.3081
-24.6106
-24.7884
-24.8528
-24.8145
-24.6837
-24.4701
-24.183
-23.8307
-23.4216
-22.9631
-22.4623
-21.9257
-21.3596
-20.7695
-20.1607
-19.5381
-18.9059
-18.2684
-17.6291
-16.9915
-16.3585
-15.7329
-15.1173
-14.5137
-13.9241
-13.3504
-12.794
-12.2563
-11.7385
-11.2416
-10.7665
-10.3139
-9.88455
-9.47887
-9.09736
-8.74036
-8.4082
-8.10109
-7.81922
-7.56275
-7.33176
-7.12634
-6.94653
-6.79239
-6.66392
-6.56113
-6.48405
-6.43265
-6.40696
314.804
311.407
306.359
299.873
292.15
283.374
273.715
263.331
252.367
240.956
229.217
217.259
205.18
193.068
181.003
169.055
157.284
145.745
134.484
123.538
112.943
102.724
92.9049
83.5014
74.5267
65.9894
57.8947
50.2443
43.0372
36.2697
29.936
24.028
18.5362
13.4496
8.75568
4.44123
0.492061
-3.10666
-6.37025
-9.31436
-11.9549
-14.3077
-16.3888
-18.2141
-19.7991
-21.1593
-22.3097
-23.265
-24.0394
-24.6467
-25.1002
-25.4126
-25.5962
-25.6627
-25.6231
-25.4881
-25.2675
-24.971
-24.6073
-24.1848
-23.7114
-23.1942
-22.6402
-22.0556
-21.4463
-20.8177
-20.1747
-19.522
-18.8637
-18.2036
-17.5452
-16.8916
-16.2456
-15.6099
-14.9866
-14.3779
-13.7855
-13.2109
-12.6557
-12.1211
-11.608
-11.1174
-10.65
-10.2067
-9.78776
-9.39381
-9.02519
-8.6822
-8.36508
-8.07403
-7.80919
-7.57068
-7.35856
-7.1729
-7.01373
-6.88108
-6.77494
-6.69534
-6.64228
-6.61574
324.661
321.157
315.951
309.263
301.298
292.247
282.286
271.576
260.269
248.5
236.394
224.061
211.604
199.113
186.671
174.348
162.209
150.309
138.694
127.407
116.479
105.941
95.814
86.116
76.8603
68.0557
59.7075
51.8175
44.3848
37.4054
30.8733
24.7804
19.1166
13.8707
9.02983
4.58029
0.507467
-3.20394
-6.56971
-9.60601
-12.3292
-14.7557
-16.902
-18.7844
-20.4191
-21.8219
-23.0083
-23.9935
-24.7921
-25.4184
-25.8861
-26.2083
-26.3977
-26.4662
-26.4254
-26.2861
-26.0587
-25.7529
-25.3778
-24.9421
-24.4538
-23.9205
-23.3491
-22.7462
-22.1178
-21.4695
-20.8065
-20.1333
-19.4544
-18.7736
-18.0945
-17.4205
-16.7543
-16.0987
-15.4559
-14.8281
-14.2171
-13.6246
-13.052
-12.5006
-11.9714
-11.4655
-10.9835
-10.5263
-10.0942
-9.68795
-9.30778
-8.95405
-8.62701
-8.32684
-8.05371
-7.80773
-7.58897
-7.3975
-7.23335
-7.09654
-6.98708
-6.90499
-6.85026
-6.8229
334.438
330.829
325.466
318.576
310.371
301.047
290.787
279.755
268.107
255.984
243.513
230.809
217.976
205.11
192.292
179.599
167.094
154.835
142.871
131.243
119.987
109.131
98.6994
88.7094
79.1749
70.1051
61.5055
53.378
45.7214
38.5319
31.8031
25.5266
19.6923
14.2884
9.30176
4.71822
0.522748
-3.30042
-6.76756
-9.89529
-12.7005
-15.2001
-17.411
-19.3501
-21.034
-22.479
-23.7012
-24.716
-25.5387
-26.1839
-26.6657
-26.9976
-27.1926
-27.2632
-27.2212
-27.0777
-26.8435
-26.5284
-26.1421
-25.6932
-25.1902
-24.6408
-24.0523
-23.4312
-22.7839
-22.1161
-21.433
-20.7396
-20.0402
-19.3389
-18.6394
-17.9451
-17.2589
-16.5835
-15.9213
-15.2746
-14.6452
-14.0349
-13.4451
-12.877
-12.3319
-11.8108
-11.3143
-10.8432
-10.3982
-9.9797
-9.58808
-9.2237
-8.8868
-8.5776
-8.29625
-8.04286
-7.81751
-7.62027
-7.45117
-7.31024
-7.19749
-7.11293
-7.05655
-7.02836
344.132
340.419
334.9
327.811
319.368
309.774
299.216
287.864
275.879
263.404
250.572
237.499
224.295
211.055
197.866
184.805
171.938
159.324
147.013
135.048
123.465
112.295
101.56
91.2808
81.4699
72.1373
63.2884
54.9253
47.0467
39.6488
32.7249
26.2666
20.2631
14.7026
9.57139
4.85499
0.537899
-3.39609
-6.96373
-10.1821
-13.0686
-15.6407
-17.9157
-19.911
-21.6437
-23.1306
-24.3882
-25.4325
-26.279
-26.9429
-27.4386
-27.7802
-27.9809
-28.0535
-28.0103
-27.8626
-27.6216
-27.2974
-26.8998
-26.438
-25.9204
-25.3551
-24.7495
-24.1104
-23.4444
-22.7572
-22.0543
-21.3408
-20.6211
-19.8995
-19.1798
-18.4653
-17.7591
-17.0642
-16.3828
-15.7174
-15.0698
-14.4417
-13.8348
-13.2503
-12.6894
-12.1531
-11.6423
-11.1576
-10.6996
-10.269
-9.86602
-9.49107
-9.14441
-8.82625
-8.53674
-8.276
-8.04412
-7.84116
-7.66717
-7.52215
-7.40613
-7.31911
-7.2611
-7.2321
353.742
349.925
344.252
336.965
328.286
318.424
307.571
295.903
283.582
270.759
257.569
244.131
230.558
216.949
203.392
189.965
176.739
163.773
151.118
138.819
126.913
115.431
104.396
93.8297
83.7449
74.1516
65.0557
56.459
48.3605
40.7559
33.6387
27
20.829
15.1131
9.83866
4.99056
0.552918
-3.49093
-7.15819
-10.4665
-13.4335
-16.0774
-18.416
-20.467
-22.2481
-23.7765
-25.0692
-26.1427
-27.0128
-27.6953
-28.2048
-28.5559
-28.7622
-28.8369
-28.7924
-28.6407
-28.3929
-28.0597
-27.651
-27.1763
-26.6442
-26.0631
-25.4406
-24.7837
-24.099
-23.3926
-22.6702
-21.9367
-21.1969
-20.4552
-19.7153
-18.9809
-18.255
-17.5407
-16.8403
-16.1563
-15.4906
-14.845
-14.2211
-13.6203
-13.0438
-12.4925
-11.9674
-11.4691
-10.9984
-10.5557
-10.1415
-9.7561
-9.39976
-9.07271
-8.77512