/*--------------------------------*- C++ -*----------------------------------*\
| =========                 |                                                 |
| \\      /  F ield         | OpenFOAM: The Open Source CFD Toolbox           |
|  \\    /   O peration     | Version:  2406                                  |
|   \\  /    A nd           | Website:  www.openfoam.com                      |
|    \\/     M anipulation  |                                                 |
\*---------------------------------------------------------------------------*/
FoamFile
{
    version     2.0;
    format      ascii;
    arch        "LSB;label=32;scalar=64";
    class       volScalarField;
    location    "15";
    object      gradTy;
}
// * * * * * * * * * * * * * * * * * * * * * * * * * * * * * * * * * * * * * //

dimensions      [0 -1 0 1 0 0 0];

internalField   nonuniform List<scalar> 
20000
(
72.2246
65.6528
59.6041
54.0453
48.9433
44.2673
39.9877
36.0765
32.5069
29.2535
26.2929
23.6023
21.1603
18.9473
16.9447
15.1348
13.5015
12.0295
10.7048
9.51434
8.44596
7.48843
6.63141
5.86538
5.18163
4.57214
4.02959
3.54726
3.11903
2.73932
2.40307
2.10568
1.84299
1.61126
1.40708
1.22742
1.06951
0.930906
0.809386
0.702976
0.609907
0.528603
0.457659
0.395828
0.342
0.295192
0.254535
0.219259
0.188686
0.162218
0.139327
0.119553
0.102487
0.0877757
0.075106
0.064206
0.054838
0.0467946
0.0398954
0.0339833
0.0289221
0.0245934
0.0208946
0.0177371
0.015044
0.0127493
0.0107957
0.00913404
0.0077219
0.00652286
0.00550565
0.00464343
0.0039132
0.00329526
0.00277278
0.00233137
0.00195875
0.00164444
0.00137951
0.00115639
0.0009686
0.00081066
0.00067791
0.000566397
0.00047277
0.000394191
0.000328254
0.000272925
0.000226479
0.000187458
0.000154624
0.000126926
0.000103471
8.34934e-05
6.63378e-05
5.14344e-05
3.82846e-05
2.64444e-05
1.55113e-05
5.11156e-06
72.2068
65.6367
59.5895
54.0319
48.9312
44.2564
39.9779
36.0675
32.4989
29.2464
26.2864
23.5964
21.1551
18.9427
16.9405
15.1311
13.4981
12.0265
10.7022
9.51201
8.44389
7.48658
6.62976
5.86392
5.18034
4.57102
4.0286
3.54639
3.11827
2.73865
2.40248
2.10516
1.84254
1.61086
1.40673
1.22711
1.06925
0.930675
0.809186
0.702802
0.609756
0.528472
0.457547
0.39573
0.341916
0.295119
0.254472
0.219205
0.18864
0.162178
0.139293
0.119523
0.102462
0.0877541
0.0750876
0.0641903
0.0548245
0.0467831
0.0398856
0.033975
0.028915
0.0245873
0.0208895
0.0177327
0.0150404
0.0127462
0.0107931
0.00913182
0.00772002
0.00652128
0.00550432
0.0046423
0.00391225
0.00329446
0.00277211
0.00233081
0.00195828
0.00164404
0.00137918
0.00115611
0.000968368
0.000810467
0.000677749
0.000566263
0.000472658
0.000394098
0.000328177
0.000272861
0.000226426
0.000187414
0.000154588
0.000126897
0.000103447
8.34745e-05
6.63229e-05
5.1423e-05
3.82762e-05
2.64388e-05
1.55082e-05
5.11059e-06
72.1711
65.6043
59.5602
54.0053
48.907
44.2345
39.9581
36.0497
32.4828
29.232
26.2734
23.5847
21.1447
18.9333
16.9321
15.1236
13.4915
12.0206
10.6969
9.50734
8.43972
7.48288
6.62648
5.86102
5.17778
4.56876
4.02662
3.54465
3.11673
2.7373
2.40129
2.10412
1.84163
1.61006
1.40604
1.2265
1.06872
0.930215
0.808786
0.702455
0.609455
0.528212
0.457321
0.395535
0.341747
0.294974
0.254347
0.219097
0.188547
0.162098
0.139224
0.119464
0.102412
0.0877109
0.0750506
0.0641586
0.0547975
0.0467601
0.039866
0.0339583
0.0289008
0.0245752
0.0208792
0.017724
0.015033
0.0127399
0.0107878
0.00912734
0.00771624
0.00651808
0.00550162
0.00464004
0.00391034
0.00329286
0.00277076
0.00232967
0.00195732
0.00164324
0.00137851
0.00115555
0.0009679
0.000810075
0.000677422
0.00056599
0.000472431
0.000393908
0.000328019
0.00027273
0.000226318
0.000187325
0.000154514
0.000126837
0.000103398
8.34353e-05
6.62919e-05
5.13993e-05
3.82587e-05
2.64268e-05
1.55013e-05
5.1084e-06
72.1176
65.5555
59.5161
53.9653
48.8709
44.2017
39.9285
36.0231
32.4587
29.2103
26.254
23.5673
21.129
18.9193
16.9196
15.1124
13.4815
12.0117
10.689
9.5003
8.43347
7.47733
6.62156
5.85668
5.17395
4.56538
4.02364
3.54203
3.11443
2.73527
2.39951
2.10256
1.84026
1.60887
1.40499
1.2256
1.06793
0.929526
0.808187
0.701935
0.609004
0.52782
0.456982
0.395242
0.341494
0.294756
0.254158
0.218935
0.188407
0.161978
0.139121
0.119376
0.102336
0.0876461
0.0749951
0.0641113
0.0547571
0.0467256
0.0398366
0.0339332
0.0288795
0.0245571
0.0208638
0.0177109
0.0150219
0.0127306
0.0107799
0.00912064
0.00771057
0.0065133
0.00549759
0.00463664
0.00390748
0.00329045
0.00276874
0.00232797
0.0019559
0.00164204
0.00137751
0.00115471
0.000967197
0.000809488
0.000676931
0.000565581
0.00047209
0.000393625
0.000327784
0.000272534
0.000226156
0.000187191
0.000154404
0.000126746
0.000103325
8.33763e-05
6.62452e-05
5.13631e-05
3.8232e-05
2.64085e-05
1.54906e-05
5.10491e-06
72.0465
65.4906
59.4572
53.912
48.8226
44.1581
39.8891
35.9875
32.4267
29.1815
26.2281
23.544
21.1081
18.9006
16.9029
15.0975
13.4682
11.9999
10.6785
9.49091
8.42513
7.46994
6.61502
5.85089
5.16884
4.56088
4.01967
3.53853
3.11135
2.73257
2.39714
2.10048
1.83844
1.60728
1.40361
1.22438
1.06687
0.928607
0.807388
0.701241
0.608402
0.527299
0.456531
0.394852
0.341157
0.294465
0.253908
0.218719
0.188221
0.161818
0.138984
0.119258
0.102235
0.0875597
0.0749212
0.0640481
0.0547031
0.0466796
0.0397973
0.0338998
0.0288511
0.024533
0.0208433
0.0176935
0.0150072
0.0127181
0.0107693
0.00911169
0.00770301
0.00650692
0.00549221
0.0046321
0.00390366
0.00328723
0.00276603
0.0023257
0.00195399
0.00164045
0.00137617
0.00115359
0.000966259
0.000808703
0.000676276
0.000565034
0.000471634
0.000393245
0.000327468
0.000272272
0.000225939
0.000187012
0.000154256
0.000126625
0.000103226
8.3297e-05
6.61824e-05
5.13146e-05
3.81959e-05
2.63836e-05
1.54761e-05
5.1001e-06
71.9576
65.4098
59.3838
53.8453
48.7622
44.1035
39.8398
35.943
32.3866
29.1454
26.1957
23.5149
21.082
18.8773
16.882
15.0788
13.4515
11.985
10.6653
9.47919
8.41472
7.4607
6.60684
5.84366
5.16246
4.55525
4.01471
3.53416
3.10751
2.7292
2.39418
2.09788
1.83617
1.60529
1.40187
1.22287
1.06555
0.927459
0.806391
0.700375
0.607651
0.526648
0.455967
0.394364
0.340735
0.294101
0.253594
0.218449
0.187989
0.161618
0.138813
0.119111
0.102109
0.0874517
0.0748288
0.0639691
0.0546357
0.046622
0.0397483
0.0338581
0.0288155
0.0245028
0.0208177
0.0176718
0.0149887
0.0127024
0.0107561
0.0091005
0.00769356
0.00649894
0.00548547
0.00462643
0.00389888
0.00328321
0.00276265
0.00232286
0.0019516
0.00163844
0.00137449
0.00115219
0.000965083
0.00080772
0.000675455
0.000564348
0.000471063
0.000392769
0.000327072
0.000271944
0.000225666
0.000186787
0.000154071
0.000126473
0.000103103
8.31973e-05
6.61033e-05
5.12534e-05
3.81504e-05
2.63522e-05
1.54576e-05
5.09405e-06
71.8508
65.3128
59.2957
53.7654
48.6899
44.0381
39.7807
35.8897
32.3386
29.1022
26.1568
23.48
21.0508
18.8492
16.8569
15.0564
13.4316
11.9672
10.6494
9.46512
8.40223
7.44963
6.59704
5.83499
5.1548
4.54849
4.00876
3.52892
3.1029
2.72515
2.39063
2.09477
1.83344
1.6029
1.39979
1.22105
1.06397
0.926083
0.805194
0.699335
0.606749
0.525866
0.455291
0.393779
0.34023
0.293665
0.253218
0.218125
0.18771
0.161379
0.138607
0.118935
0.101958
0.0873221
0.0747179
0.0638744
0.0545548
0.046553
0.0396895
0.033808
0.0287729
0.0244665
0.0207869
0.0176457
0.0149666
0.0126837
0.0107402
0.00908707
0.00768221
0.00648936
0.00547739
0.00461961
0.00389314
0.00327838
0.00275859
0.00231945
0.00194874
0.00163604
0.00137248
0.0011505
0.00096367
0.000806539
0.000674468
0.000563525
0.000470376
0.000392197
0.000326596
0.000271548
0.000225339
0.000186516
0.000153848
0.00012629
0.000102954
8.30773e-05
6.60081e-05
5.11796e-05
3.80956e-05
2.63144e-05
1.54355e-05
5.08676e-06
71.7263
65.1997
59.1929
53.6723
48.6055
43.9618
39.7118
35.8275
32.2825
29.0517
26.1115
23.4393
21.0143
18.8166
16.8277
15.0303
13.4083
11.9465
10.631
9.44871
8.38767
7.43672
6.58561
5.82488
5.14587
4.54061
4.00181
3.52281
3.09752
2.72042
2.38648
2.09114
1.83026
1.60013
1.39736
1.21894
1.06213
0.924478
0.803798
0.698123
0.605698
0.524955
0.454502
0.393097
0.339641
0.293156
0.252779
0.217747
0.187385
0.161099
0.138367
0.118729
0.101781
0.087171
0.0745887
0.0637639
0.0544604
0.0464725
0.0396208
0.0337495
0.0287232
0.0244243
0.020751
0.0176152
0.0149407
0.0126618
0.0107217
0.0090714
0.00766897
0.00647818
0.00546796
0.00461166
0.00388644
0.00327274
0.00275385
0.00231546
0.00194539
0.00163323
0.00137013
0.00114853
0.000962021
0.000805159
0.000673315
0.000562562
0.000469573
0.000391528
0.00032604
0.000271086
0.000224956
0.000186199
0.000153587
0.000126076
0.000102779
8.29368e-05
6.58965e-05
5.10932e-05
3.80313e-05
2.62701e-05
1.54095e-05
5.0782e-06
71.584
65.0704
59.0756
53.5659
48.5092
43.8746
39.633
35.7565
32.2185
28.9941
26.0597
23.3929
20.9726
18.7793
16.7944
15.0006
13.3817
11.9228
10.6099
9.42998
8.37104
7.42198
6.57255
5.81334
5.13567
4.53161
3.99388
3.51582
3.09138
2.71503
2.38175
2.08699
1.82663
1.59695
1.39459
1.21652
1.06002
0.922645
0.802205
0.696739
0.604497
0.523915
0.453601
0.392318
0.338968
0.292575
0.252279
0.217316
0.187014
0.16078
0.138093
0.118494
0.10158
0.0869984
0.074441
0.0636376
0.0543526
0.0463805
0.0395424
0.0336828
0.0286664
0.024376
0.02071
0.0175804
0.0149112
0.0126368
0.0107005
0.0090535
0.00765384
0.0064654
0.00545718
0.00460257
0.00387878
0.0032663
0.00274843
0.00231091
0.00194157
0.00163003
0.00136744
0.00114627
0.000960134
0.000803582
0.000671997
0.000561461
0.000468655
0.000390763
0.000325403
0.000270557
0.000224517
0.000185836
0.000153288
0.000125831
0.00010258
8.27759e-05
6.57688e-05
5.09943e-05
3.79577e-05
2.62192e-05
1.53797e-05
5.06839e-06
71.4242
64.9251
58.9437
53.4463
48.4008
43.7767
39.5445
35.6766
32.1466
28.9294
26.0015
23.3406
20.9258
18.7374
16.7569
14.9671
13.3518
11.8962
10.5862
9.40892
8.35234
7.4054
6.55788
5.80036
5.12421
4.52149
3.98496
3.50797
3.08448
2.70897
2.37643
2.08233
1.82255
1.59338
1.39148
1.2138
1.05765
0.920584
0.800413
0.695183
0.603147
0.522745
0.452588
0.391442
0.338211
0.291922
0.251715
0.216831
0.186596
0.160421
0.137785
0.118229
0.101353
0.0868043
0.0742749
0.0634957
0.0542314
0.0462771
0.0394543
0.0336077
0.0286025
0.0243217
0.0206638
0.0175412
0.014878
0.0126087
0.0106767
0.00903336
0.00763682
0.00645103
0.00544505
0.00459235
0.00387017
0.00325905
0.00274233
0.00230579
0.00193727
0.00162642
0.00136441
0.00114374
0.000958011
0.000801806
0.000670513
0.000560222
0.000467621
0.000389902
0.000324687
0.000269962
0.000224024
0.000185428
0.000152952
0.000125555
0.000102355
8.25946e-05
6.56249e-05
5.08827e-05
3.78748e-05
2.6162e-05
1.53461e-05
5.05731e-06
71.2467
64.7638
58.7972
53.3135
48.2806
43.6679
39.4463
35.588
32.0667
28.8575
25.9369
23.2826
20.8738
18.6908
16.7152
14.9299
13.3187
11.8666
10.5599
9.38554
8.33159
7.387
6.54158
5.78595
5.11148
4.51026
3.97506
3.49926
3.07681
2.70223
2.37052
2.07715
1.81802
1.58942
1.38802
1.21079
1.05502
0.918296
0.798424
0.693456
0.601648
0.521446
0.451464
0.39047
0.337371
0.291197
0.25109
0.216292
0.186133
0.160023
0.137443
0.117936
0.101101
0.0865888
0.0740906
0.0633381
0.0540968
0.0461623
0.0393564
0.0335244
0.0285316
0.0242614
0.0206126
0.0174978
0.0148411
0.0125774
0.0106502
0.00901099
0.00761792
0.00643507
0.00543158
0.00458099
0.00386061
0.003251
0.00273556
0.00230009
0.00193249
0.0016224
0.00136105
0.00114092
0.000955652
0.000799832
0.000668863
0.000558845
0.000466473
0.000388945
0.00032389
0.0002693
0.000223475
0.000184974
0.000152577
0.000125248
0.000102105
8.23929e-05
6.54647e-05
5.07586e-05
3.77824e-05
2.60982e-05
1.53087e-05
5.04498e-06
71.0516
64.5865
58.6362
53.1675
48.1484
43.5483
39.3383
35.4905
31.9789
28.7785
25.8659
23.2189
20.8166
18.6396
16.6695
14.889
13.2822
11.8341
10.531
9.35984
8.30878
7.36678
6.52368
5.77011
5.09748
4.49791
3.96418
3.48968
3.06839
2.69483
2.36403
2.07146
1.81304
1.58507
1.38422
1.20747
1.05213
0.915782
0.796238
0.691557
0.600001
0.520018
0.450228
0.389401
0.336447
0.2904
0.250403
0.2157
0.185624
0.159585
0.137066
0.117613
0.100825
0.0863519
0.0738879
0.0631649
0.0539489
0.0460361
0.0392488
0.0334327
0.0284536
0.0241951
0.0205563
0.01745
0.0148006
0.0125431
0.0106212
0.00898641
0.00759714
0.00641752
0.00541678
0.00456851
0.00385009
0.00324215
0.00272811
0.00229383
0.00192723
0.00161799
0.00135735
0.00113782
0.000953057
0.000797662
0.000667049
0.00055733
0.000465209
0.000387892
0.000323014
0.000268572
0.000222871
0.000184474
0.000152165
0.00012491
0.000101829
8.21709e-05
6.52884e-05
5.0622e-05
3.76807e-05
2.6028e-05
1.52675e-05
5.03141e-06
70.8391
64.3932
58.4608
53.0084
48.0043
43.418
39.2206
35.3843
31.8832
28.6924
25.7885
23.1494
20.7544
18.5839
16.6196
14.8444
13.2424
11.7987
10.4995
9.33184
8.28392
7.34474
6.50416
5.75284
5.08223
4.48445
3.95232
3.47923
3.05921
2.68677
2.35696
2.06527
1.80762
1.58033
1.38007
1.20386
1.04899
0.913041
0.793855
0.689488
0.598206
0.518463
0.448881
0.388236
0.335441
0.289531
0.249654
0.215055
0.185068
0.159108
0.136657
0.117261
0.100523
0.0860938
0.0736671
0.0629761
0.0537877
0.0458985
0.0391316
0.0333328
0.0283686
0.0241228
0.0204949
0.0173979
0.0147564
0.0125057
0.0105895
0.0089596
0.00757448
0.00639838
0.00540063
0.00455489
0.00383862
0.00323249
0.00271999
0.00228701
0.0019215
0.00161318
0.00135331
0.00113444
0.000950227
0.000795294
0.00066507
0.000555677
0.00046383
0.000386743
0.000322057
0.000267777
0.000222212
0.000183929
0.000151716
0.000124542
0.000101529
8.19286e-05
6.5096e-05
5.04728e-05
3.75698e-05
2.59514e-05
1.52226e-05
5.01661e-06
70.609
64.1841
58.2709
52.8363
47.8484
43.277
39.0932
35.2694
31.7797
28.5992
25.7047
23.0742
20.687
18.5235
16.5656
14.7962
13.1994
11.7604
10.4654
9.30153
8.25702
7.32089
6.48303
5.73416
5.06573
4.46989
3.93948
3.46793
3.04927
2.67804
2.3493
2.05856
1.80175
1.5752
1.37559
1.19995
1.04558
0.910076
0.791277
0.687249
0.596263
0.516779
0.447423
0.386975
0.334351
0.288591
0.248843
0.214357
0.184468
0.158591
0.136213
0.116881
0.100197
0.0858143
0.073428
0.0627717
0.0536132
0.0457496
0.0390046
0.0332247
0.0282766
0.0240446
0.0204285
0.0173415
0.0147086
0.0124651
0.0105552
0.00893058
0.00754995
0.00637767
0.00538315
0.00454016
0.0038262
0.00322204
0.0027112
0.00227962
0.00191529
0.00160797
0.00134894
0.00113078
0.000947162
0.00079273
0.000662926
0.000553887
0.000462336
0.000385498
0.000321021
0.000266916
0.000221497
0.000183338
0.000151229
0.000124142
0.000101203
8.1666e-05
6.48874e-05
5.03112e-05
3.74495e-05
2.58683e-05
1.51739e-05
5.00057e-06
70.3615
63.9591
58.0667
52.6511
47.6807
43.1253
38.9562
35.1458
31.6683
28.499
25.6146
22.9934
20.6145
18.4586
16.5075
14.7444
13.1532
11.7192
10.4287
9.26893
8.22808
7.29523
6.46031
5.71406
5.04797
4.45422
3.92567
3.45578
3.03858
2.66866
2.34107
2.05134
1.79543
1.56967
1.37077
1.19574
1.04191
0.906886
0.788504
0.68484
0.594173
0.514968
0.445855
0.385619
0.33318
0.28758
0.247971
0.213605
0.183821
0.158036
0.135736
0.116471
0.099846
0.0855138
0.0731708
0.0625519
0.0534254
0.0455894
0.0388681
0.0331084
0.0281776
0.0239604
0.020357
0.0172808
0.0146572
0.0124215
0.0105183
0.00889936
0.00752356
0.00635538
0.00536434
0.0045243
0.00381284
0.00321079
0.00270174
0.00227166
0.00190861
0.00160236
0.00134424
0.00112684
0.000943862
0.000789969
0.000660619
0.00055196
0.000460728
0.000384158
0.000319906
0.000265989
0.000220729
0.000182702
0.000150704
0.000123712
0.000100853
8.13831e-05
6.46628e-05
5.0137e-05
3.73199e-05
2.57788e-05
1.51214e-05
4.98329e-06
70.0966
63.7184
57.8481
52.4529
47.5012
42.963
38.8095
35.0135
31.5491
28.3917
25.5182
22.9068
20.5369
18.3891
16.4454
14.6889
13.1037
11.6751
10.3894
9.23404
8.19711
7.26777
6.436
5.69256
5.02897
4.43746
3.91089
3.44277
3.02714
2.65861
2.33225
2.04362
1.78867
1.56377
1.36561
1.19124
1.03799
0.903472
0.785536
0.682262
0.591937
0.513029
0.444177
0.384168
0.331926
0.286497
0.247038
0.212802
0.183129
0.157441
0.135225
0.116033
0.0994704
0.0851921
0.0728956
0.0623166
0.0532245
0.045418
0.0387219
0.0329839
0.0280717
0.0238704
0.0202805
0.0172159
0.0146021
0.0123749
0.0104788
0.00886594
0.00749531
0.00633152
0.00534421
0.00450732
0.00379854
0.00319875
0.00269161
0.00226315
0.00190146
0.00159636
0.00133921
0.00112262
0.00094033
0.000787014
0.000658148
0.000549896
0.000459007
0.000382723
0.000318711
0.000264996
0.000219905
0.000182021
0.000150143
0.000123251
0.000100477
8.108e-05
6.44221e-05
4.99505e-05
3.71811e-05
2.56829e-05
1.50652e-05
4.96475e-06
69.8145
63.4619
57.6152
52.2418
47.31
42.7901
38.6533
34.8726
31.4221
28.2774
25.4155
22.8146
20.4542
18.3151
16.3792
14.6297
13.0509
11.6281
10.3476
9.19687
8.16411
7.23852
6.41009
5.66964
5.00873
4.41959
3.89515
3.42891
3.01496
2.64791
2.32287
2.03539
1.78147
1.55747
1.36011
1.18644
1.03381
0.899835
0.782374
0.679516
0.589554
0.510964
0.442389
0.382621
0.33059
0.285344
0.246044
0.211945
0.182393
0.156807
0.134681
0.115566
0.0990702
0.0848494
0.0726024
0.062066
0.0530104
0.0452353
0.0385662
0.0328513
0.0279588
0.0237744
0.020199
0.0171467
0.0145434
0.0123252
0.0104367
0.00883033
0.00746521
0.0063061
0.00532276
0.00448923
0.0037833
0.00318591
0.00268081
0.00225407
0.00189383
0.00158996
0.00133384
0.00111812
0.000936564
0.000783863
0.000655514
0.000547697
0.000457171
0.000381193
0.000317438
0.000263938
0.000219027
0.000181294
0.000149544
0.000122759
0.000100077
8.07569e-05
6.41654e-05
4.97515e-05
3.7033e-05
2.55807e-05
1.50052e-05
4.94496e-06
69.5151
63.1898
57.3682
52.0177
47.1072
42.6066
38.4876
34.723
31.2874
28.1562
25.3065
22.7168
20.3665
18.2365
16.309
14.567
12.995
11.5782
10.3033
9.15744
8.12911
7.20748
6.3826
5.64533
4.98725
4.40064
3.87845
3.41421
3.00203
2.63655
2.3129
2.02666
1.77383
1.55079
1.35428
1.18136
1.02938
0.895977
0.779019
0.676602
0.587026
0.508773
0.440492
0.380981
0.329172
0.284121
0.244989
0.211037
0.181611
0.156135
0.134104
0.115071
0.0986456
0.0844857
0.0722912
0.0618
0.0527833
0.0450415
0.038401
0.0327106
0.0278391
0.0236726
0.0201125
0.0170733
0.0144812
0.0122724
0.010392
0.00879254
0.00743327
0.00627912
0.00529999
0.00447003
0.00376712
0.00317229
0.00266935
0.00224444
0.00188574
0.00158317
0.00132814
0.00111335
0.000932568
0.000780519
0.000652719
0.000545362
0.000455223
0.000379569
0.000316086
0.000262814
0.000218095
0.000180523
0.000148907
0.000122237
9.96511e-05
8.04138e-05
6.38928e-05
4.95402e-05
3.68758e-05
2.54721e-05
1.49415e-05
4.92397e-06
69.1986
62.902
57.107
51.7809
46.8927
42.4126
38.3123
34.5649
31.1449
28.028
25.1913
22.6133
20.2737
18.1535
16.2347
14.5007
12.9358
11.5255
10.2563
9.11574
8.09209
7.17466
6.35354
5.61963
4.96454
4.3806
3.86079
3.39866
2.98836
2.62455
2.30237
2.01744
1.76575
1.54373
1.34811
1.17598
1.02469
0.891897
0.775472
0.673522
0.584354
0.506457
0.438487
0.379246
0.327674
0.282827
0.243874
0.210076
0.180784
0.155424
0.133493
0.114547
0.0981966
0.0841012
0.0719622
0.0615188
0.0525431
0.0448366
0.0382263
0.0325618
0.0277125
0.0235649
0.020021
0.0169956
0.0144153
0.0122166
0.0103447
0.00875257
0.00739949
0.00625059
0.00527591
0.00444973
0.00375001
0.00315789
0.00265723
0.00223425
0.00187718
0.00157599
0.00132212
0.0011083
0.00092834
0.000776982
0.000649761
0.000542891
0.000453161
0.00037785
0.000314655
0.000261625
0.000217108
0.000179707
0.000148234
0.000121685
9.9201e-05
8.00506e-05
6.36044e-05
4.93166e-05
3.67093e-05
2.53571e-05
1.48741e-05
4.90178e-06
68.865
62.5988
56.8317
51.5313
46.6666
42.2081
38.1276
34.3983
30.9947
27.8928
25.0699
22.5043
20.176
18.066
16.1564
14.4308
12.8734
11.47
10.2069
9.0718
8.05308
7.14007
6.32291
5.59253
4.94061
4.35949
3.84217
3.38227
2.97395
2.61189
2.29127
2.00771
1.75724
1.53629
1.34161
1.17031
1.01975
0.887597
0.771733
0.670275
0.581537
0.504016
0.436373
0.377418
0.326094
0.281464
0.242698
0.209063
0.179913
0.154675
0.13285
0.113995
0.0977234
0.083696
0.0716155
0.0612224
0.05229
0.0446206
0.0380421
0.0324049
0.027579
0.0234514
0.0199246
0.0169138
0.0143459
0.0121578
0.010295
0.00871045
0.00736388
0.00622052
0.00525053
0.00442832
0.00373197
0.00314271
0.00264446
0.00222351
0.00186816
0.00156842
0.00131577
0.00110298
0.000923882
0.000773252
0.000646643
0.000540286
0.000450987
0.000376038
0.000313147
0.000260371
0.000216068
0.000178846
0.000147525
0.000121102
9.87262e-05
7.96676e-05
6.33001e-05
4.90808e-05
3.65338e-05
2.52359e-05
1.4803e-05
4.87836e-06
68.5144
62.2801
56.5423
51.2689
46.429
41.9932
37.9335
34.2232
30.837
27.7508
24.9422
22.3897
20.0733
17.974
16.0742
14.3573
12.8079
11.4116
10.1549
9.02561
8.01208
7.10372
6.29072
5.56406
4.91545
4.33729
3.82261
3.36506
2.95881
2.5986
2.27961
1.99749
1.7483
1.52847
1.33478
1.16435
1.01456
0.883079
0.767805
0.666863
0.578576
0.50145
0.434152
0.375497
0.324434
0.280031
0.241463
0.207999
0.178997
0.153888
0.132174
0.113415
0.0972261
0.08327
0.0712511
0.0609109
0.0520239
0.0443936
0.0378486
0.0322401
0.0274387
0.0233322
0.0198232
0.0168278
0.014273
0.012096
0.0102426
0.00866617
0.00732645
0.00618891
0.00522385
0.00440583
0.00371302
0.00312674
0.00263103
0.00221223
0.00185868
0.00156046
0.00130909
0.00109738
0.000919196
0.00076933
0.000643364
0.000537548
0.000448702
0.000374133
0.00031156
0.000259053
0.000214974
0.000177941
0.000146778
0.00012049
9.8227e-05
7.92649e-05
6.29801e-05
4.88327e-05
3.63492e-05
2.51084e-05
1.47282e-05
4.8537e-06
68.1469
61.9461
56.2391
50.9939
46.18
41.768
37.7301
34.0396
30.6716
27.602
24.8084
22.2697
19.9656
17.8776
15.988
14.2803
12.7392
11.3504
10.1005
8.9772
7.96911
7.06562
6.25698
5.53422
4.88909
4.31403
3.80211
3.34701
2.94294
2.58466
2.26738
1.98677
1.73892
1.52027
1.32762
1.1581
1.00912
0.878342
0.763686
0.663286
0.575473
0.49876
0.431823
0.373483
0.322694
0.27853
0.240168
0.206884
0.178037
0.153063
0.131465
0.112807
0.0967048
0.0828236
0.0708691
0.0605843
0.051745
0.0441556
0.0376457
0.0320673
0.0272916
0.0232071
0.019717
0.0167376
0.0141965
0.0120312
0.0101877
0.00861975
0.00728722
0.00615576
0.00519588
0.00438224
0.00369314
0.00311001
0.00261695
0.00220039
0.00184874
0.00155211
0.00130209
0.00109151
0.000914282
0.000765219
0.000639926
0.000534676
0.000446305
0.000372135
0.000309897
0.00025767
0.000213827
0.000176992
0.000145995
0.000119847
9.77033e-05
7.88423e-05
6.26445e-05
4.85726e-05
3.61556e-05
2.49747e-05
1.46498e-05
4.82786e-06
67.7626
61.5967
55.9219
50.7064
45.9196
41.5325
37.5173
33.8477
30.4986
27.4463
24.6685
22.1441
19.853
17.7768
15.8978
14.1998
12.6674
11.2863
10.0435
8.92658
7.92417
7.02577
6.22169
5.50301
4.86151
4.2897
3.78067
3.32813
2.92634
2.57008
2.25459
1.97557
1.72911
1.51169
1.32014
1.15157
1.00343
0.873389
0.75938
0.659545
0.572228
0.495948
0.429388
0.371377
0.320875
0.276959
0.238814
0.205717
0.177033
0.1522
0.130724
0.112171
0.0961596
0.0823567
0.0704696
0.0602428
0.0514533
0.0439067
0.0374335
0.0318866
0.0271378
0.0230763
0.0196059
0.0166433
0.0141165
0.0119634
0.0101304
0.0085712
0.00724618
0.0061211
0.00516662
0.00435757
0.00367235
0.0030925
0.00260222
0.00218801
0.00183834
0.00154338
0.00129477
0.00108538
0.000909142
0.000760917
0.00063633
0.000531672
0.000443798
0.000370045
0.000308157
0.000256223
0.000212627
0.000175998
0.000145176
0.000119175
9.71553e-05
7.84003e-05
6.22933e-05
4.83003e-05
3.5953e-05
2.48347e-05
1.45677e-05
4.80079e-06
67.3616
61.2322
55.591
50.4063
45.6478
41.2867
37.2952
33.6473
30.3181
27.2839
24.5226
22.013
19.7355
17.6716
15.8037
14.1157
12.5924
11.2195
9.98407
8.87375
7.87727
6.98419
6.18487
5.47044
4.83274
4.26431
3.75829
3.30843
2.90902
2.55487
2.24125
1.96388
1.71888
1.50275
1.31232
1.14476
0.997491
0.86822
0.754886
0.655642
0.568841
0.493013
0.426847
0.369179
0.318976
0.27532
0.237401
0.2045
0.175986
0.151299
0.12995
0.111507
0.0955907
0.0818694
0.0700527
0.0598864
0.051149
0.043647
0.0372121
0.031698
0.0269773
0.0229399
0.01949
0.0165449
0.014033
0.0118927
0.0100705
0.00852054
0.00720335
0.00608492
0.00513609
0.00433182
0.00365066
0.00307424
0.00258685
0.00217509
0.00182748
0.00153427
0.00128712
0.00107897
0.000903777
0.000756427
0.000632576
0.000528536
0.000441181
0.000367863
0.00030634
0.000254713
0.000211374
0.000174961
0.000144321
0.000118473
9.65833e-05
7.79387e-05
6.19266e-05
4.8016e-05
3.57414e-05
2.46886e-05
1.44819e-05
4.77255e-06
66.944
60.8525
55.2463
50.0937
45.3648
41.0307
37.064
33.4387
30.1301
27.1147
24.3705
21.8765
19.6132
17.562
15.7058
14.0282
12.5143
11.15
9.92217
8.81873
7.82843
6.94089
6.14652
5.43652
4.80278
4.23787
3.73499
3.28792
2.89099
2.53903
2.22735
1.9517
1.70822
1.49343
1.30419
1.13766
0.991306
0.862837
0.750206
0.651577
0.565315
0.489956
0.424201
0.366891
0.316999
0.273613
0.235929
0.203232
0.174895
0.150362
0.129145
0.110816
0.0949982
0.081362
0.0696185
0.0595153
0.050832
0.0433765
0.0369815
0.0315016
0.0268102
0.0227977
0.0193692
0.0164424
0.0139461
0.011819
0.0100081
0.00846777
0.00715874
0.00604724
0.00510429
0.004305
0.00362806
0.00305521
0.00257084
0.00216162
0.00181617
0.00152477
0.00127916
0.0010723
0.000898187
0.00075175
0.000628665
0.000525269
0.000438454
0.00036559
0.000304448
0.00025314
0.000210069
0.000173881
0.00014343
0.000117742
9.59872e-05
7.74578e-05
6.15446e-05
4.77198e-05
3.5521e-05
2.45363e-05
1.43927e-05
4.74311e-06
66.5098
60.4579
54.888
49.7689
45.0706
40.7646
36.8236
33.2219
29.9347
26.9389
24.2125
21.7347
19.486
17.4481
15.6039
13.9372
12.4332
11.0777
9.85782
8.76153
7.77766
6.89587
6.10666
5.40126
4.77163
4.21039
3.71077
3.2666
2.87224
2.52256
2.21291
1.93904
1.69714
1.48374
1.29573
1.13028
0.984877
0.857242
0.74534
0.647352
0.561649
0.486779
0.42145
0.364511
0.314943
0.271839
0.234399
0.201915
0.173761
0.149387
0.128307
0.110097
0.0943822
0.0808345
0.0691671
0.0591294
0.0505024
0.0430953
0.0367418
0.0312974
0.0266364
0.02265
0.0192437
0.0163358
0.0138557
0.0117424
0.00994325
0.0084129
0.00711236
0.00600807
0.00507123
0.00427712
0.00360456
0.00303542
0.0025542
0.00214763
0.00180441
0.00151491
0.00127088
0.00106536
0.000892376
0.000746887
0.000624599
0.000521871
0.000435619
0.000363226
0.00030248
0.000251504
0.000208711
0.000172758
0.000142503
0.000116981
9.53673e-05
7.69576e-05
6.11472e-05
4.74118e-05
3.52916e-05
2.4378e-05
1.42998e-05
4.71254e-06
66.0592
60.0483
54.5162
49.4317
44.7653
40.4884
36.5742
32.9968
29.7319
26.7564
24.0484
21.5874
19.354
17.3299
15.4982
13.8428
12.3489
11.0026
9.79103
8.70218
7.72497
6.84916
6.06529
5.36467
4.7393
4.18186
3.68563
3.24447
2.85278
2.50547
2.19792
1.92591
1.68564
1.47369
1.28695
1.12263
0.978205
0.851434
0.740291
0.642966
0.557844
0.483481
0.418595
0.362042
0.312809
0.269998
0.232811
0.200547
0.172584
0.148375
0.127438
0.109352
0.093743
0.080287
0.0686987
0.058729
0.0501604
0.0428035
0.036493
0.0310854
0.026456
0.0224966
0.0191134
0.0162252
0.0137619
0.0116629
0.00987594
0.00835596
0.00706422
0.00596741
0.00503691
0.00424818
0.00358017
0.00301489
0.00253692
0.0021331
0.00179221
0.00150466
0.00126229
0.00105815
0.000886343
0.000741838
0.000620377
0.000518345
0.000432676
0.000360773
0.000300436
0.000249805
0.000207302
0.000171591
0.000141542
0.000116192
9.47237e-05
7.64384e-05
6.07347e-05
4.70919e-05
3.50536e-05
2.42135e-05
1.42033e-05
4.68073e-06
65.5923
59.6239
54.1309
49.0823
44.4489
40.2023
36.3157
32.7636
29.5218
26.5673
23.8785
21.4348
19.2172
17.2074
15.3886
13.745
12.2616
10.9249
9.72184
8.64068
7.67037
6.80075
6.02242
5.32676
4.70581
4.15231
3.65958
3.22154
2.83262
2.48777
2.18238
1.9123
1.67373
1.46328
1.27786
1.11469
0.971292
0.845417
0.735059
0.638422
0.553901
0.480065
0.415637
0.359484
0.310599
0.26809
0.231166
0.19913
0.171364
0.147326
0.126538
0.108579
0.0930806
0.0797197
0.0682133
0.058314
0.049806
0.0425011
0.0362352
0.0308658
0.0262691
0.0223377
0.0189784
0.0161106
0.0136647
0.0115806
0.0098062
0.00829695
0.00701434
0.00592527
0.00500135
0.00421818
0.0035549
0.00299361
0.00251901
0.00211805
0.00177956
0.00149404
0.00125338
0.00105069
0.000880091
0.000736606
0.000616002
0.00051469
0.000429625
0.000358229
0.000298319
0.000248045
0.000205841
0.000170382
0.000140544
0.000115373
9.40566e-05
7.59001e-05
6.03071e-05
4.67604e-05
3.48068e-05
2.40431e-05
1.41033e-05
4.64776e-06
65.1093
59.1848
53.7322
48.7209
44.1215
39.9062
36.0482
32.5223
29.3044
26.3716
23.7026
21.277
19.0757
17.0807
15.2753
13.6438
12.1713
10.8444
9.65024
8.57704
7.61388
6.75067
5.97807
5.28753
4.67115
4.12173
3.63263
3.19781
2.81176
2.46944
2.16631
1.89821
1.66141
1.4525
1.26844
1.10648
0.964139
0.839191
0.729646
0.633721
0.549822
0.476529
0.412576
0.356836
0.308312
0.266115
0.229464
0.197663
0.170102
0.146241
0.125606
0.107779
0.0923953
0.0791327
0.067711
0.0578847
0.0494393
0.0421882
0.0359684
0.0306386
0.0260758
0.0221733
0.0188387
0.015992
0.0135642
0.0114953
0.00973403
0.0082359
0.00696272
0.00588168
0.00496455
0.00418715
0.00352875
0.00297158
0.00250048
0.00210247
0.00176648
0.00148306
0.00124417
0.00104296
0.000873621
0.000731191
0.000611475
0.000510907
0.000426468
0.000355597
0.000296127
0.000246223
0.000204329
0.000169131
0.000139512
0.000114526
9.33661e-05
7.5343e-05
5.98644e-05
4.64172e-05
3.45514e-05
2.38666e-05
1.39998e-05
4.61367e-06
64.6102
58.7311
53.3203
48.3474
43.7833
39.6003
35.7719
32.273
29.0797
26.1695
23.5209
21.1139
18.9294
16.9498
15.1582
13.5392
12.078
10.7613
9.57626
8.51129
7.55552
6.69891
5.93224
5.24699
4.63534
4.09013
3.60478
3.1733
2.7902
2.45051
2.1497
1.88366
1.64867
1.44137
1.25872
1.098
0.956748
0.832758
0.724053
0.628863
0.545608
0.472876
0.409413
0.354101
0.305948
0.264076
0.227705
0.196148
0.168798
0.14512
0.124643
0.106953
0.0916871
0.0785262
0.0671921
0.0574411
0.0490605
0.0418649
0.0356928
0.0304038
0.025876
0.0220034
0.0186943
0.0158695
0.0134602
0.0114073
0.00965946
0.0081728
0.00690939
0.00583662
0.00492652
0.00415508
0.00350172
0.00294883
0.00248134
0.00208637
0.00175295
0.0014717
0.00123464
0.00103498
0.000866935
0.000725596
0.000606796
0.000506998
0.000423206
0.000352877
0.000293862
0.000244339
0.000202767
0.000167838
0.000138446
0.000113651
9.26525e-05
7.47671e-05
5.94069e-05
4.60625e-05
3.42874e-05
2.36843e-05
1.38929e-05
4.57843e-06
64.0951
58.2629
52.8952
47.962
43.4343
39.2846
35.4867
32.0157
28.8479
25.9609
23.3334
20.9456
18.7785
16.8146
15.0374
13.4312
11.9818
10.6755
9.49992
8.44344
7.49528
6.64551
5.88495
5.20516
4.59839
4.05752
3.57604
3.148
2.76796
2.43098
2.13257
1.86864
1.63553
1.42988
1.24869
1.08925
0.949121
0.826119
0.718281
0.62385
0.541258
0.469107
0.40615
0.351278
0.30351
0.261971
0.22589
0.194585
0.167453
0.143964
0.12365
0.106101
0.0909563
0.0779004
0.0666566
0.0569833
0.0486695
0.0415312