/*--------------------------------*- C++ -*----------------------------------*\
| =========                 |                                                 |
| \\      /  F ield         | OpenFOAM: The Open Source CFD Toolbox           |
|  \\    /   O peration     | Version:  2406                                  |
|   \\  /    A nd           | Website:  www.openfoam.com                      |
|    \\/     M anipulation  |                                                 |
\*---------------------------------------------------------------------------*/
FoamFile
{
    version     2.0;
    format      ascii;
    arch        "LSB;label=32;scalar=64";
    class       volScalarField;
    location    "20";
    object      gradTy;
}
// * * * * * * * * * * * * * * * * * * * * * * * * * * * * * * * * * * * * * //

dimensions      [0 -1 0 1 0 0 0];

internalField   nonuniform List<scalar> 
20000
(
109.553
100.94
92.9125
85.4396
78.4903
72.035
66.0452
60.4936
55.3535
50.5998
46.2086
42.1564
38.4211
34.9819
31.8189
28.9131
26.2464
23.8019
21.5636
19.5164
17.646
15.9391
14.383
12.966
11.677
10.5059
9.44293
8.47923
7.60646
6.81689
6.10334
5.4592
4.87832
4.35506
3.8842
3.46095
3.08089
2.73997
2.43449
2.16105
1.91653
1.6981
1.50319
1.32942
1.17468
1.037
0.914637
0.805988
0.709613
0.624209
0.5486
0.481728
0.42264
0.37048
0.324478
0.283946
0.248267
0.216888
0.189317
0.165114
0.143887
0.125286
0.109001
0.0947563
0.0823072
0.0714368
0.061953
0.0536862
0.0464862
0.0402206
0.0347727
0.0300397
0.0259311
0.0223674
0.0192788
0.0166041
0.0142895
0.0122881
0.0105587
0.00906539
0.0077768
0.00666553
0.00570769
0.00488246
0.00417171
0.00355966
0.00303256
0.00257845
0.00218691
0.00184886
0.00155638
0.00130253
0.00108123
0.00088712
0.00071544
0.000561943
0.000422787
0.000294461
0.000173698
5.74057e-05
109.526
100.915
92.8896
85.4184
78.4708
72.0172
66.0289
60.4785
55.3399
50.5875
46.1972
42.1459
38.4116
34.9733
31.8111
28.9059
26.2399
23.796
21.5583
19.5116
17.6417
15.9352
14.3794
12.9628
11.6741
10.5033
9.44061
8.47715
7.60459
6.81521
6.10184
5.45785
4.87711
4.35398
3.88324
3.46009
3.08013
2.7393
2.43389
2.16051
1.91606
1.69769
1.50282
1.3291
1.17439
1.03675
0.914411
0.805789
0.709438
0.624055
0.548465
0.48161
0.422536
0.370388
0.324398
0.283876
0.248205
0.216835
0.189271
0.165074
0.143851
0.125255
0.108974
0.0947329
0.0822869
0.0714192
0.0619378
0.053673
0.0464747
0.0402107
0.0347642
0.0300323
0.0259247
0.0223619
0.0192741
0.0166
0.014286
0.0122851
0.0105561
0.00906317
0.0077749
0.0066639
0.00570629
0.00488126
0.00417069
0.00355879
0.00303182
0.00257782
0.00218638
0.00184841
0.001556
0.00130221
0.00108097
0.000886905
0.000715268
0.000561808
0.000422687
0.000294392
0.000173658
5.73926e-05
109.472
100.865
92.844
85.3764
78.4321
71.9816
65.9964
60.4487
55.3126
50.5625
46.1743
42.1251
38.3927
34.9561
31.7954
28.8916
26.2269
23.7842
21.5476
19.502
17.633
15.9273
14.3723
12.9564
11.6684
10.4981
9.43595
8.47297
7.60084
6.81185
6.09883
5.45515
4.8747
4.35183
3.88132
3.45838
3.07861
2.73794
2.43269
2.15945
1.91511
1.69685
1.50208
1.32844
1.17381
1.03623
0.91396
0.805392
0.709088
0.623747
0.548195
0.481372
0.422328
0.370206
0.324238
0.283736
0.248083
0.216728
0.189177
0.164992
0.14378
0.125193
0.10892
0.0946862
0.0822463
0.071384
0.0619073
0.0536465
0.0464519
0.0401909
0.034747
0.0300175
0.025912
0.0223509
0.0192646
0.0165919
0.014279
0.012279
0.0105509
0.00905872
0.00777108
0.00666063
0.00570349
0.00487887
0.00416865
0.00355704
0.00303033
0.00257656
0.00218531
0.00184751
0.00155524
0.00130158
0.00108044
0.000886474
0.000714921
0.000561536
0.000422482
0.00029425
0.000173575
5.73653e-05
109.391
100.79
92.7751
85.3132
78.3741
71.9283
65.9475
60.404
55.2716
50.525
46.1402
42.0939
38.3642
34.9302
31.7718
28.8702
26.2075
23.7666
21.5317
19.4875
17.6199
15.9155
14.3617
12.9468
11.6597
10.4903
9.42897
8.4667
7.59522
6.8068
6.09431
5.45111
4.87109
4.34861
3.87844
3.45582
3.07632
2.73592
2.43089
2.15785
1.91369
1.69559
1.50096
1.32746
1.17294
1.03547
0.913283
0.804796
0.708563
0.623286
0.547789
0.481016
0.422015
0.369932
0.323998
0.283526
0.247899
0.216567
0.189037
0.16487
0.143674
0.125101
0.10884
0.0946162
0.0821856
0.0713312
0.0618615
0.0536069
0.0464175
0.0401612
0.0347214
0.0299954
0.0258929
0.0223345
0.0192504
0.0165796
0.0142685
0.01227
0.0105431
0.00905205
0.00776536
0.00665573
0.0056993
0.00487528
0.00416558
0.00355443
0.00302811
0.00257467
0.0021837
0.00184615
0.0015541
0.00130063
0.00107965
0.000885827
0.000714399
0.000561126
0.000422175
0.000294036
0.000173449
5.73238e-05
109.283
100.691
92.6834
85.2288
78.2967
71.8573
65.8823
60.3443
55.217
50.4751
46.0946
42.0523
38.3263
34.8957
31.7404
28.8417
26.1816
23.7432
21.5104
19.4683
17.6025
15.8998
14.3475
12.934
11.6482
10.48
9.41966
8.45834
7.58772
6.80008
6.08829
5.44572
4.86628
4.34431
3.87461
3.4524
3.07328
2.73321
2.42849
2.15572
1.9118
1.69392
1.49948
1.32615
1.17178
1.03444
0.912381
0.804001
0.707864
0.62267
0.547248
0.480541
0.421598
0.369566
0.323678
0.283246
0.247655
0.216354
0.188851
0.164708
0.143532
0.124977
0.108732
0.0945229
0.0821045
0.0712609
0.0618006
0.0535541
0.0463718
0.0401217
0.0346872
0.0299658
0.0258674
0.0223125
0.0192315
0.0165633
0.0142544
0.0122579
0.0105328
0.00904315
0.00775773
0.00664919
0.0056937
0.0048705
0.0041615
0.00355095
0.00302514
0.00257214
0.00218157
0.00184435
0.00155258
0.00129936
0.0010786
0.000884962
0.000713702
0.000560579
0.000421764
0.00029375
0.00017328
5.72681e-05
109.148
100.567
92.5689
85.1235
78.1999
71.7685
65.8009
60.2698
55.1488
50.4128
46.0377
42.0004
38.279
34.8525
31.7012
28.8061
26.1492
23.7138
21.4839
19.4442
17.5808
15.8801
14.3298
12.918
11.6338
10.467
9.40803
8.44789
7.57834
6.79168
6.08076
5.43899
4.86026
4.33894
3.86982
3.44814
3.06949
2.72984
2.42549
2.15305
1.90944
1.69182
1.49763
1.32451
1.17033
1.03317
0.911254
0.803008
0.706989
0.621901
0.546572
0.479947
0.421078
0.36911
0.323278
0.282896
0.247349
0.216087
0.188618
0.164504
0.143355
0.124823
0.108598
0.0944063
0.0820032
0.071173
0.0617243
0.053488
0.0463146
0.0400722
0.0346444
0.0299289
0.0258355
0.022285
0.0192078
0.0165429
0.0142369
0.0122428
0.0105198
0.00903203
0.0077482
0.00664102
0.00568671
0.00486452
0.00415639
0.00354659
0.00302143
0.00256899
0.00217889
0.00184209
0.00155068
0.00129777
0.00107728
0.00088388
0.00071283
0.000559895
0.000421249
0.000293391
0.000173069
5.71982e-05
108.986
100.417
92.4316
84.9972
78.0839
71.662
65.7033
60.1803
55.067
50.338
45.9693
41.9381
38.2222
34.8008
31.6542
28.7633
26.1105
23.6787
21.452
19.4154
17.5547
15.8565
14.3085
12.8988
11.6166
10.4515
9.39408
8.43536
7.5671
6.7816
6.07174
5.43092
4.85305
4.3325
3.86408
3.44302
3.06493
2.72578
2.42189
2.14986
1.90661
1.68931
1.49541
1.32254
1.1686
1.03163
0.909903
0.801816
0.705941
0.620979
0.545761
0.479236
0.420453
0.368563
0.322799
0.282477
0.246982
0.215766
0.188338
0.16426
0.143143
0.124638
0.108437
0.0942664
0.0818817
0.0710676
0.0616329
0.0534088
0.046246
0.0400129
0.0345931
0.0298846
0.0257973
0.022252
0.0191794
0.0165185
0.0142158
0.0122247
0.0105043
0.00901869
0.00773675
0.00663121
0.00567831
0.00485734
0.00415025
0.00354136
0.00301697
0.0025652
0.00217568
0.00183937
0.0015484
0.00129586
0.00107569
0.00088258
0.000711782
0.000559072
0.00042063
0.000292961
0.000172814
5.71142e-05
108.797
100.243
92.2714
84.85
77.9486
71.5379
65.5894
60.0761
54.9715
50.2508
45.8897
41.8654
38.1559
34.7405
31.5993
28.7135
26.0652
23.6376
21.4148
19.3817
17.5242
15.8291
14.2837
12.8765
11.5965
10.4334
9.3778
8.42075
7.55399
6.76985
6.06122
5.42151
4.84464
4.32499
3.85738
3.43705
3.05962
2.72106
2.41769
2.14613
1.9033
1.68639
1.49281
1.32025
1.16657
1.02985
0.908326
0.800427
0.704718
0.619903
0.544816
0.478405
0.419725
0.367924
0.32224
0.281988
0.246555
0.215393
0.188012
0.163976
0.142895
0.124422
0.10825
0.0941033
0.08174
0.0709446
0.0615263
0.0533164
0.0461661
0.0399437
0.0345333
0.0298329
0.0257527
0.0222135
0.0191462
0.0164899
0.0141913
0.0122036
0.0104861
0.00900312
0.0077234
0.00661977
0.00566852
0.00484896
0.0041431
0.00353525
0.00301178
0.00256078
0.00217194
0.00183621
0.00154573
0.00129363
0.00107384
0.000881063
0.000710559
0.000558112
0.000419908
0.000292458
0.000172518
5.70162e-05
108.582
100.045
92.0885
84.6818
77.7941
71.396
65.4594
59.957
54.8626
50.1511
45.7987
41.7824
38.0803
34.6717
31.5367
28.6566
26.0135
23.5908
21.3723
19.3433
17.4895
15.7977
14.2554
12.851
11.5735
10.4127
9.35921
8.40405
7.53901
6.75643
6.0492
5.41076
4.83503
4.31641
3.84973
3.43024
3.05355
2.71567
2.4129
2.14188
1.89953
1.68304
1.48986
1.31763
1.16426
1.0278
0.906526
0.798841
0.703321
0.618674
0.543736
0.477457
0.418893
0.367195
0.321602
0.281429
0.246066
0.214966
0.18764
0.163651
0.142612
0.124176
0.108035
0.0939169
0.0815782
0.0708041
0.0614045
0.0532109
0.0460747
0.0398646
0.034465
0.0297739
0.0257017
0.0221696
0.0191084
0.0164573
0.0141632
0.0121795
0.0104654
0.00898533
0.00770814
0.0066067
0.00565733
0.00483939
0.00413492
0.00352828
0.00300584
0.00255574
0.00216765
0.00183259
0.00154269
0.00129108
0.00107173
0.000879329
0.000709161
0.000557014
0.000419082
0.000291883
0.000172179
5.69041e-05
108.339
99.8212
91.8828
84.4927
77.6203
71.2366
65.3132
59.8231
54.74
50.0391
45.6964
41.6891
37.9953
34.5942
31.4663
28.5926
25.9555
23.5381
21.3246
19.3001
17.4504
15.7624
14.2236
12.8223
11.5476
10.3895
9.33831
8.38529
7.52217
6.74134
6.03569
5.39867
4.82423
4.30677
3.84113
3.42258
3.04673
2.7096
2.40751
2.13709
1.89529
1.67929
1.48653
1.31469
1.16166
1.02551
0.904502
0.797057
0.701751
0.617293
0.542522
0.476391
0.417958
0.366376
0.320884
0.280801
0.245517
0.214486
0.187221
0.163286
0.142294
0.123899
0.107794
0.0937074
0.0813962
0.0706462
0.0612675
0.0530922
0.0459719
0.0397757
0.0343882
0.0297076
0.0256444
0.0221202
0.0190658
0.0164207
0.0141317
0.0121524
0.0104421
0.00896533
0.00769099
0.006592
0.00564474
0.00482863
0.00412573
0.00352044
0.00299916
0.00255006
0.00216284
0.00182852
0.00153926
0.00128821
0.00106935
0.000877378
0.000707588
0.000555779
0.000418153
0.000291236
0.000171797
5.6778e-05
108.07
99.5732
91.6545
84.2827
77.4275
71.0596
65.1509
59.6744
54.604
49.9148
45.5829
41.5855
37.9009
34.5083
31.3881
28.5215
25.891
23.4796
21.2716
19.2521
17.4071
15.7232
14.1882
12.7904
11.5189
10.3637
9.31511
8.36445
7.50348
6.72458
6.02069
5.38526
4.81224
4.29607
3.83159
3.41407
3.03916
2.70287
2.40153
2.13178
1.89058
1.67511
1.48284
1.31143
1.15877
1.02296
0.902254
0.795077
0.700007
0.615759
0.541175
0.475208
0.41692
0.365466
0.320087
0.280103
0.244907
0.213953
0.186756
0.16288
0.14194
0.123591
0.107527
0.0934748
0.0811942
0.0704709
0.0611155
0.0529605
0.0458579
0.039677
0.0343029
0.0296339
0.0255808
0.0220654
0.0190185
0.0163799
0.0140966
0.0121223
0.0104162
0.00894312
0.00767194
0.00657567
0.00563076
0.00481667
0.00411552
0.00351172
0.00299174
0.00254375
0.00215749
0.001824
0.00153546
0.00128503
0.00106671
0.000875211
0.000705841
0.000554407
0.000417121
0.000290517
0.000171373
5.66379e-05
107.774
99.3006
91.4036
84.052
77.2155
70.865
64.9726
59.511
54.4545
49.7781
45.4581
41.4716
37.7971
34.4138
31.3021
28.4434
25.8201
23.4153
21.2134
19.1994
17.3594
15.6802
14.1494
12.7554
11.4874
10.3353
9.2896
8.34155
7.48294
6.70617
6.0042
5.37051
4.79907
4.2843
3.8211
3.40472
3.03084
2.69547
2.39495
2.12595
1.8854
1.67053
1.47878
1.30784
1.1556
1.02016
0.899785
0.792901
0.698091
0.614074
0.539693
0.473907
0.415779
0.364465
0.319211
0.279337
0.244237
0.213368
0.186245
0.162435
0.141552
0.123253
0.107233
0.0932191
0.0809721
0.0702781
0.0609483
0.0528156
0.0457325
0.0395686
0.0342091
0.0295529
0.0255109
0.0220051
0.0189666
0.0163352
0.0140581
0.0120892
0.0103878
0.0089187
0.00765099
0.00655772
0.0056154
0.00480353
0.00410429
0.00350215
0.00298358
0.00253682
0.00215161
0.00181903
0.00153128
0.00128153
0.00106381
0.000872828
0.00070392
0.000552898
0.000415985
0.000289726
0.000170907
5.64838e-05
107.452
99.0035
91.1301
83.8005
76.9845
70.653
64.7782
59.333
54.2916
49.6292
45.3221
41.3476
37.684
34.3108
31.2085
28.3583
25.7428
23.3452
21.1499
19.142
17.3075
15.6333
14.107
12.7172
11.453
10.3044
9.26181
8.31659
7.46055
6.6861
5.98624
5.35444
4.78471
4.27148
3.80966
3.39453
3.02177
2.6874
2.38778
2.11959
1.87976
1.66553
1.47435
1.30392
1.15214
1.01711
0.897093
0.790529
0.696003
0.612237
0.538079
0.47249
0.414535
0.363375
0.318256
0.278501
0.243507
0.21273
0.185688
0.161949
0.141129
0.122885
0.106912
0.0929404
0.08073
0.070068
0.0607662
0.0526578
0.0455958
0.0394503
0.0341069
0.0294646
0.0254347
0.0219393
0.0189099
0.0162864
0.0140162
0.0120531
0.0103568
0.00889208
0.00762816
0.00653816
0.00559865
0.00478921
0.00409205
0.00349171
0.00297468
0.00252926
0.0021452
0.00181361
0.00152672
0.00127771
0.00106064
0.00087023
0.000701824
0.000551252
0.000414748
0.000288864
0.000170398
5.63158e-05
107.103
98.6819
90.8341
83.5283
76.7344
70.4236
64.5678
59.1403
54.1153
49.468
45.1749
41.2133
37.5616
34.1994
31.1071
28.2662
25.6592
23.2694
21.0812
19.0798
17.2513
15.5825
14.0612
12.6759
11.4158
10.2709
9.23173
8.28958
7.43632
6.66439
5.96679
5.33705
4.76916
4.25761
3.79729
3.38351
3.01196
2.67867
2.38003
2.1127
1.87366
1.66012
1.46956
1.29969
1.1484
1.01381
0.894179
0.787962
0.693743
0.610249
0.536332
0.470956
0.413189
0.362195
0.317223
0.277597
0.242716
0.212039
0.185085
0.161423
0.140671
0.122486
0.106565
0.0926388
0.080468
0.0698407
0.060569
0.052487
0.0454479
0.0393224
0.0339962
0.029369
0.0253522
0.0218682
0.0188486
0.0162336
0.0139707
0.012014
0.0103232
0.00886327
0.00760345
0.00651698
0.00558051
0.0047737
0.0040788
0.0034804
0.00296506
0.00252107
0.00213826
0.00180774
0.00152178
0.00127358
0.00105721
0.000867417
0.000699556
0.000549471
0.000413407
0.000287931
0.000169848
5.61338e-05
106.727
98.3361
90.5158
83.2355
76.4655
70.1767
64.3415
58.933
53.9256
49.2946
45.0165
41.0688
37.43
34.0795
30.9981
28.1672
25.5693
23.1879
21.0073
19.0129
17.1908
15.5279
14.0119
12.6315
11.3758
10.2349
9.19937
8.26052
7.41025
6.64103
5.94588
5.31834
4.75245
4.24269
3.78398
3.37165
3.0014
2.66928
2.37169
2.1053
1.86709
1.6543
1.46441
1.29513
1.14438
1.01025
0.891046
0.7852
0.691311
0.60811
0.534452
0.469305
0.411741
0.360926
0.316111
0.276625
0.241866
0.211296
0.184437
0.160858
0.140178
0.122057
0.106192
0.0923143
0.0801862
0.0695961
0.0603569
0.0523032
0.0452888
0.0391847
0.0338772
0.0292662
0.0252635
0.0217917
0.0187826
0.0161768
0.0139218
0.011972
0.0102871
0.00883227
0.00757686
0.00649419
0.005561
0.00475701
0.00406455
0.00346824
0.0029547
0.00251226
0.00213079
0.00180143
0.00151647
0.00126914
0.00105352
0.00086439
0.000697115
0.000547554
0.000411965
0.000286926
0.000169255
5.5938e-05
106.326
97.9659
90.1751
82.9222
76.1776
69.9126
64.0993
58.7112
53.7226
49.1091
44.8471
40.9142
37.2891
33.9512
30.8814
28.0611
25.473
23.1006
20.9283
18.9414
17.1261
15.4694
13.9592
12.584
11.333
10.1964
9.16474
8.22943
7.38235
6.61603
5.92349
5.29832
4.73456
4.22672
3.76974
3.35896
2.9901
2.65924
2.36276
2.09737
1.86006
1.64807
1.4589
1.29026
1.14007
1.00645
0.887692
0.782245
0.688709
0.605822
0.532441
0.467539
0.410192
0.359568
0.314921
0.275584
0.240955
0.210501
0.183743
0.160253
0.139651
0.121597
0.105792
0.091967
0.0798846
0.0693343
0.0601299
0.0521065
0.0451184
0.0390373
0.0337498
0.0291562
0.0251685
0.0217097
0.018712
0.016116
0.0138695
0.011927
0.0102485
0.00879909
0.0075484
0.0064698
0.00554012
0.00473915
0.00404929
0.00345522
0.00294361
0.00250284
0.0021228
0.00179467
0.00151078
0.00126438
0.00104957
0.000861149
0.000694502
0.000545501
0.000410421
0.000285851
0.000168621
5.57284e-05
105.898
97.5716
89.8121
82.5885
75.871
69.6312
63.8413
58.4748
53.5064
48.9114
44.6666
40.7495
37.139
33.8146
30.7571
27.9482
25.3705
23.0076
20.844
18.8651
17.0572
15.4072
13.903
12.5333
11.2874
10.1553
9.12785
8.1963
7.35264
6.5894
5.89965
5.27699
4.7155
4.2097
3.75456
3.34544
2.97807
2.64853
2.35325
2.08893
1.85257
1.64144
1.45303
1.28506
1.13548
1.0024
0.884119
0.779096
0.685938
0.603384
0.530298
0.465658
0.408541
0.358121
0.313654
0.274475
0.239986
0.209654
0.183003
0.159608
0.139089
0.121108
0.105367
0.0915971
0.0795633
0.0690554
0.059888
0.0518969
0.044937
0.0388804
0.0336141
0.0290389
0.0250673
0.0216225
0.0186368
0.0160512
0.0138138
0.0118791
0.0102073
0.00876374
0.00751808
0.00644382
0.00551787
0.00472012
0.00403303
0.00344135
0.00293179
0.00249279
0.00211428
0.00178747
0.00150472
0.00125931
0.00104536
0.000857695
0.000691717
0.000543314
0.000408776
0.000284705
0.000167945
5.5505e-05
105.443
97.1532
89.427
82.2343
75.5457
69.3326
63.5675
58.2241
53.2769
48.7017
44.4751
40.5748
36.9797
33.6696
30.6252
27.8283
25.2617
22.9089
20.7546
18.7842
16.984
15.3411
13.8434
12.4796
11.239
10.1118
9.08871
8.16115
7.32111
6.56114
5.87435
5.25436
4.69528
4.19165
3.73846
3.33109
2.9653
2.63718
2.34316
2.07997
1.84463
1.6344
1.4468
1.27955
1.13061
0.998102
0.880328
0.775756
0.682997
0.600797
0.528024
0.463661
0.40679
0.356586
0.31231
0.273298
0.238957
0.208756
0.182219
0.158924
0.138493
0.120589
0.104915
0.0912045
0.0792223
0.0687595
0.0596314
0.0516745
0.0447445
0.0387138
0.0334701
0.0289146
0.02496
0.0215299
0.018557
0.0159825
0.0137546
0.0118282
0.0101636
0.00872622
0.0074859
0.00641624
0.00549426
0.00469992
0.00401578
0.00342663
0.00291925
0.00248213
0.00210524
0.00177983
0.00149828
0.00125392
0.00104089
0.00085403
0.000688761
0.000540993
0.000407029
0.000283489
0.000167228
5.52679e-05
104.963
96.7108
89.0198
81.8599
75.2017
69.0169
63.2781
57.959
53.0343
48.4799
44.2725
40.3901
36.8113
33.5163
30.4858
27.7016
25.1467
22.8046
20.6601
18.6987
16.9067
15.2713
13.7804
12.4227
11.1878
10.0657
9.04732
8.12399
7.28777
6.53126
5.8476
5.23044
4.6739
4.17256
3.72144
3.31592
2.95179
2.62517
2.33249
2.0705
1.83623
1.62696
1.44021
1.27373
1.12546
0.993558
0.87632
0.772224
0.679887
0.598061
0.525621
0.46155
0.404938
0.354962
0.310888
0.272054
0.237869
0.207805
0.18139
0.1582
0.137862
0.12004
0.104438
0.0907895
0.0788618
0.0684466
0.0593601
0.0514394
0.0445409
0.0385377
0.0333179
0.028783
0.0248464
0.0214319
0.0184726
0.0159098
0.0136921
0.0117744
0.0101174
0.00868655
0.00745187
0.00638708
0.00546929
0.00467856
0.00399753
0.00341106
0.00290599
0.00247086
0.00209568
0.00177175
0.00149148
0.00124823
0.00103617
0.000850154
0.000685635
0.000538537
0.000405182
0.000282202
0.000166469
5.50171e-05
104.457
96.2446
88.5906
81.4652
74.8392
68.6842
62.973
57.6796
52.7787
48.2462
44.0591
40.1953
36.6339
33.3547
30.3388
27.5681
25.0254
22.6947
20.5605
18.6086
16.8252
15.1976
13.7139
12.3628
11.1339
10.0172
9.00371
8.08483
7.25264
6.49978
5.81941
5.20522
4.65137
4.15245
3.7035
3.29994
2.93756
2.61251
2.32124
2.06052
1.82738
1.61912
1.43327
1.26759
1.12004
0.988768
0.872096
0.768502
0.67661
0.595179
0.523087
0.459326
0.402986
0.353251
0.309389
0.270743
0.236723
0.206804
0.180515
0.157438
0.137198
0.119462
0.103934
0.090352
0.0784818
0.0681168
0.0590741
0.0511916
0.0443263
0.038352
0.0331574
0.0286444
0.0247268
0.0213287
0.0183837
0.0158332
0.0136262
0.0117177
0.0100687
0.00864474
0.007416
0.00635634
0.00544297
0.00465605
0.0039783
0.00339465
0.00289201
0.00245897
0.0020856
0.00176323
0.00148431
0.00124223
0.00103119
0.000846067
0.000682339
0.000535949
0.000403235
0.000280846
0.000165669
5.47527e-05
103.926
95.7546
88.1396
81.0505
74.4582
68.3345
62.6524
57.3859
52.51
48.0006
43.8348
39.9907
36.4474
33.1849
30.1843
27.4277
24.898
22.5792
20.4559
18.5138
16.7395
15.1203
13.6441
12.2999
11.0772
9.96622
8.95787
8.04367
7.21571
6.46669
5.78978
5.17872
4.62769
4.13131
3.68464
3.28314
2.92261
2.59921
2.30943
2.05003
1.81808
1.61087
1.42597
1.26114
1.11434
0.983735
0.867657
0.76459
0.673166
0.592149
0.520424
0.456988
0.400935
0.351453
0.307815
0.269365
0.235518
0.205751
0.179597
0.156637
0.1365
0.118854
0.103405
0.0898922
0.0780824
0.0677702
0.0587735
0.0509311
0.0441008
0.0381569
0.0329887
0.0284987
0.024601
0.0212202
0.0182902
0.0157527
0.0135569
0.0116581
0.0100175
0.00860079
0.0073783
0.00632402
0.0054153
0.00463239
0.00395808
0.0033774
0.00287732
0.00244648
0.002075
0.00175427
0.00147677
0.00123592
0.00102595
0.000841771
0.000678875
0.000533228
0.000401188
0.000279421
0.000164828
5.44748e-05
103.368
95.241
87.6669
80.6158
74.0588
67.968
62.3164
57.0781
52.2283
47.7431
43.5997
39.7762
36.2519
33.0069
30.0224
27.2806
24.7645
22.4581
20.3462
18.4145
16.6498
15.0392
13.5709
12.2339
11.0178
9.91276
8.90982
8.00052
7.17701
6.432
5.75873
5.15094
4.60286
4.10915
3.66488
3.26553
2.90693
2.58527
2.29704
2.03904
1.80833
1.60223
1.41832
1.25437
1.10836
0.978459
0.863003
0.760489
0.669555
0.588973
0.517633
0.454537
0.398784
0.349569
0.306164
0.26792
0.234255
0.204648
0.178634
0.155797
0.135768
0.118217
0.102851
0.0894103
0.0776638
0.0674069
0.0584584
0.0506581
0.0438644
0.0379524
0.0328119
0.0283459
0.0244691
0.0211065
0.0181922
0.0156683
0.0134842
0.0115957
0.00996381
0.00855472
0.00733878
0.00629015
0.0053863
0.00460758
0.00393689
0.00335932
0.00286191
0.00243338
0.0020639
0.00174488
0.00146887
0.00122931
0.00102046
0.000837267
0.000675243
0.000530375
0.000399042
0.000277926
0.000163946
5.41834e-05
102.785
94.7039
87.1725
80.1611
73.6411
67.5847
61.965
56.7562
51.9338
47.4739
43.3538
39.5519
36.0474
32.8208
29.8531
27.1268
24.6248
22.3314
20.2314
18.3107
16.5559
14.9544
13.4944
12.1649
10.9556
9.85686
8.85957
7.9554
7.13654
6.39573
5.72625
5.1219
4.57691
4.08597
3.64421
3.24711
2.89054
2.57069
2.28409
2.02754
1.79813
1.5932
1.41032
1.2473
1.10211
0.972941
0.858137
0.756201
0.66578
0.585652
0.514714
0.451974
0.396536
0.347598
0.304438
0.26641
0.232934
0.203494
0.177627
0.154919
0.135002
0.11755
0.102271
0.0889063
0.077226
0.067027
0.0581289
0.0503726
0.0436172
0.0377385
0.032627
0.0281862
0.0243313
0.0209876
0.0180896
0.01558
0.0134083
0.0115304
0.00990768
0.00850653
0.00729744
0.00625473
0.00535597
0.00458164
0.00391472
0.00334041
0.0028458
0.00241968
0.00205228
0.00173506
0.0014606
0.00122239
0.00101472
0.000832556
0.000671444
0.000527392
0.000396797
0.000276362
0.000163024
5.38786e-05
102.177
94.1434
86.6566
79.6867
73.2053
67.1847
61.5982
56.4204
51.6264
47.1929
43.0972
39.3178
35.8341
32.6265
29.6765
26.9662
24.4791
22.1992
20.1117
18.2023
16.4579
14.8659
13.4145
12.0929
10.8908
9.79852
8.80714
7.90832
7.0943
6.35787
5.69236
5.09158
4.54982
4.06179
3.62264
3.2279
2.87343
2.55548
2.27057
2.01554
1.78749
1.58377
1.40198
1.23992
1.09559
0.967184
0.853058
0.751726
0.66184
0.582186
0.511669
0.449299
0.394189
0.345541
0.302636
0.264833
0.231556
0.20229
0.176576
0.154002
0.134204
0.116855
0.101666
0.0883803
0.0767692
0.0666305
0.0577851
0.0500746
0.0433592
0.0375153
0.032434
0.0280195
0.0241874
0.0208635
0.0179827
0.0154879
0.013329
0.0114622
0.00984911
0.00845624
0.00725431
0.00621776
0.00532431
0.00455456
0.00389158
0.00332067
0.00282899
0.00240539
0.00204015
0.00172481
0.00145197
0.00121517
0.00100872
0.000827639
0.000667479
0.000524277
0.000394454
0.000274731
0.000162061
5.35605e-05
101.543
93.5598
86.1193
79.1927
72.7514
66.7681
61.2163
56.0705
51.3064
46.9003
42.83
39.0741
35.6119
32.4242
29.4925
26.7991
24.3273
22.0616
19.987
18.0895
16.3558
14.7737
13.3314
12.018
10.8233
9.73777
8.75254
7.85929
7.05031
6.31845
5.65707
5.06002
4.52161
4.03661
3.60018
3.20788
2.85562
2.53963
2.25649
2.00304
1.7764
1.57395
1.39329
1.23223
1.0888
0.961187
0.84777
0.747065
0.657737
0.578577
0.508497
0.446514
0.391746
0.343399
0.30076
0.263192
0.230121
0.201036
0.175481
0.153047
0.133372
0.11613
0.101036
0.0878325
0.0762934
0.0662175
0.057427
0.0497643
0.0430905
0.0372828
0.032233
0.0278459
0.0240375
0.0207342
0.0178713
0.0153919
0.0132464
0.0113912
0.0097881
0.00840386
0.00720938
0.00617925
0.00529134
0.00452635
0.00386749
0.00330011
0.00281147
0.0023905
0.00202752
0.00171414
0.00144299
0.00120765
0.00100248
0.000822518
0.000663348
0.000521033
0.000392013
0.000273031
0.000161059
5.32291e-05
100.885
92.953
85.5608
78.6791
72.2796
66.3351
60.8193
55.7069
50.9736
46.5962
42.5523
38.8206
35.381
32.214
29.3012
26.6252
24.1696
21.9185
19.8574
17.9721
16.2498
14.6779
13.2449
11.94
10.7531
9.67461
8.69577
7.80832
7.00459
6.27748
5.62038
5.0272
4.49228
4.01043
3.57683
3.18708
2.8371
2.52316
2.24186
1.99005
1.76488
1.56374
1.38425
1.22424
1.08174
0.954954
0.842272
0.74222
0.653471
0.574825
0.505199
0.443618
0.389205
0.341172
0.29881
0.261485
0.228629
0.199733
0.174343
0.152055
0.132507
0.115378
0.100381
0.0872631
0.0757988
0.0657882
0.0570547
0.0494417
0.0428112
0.0370411
0.0320241
0.0276654
0.0238817
0.0205998
0.0177554
0.0152922
0.0131606
0.0113174
0.00972468
0.00834941
0.00716267
0.00613921
0.00525706
0.00449703
0.00384244
0.00327873
0.00279326
0.00237502
0.00201439
0.00170304
0.00143364
0.00119983
0.000995991
0.000817193
0.000659054
0.00051766
0.000389476
0.000271264
0.000160016
5.28846e-05
100.201
92.3233
84.9811
78.1461
71.79
65.8857
60.4073
55.3295
50.6283
46.2805
42.264
38.5577
35.1413
31.9957
29.1027
26.4449
24.0058
21.77
19.7228
17.8504
16.1397
14.5784
13.1552
11.8591
10.6802
9.60907
8.63686
7.75542
6.95714
6.23495
5.58231
4.99314
4.46185
3.98326
3.5526
3.16549
2.81788
2.50607
2.22667
1.97657
1.75293
1.55315
1.37487
1.21594
1.07441
0.948485
0.836566
0.737193
0.649045
0.570931
0.501777
0.440613
0.386569
0.338861
0.296786
0.259714
0.22708
0.19838
0.173162
0.151025
0.131609
0.114596
0.099701
0.0866721
0.0752854
0.0653427
0.0566683
0.0491069
0.0425213
0.0367903
0.0318072
0.0274781
0.02372
0.0204603
0.0176352
0.0151886
0.0130715
0.0112408
0.00965885
0.0082929
0.00711419
0.00609766
0.00522148
0.0044666
0.00381643
0.00325654
0.00277436
0.00235895
0.00200077
0.00169152
0.00142394
0.00119171
0.000989254
0.000811666
0.000654597
0.00051416
0.000386842
0.000269429
0.000158934
5.25269e-05
99.4932
91.6708
84.3805
77.5938
71.2826
65.4201
59.9804
54.9385
50.2705
45.9534
41.9653
38.2851
34.8929
31.7696
28.897
26.258
23.8362
21.6162
19.5834
17.7242
16.0256
14.4754
13.0622
11.7753
10.6048
9.54116
8.57582
7.70061
6.90797
6.19088
5.54285
4.95785
4.43032
3.95511
3.52749
3.14311
2.79796
2.48836
2.21093
1.9626
1.74054
1.54217
1.36516
1.20735
1.06681
0.941782
0.830654
0.731983
0.644458
0.566896
0.498231
0.4375
0.383837
0.336466
0.294689
0.257878
0.225475
0.196978
0.171939
0.149958
0.13068
0.113786
0.0989966
0.0860597
0.0747535
0.064881
0.0562679
0.0487599
0.0422209
0.0365304
0.0315826
0.027284
0.0235524
0.0203158
0.0175107
0.0150814
0.0129792
0.0111614
0.00959063
0.00823433
0.00706395
0.00605461
0.00518461
0.00443506
0.00378949
0.00323355
0.00275478
0.0023423
0.00198664
0.00167958
0.00141389
0.0011833
0.000982273
0.000805938
0.000649978
0.000510532
0.000384112
0.000267528
0.000157813
5.21563e-05
98.7605
90.9956
83.7591
77.0223
70.7576
64.9383
59.5386
54.5339
49.9003
45.615
41.6562
38.0032
34.636
31.5356
28.6842
26.0646
23.6606
21.457
19.4392
17.5937
15.9076
14.3688
12.966
11.6886
10.5267
9.47089
8.51266
7.64389
6.85709
6.14529
5.50203
4.92134
4.39769
3.92598
3.50152
3.11997
2.77736
2.47003
2.19465
1.94815
1.72772
1.53082
1.3551
1.19846
1.05896
0.934846
0.824537
0.726592
0.639712
0.562722
0.494562
0.434278
0.381011
0.333989
0.292519
0.25598
0.223815
0.195528
0.170673
0.148854
0.129717
0.112949
0.0982677
0.0854261
0.0742031
0.0644033
0.0558537
0.048401
0.04191
0.0362615
0.0313501
0.0270831
0.0233791
0.0201663
0.0173818
0.0149704
0.0128836
0.0110792
0.00952005
0.00817373
0.00701197
0.00601005
0.00514646
0.00440243
0.00376161
0.00320976
0.00273451
0.00232506
0.00197203
0.00166722
0.00140349
0.0011746
0.000975049
0.000800011
0.000645198
0.000506777
0.000381288
0.000265561
0.000156652
5.17728e-05
98.0034
90.2981
83.117
76.4319
70.2152
64.4405
59.0822
54.1158
49.5177
45.2653
41.3369
37.7119
34.3704
31.2939
28.4643
25.8648
23.4792
21.2925
19.2902
17.4588
15.7856
14.2586
12.8666
11.599
10.446
9.39829
8.4474
7.5853
6.80453
6.09818
5.45985
4.88361
4.36398
3.89589
3.47467
3.09605
2.75607
2.4511
2.17783
1.93321
1.71448
1.51908
1.34472
1.18927
1.05084
0.92768
0.818216
0.721023
0.634808
0.558408
0.490771
0.430949
0.37809
0.331429
0.290277
0.254017
0.2221
0.194029
0.169365
0.147713
0.128723
0.112083
0.0975145
0.0847713
0.0736344
0.0639098
0.0554256
0.0480301
0.0415889
0.0359836
0.0311098
0.0268756
0.0231999
0.0200118
0.0172486
0.0148557
0.0127849
0.0109943
0.00944712
0.00811112
0.00695825
0.00596402
0.00510704
0.00436871
0.0037328
0.00318518
0.00271357
0.00230726
0.00195693
0.00165446
0.00139275
0.00116561
0.000967583
0.000793886
0.000640258
0.000502898
0.000378369
0.000263528
0.000155453
5.13765e-05
97.2222
89.5782
82.4544
75.8226
69.6554
63.9268
58.6112
53.6844
49.123
44.9044
41.0074
37.4112
34.0964
31.0444
28.2374
25.6586
23.2921
21.1228
19.1364
17.3197
15.6598
14.145
12.764
11.5065
10.3627
9.32337
8.38006
7.52483
6.75028
6.04957
5.41633
4.84468
4.32919
3.86483
3.44697
3.07137
2.73409
2.43156
2.16047
1.9178
1.70081
1.50697
1.334
1.17979
1.04246
0.920285
0.811694
0.715275
0.629748
0.553957
0.486859
0.427514
0.375076
0.328787
0.287963
0.251993
0.220329
0.192482
0.168015
0.146536
0.127697
0.11119
0.0967373
0.0840957
0.0730476
0.0634004
0.0549839
0.0476473
0.0412574
0.0356968
0.0308619
0.0266614
0.0230151
0.0198523
0.0171112
0.0147373
0.0126831
0.0109067
0.00937185
0.0080465
0.00690282
0.0059165
0.00506636
0.00433391
0.00370306
0.00315981
0.00269196
0.00228888
0.00194134
0.00164128
0.00138166
0.00115632
0.000959879
0.000787565
0.00063516
0.000498894
0.000375356
0.00026143
0.000154215
5.09675e-05
96.4169
88.8363
81.7715
75.1946
69.0785
63.3973
58.1258
53.2398
48.7161
44.5325
40.6677
37.1014
33.814
30.7873
28.0035
25.4461
23.0991
20.9478
18.9779
17.1762
15.5301
14.0278
12.6583
11.4112
10.2769
9.24614
8.31065
7.4625
6.69437
5.99946
5.37147
4.80455
4.29333
3.83282
3.41843
3.04593
2.71145
2.41142
2.14257
1.90192
1.68672
1.49449
1.32295
1.17002
1.03383
0.912663
0.804971
0.709351
0.624533
0.549369
0.482827
0.423973
0.37197
0.326064
0.285578
0.249906
0.218505
0.190888
0.166623
0.145322
0.12664
0.110269
0.0959362
0.0833993
0.0724427
0.0628754
0.0545286
0.0472527
0.0409158
0.0354013
0.0306064
0.0264407
0.0228245
0.0196879
0.0169695
0.0146153
0.0125781
0.0108164
0.00929427
0.00797989
0.00684568
0.00586753
0.00502443
0.00429804
0.00367242
0.00313366
0.00266968
0.00226994
0.00192528
0.0016277
0.00137022
0.00114676
0.000951937
0.000781049
0.000629906
0.000494766
0.000372251
0.000259267
0.00015294
5.05458e-05
95.5879