/*--------------------------------*- C++ -*----------------------------------*\
| =========                 |                                                 |
| \\      /  F ield         | OpenFOAM: The Open Source CFD Toolbox           |
|  \\    /   O peration     | Version:  2406                                  |
|   \\  /    A nd           | Website:  www.openfoam.com                      |
|    \\/     M anipulation  |                                                 |
\*---------------------------------------------------------------------------*/
FoamFile
{
    version     2.0;
    format      ascii;
    arch        "LSB;label=32;scalar=64";
    class       volScalarField;
    location    "185";
    object      T;
}
// * * * * * * * * * * * * * * * * * * * * * * * * * * * * * * * * * * * * * //

dimensions      [0 0 0 1 0 0 0];

internalField   nonuniform List<scalar> 
20000
(
299.423
299.441
299.46
299.479
299.498
299.518
299.537
299.557
299.576
299.595
299.615
299.634
299.652
299.671
299.689
299.707
299.725
299.742
299.759
299.775
299.791
299.807
299.822
299.836
299.85
299.864
299.877
299.89
299.902
299.914
299.925
299.935
299.946
299.955
299.965
299.973
299.982
299.99
299.997
300.004
300.011
300.017
300.023
300.028
300.033
300.038
300.042
300.046
300.05
300.053
300.056
300.059
300.061
300.063
300.065
300.067
300.068
300.069
300.07
300.07
300.071
300.071
300.071
300.071
300.071
300.07
300.07
300.069
300.068
300.067
300.066
300.064
300.063
300.061
300.06
300.058
300.056
300.054
300.053
300.05
300.048
300.046
300.044
300.042
300.039
300.037
300.035
300.032
300.03
300.027
300.025
300.022
300.02
300.017
300.015
300.012
300.009
300.007
300.004
300.001
298.269
298.324
298.38
298.437
298.495
298.553
298.611
298.67
298.728
298.786
298.844
298.901
298.957
299.013
299.068
299.121
299.174
299.226
299.276
299.325
299.373
299.42
299.465
299.509
299.551
299.592
299.631
299.669
299.706
299.741
299.774
299.806
299.837
299.866
299.894
299.92
299.945
299.969
299.991
300.013
300.032
300.051
300.068
300.085
300.1
300.114
300.126
300.138
300.149
300.159
300.168
300.176
300.183
300.189
300.195
300.2
300.204
300.207
300.209
300.211
300.213
300.213
300.213
300.213
300.212
300.211
300.209
300.206
300.204
300.2
300.197
300.193
300.189
300.184
300.179
300.174
300.169
300.163
300.158
300.151
300.145
300.139
300.132
300.125
300.118
300.111
300.104
300.097
300.09
300.082
300.075
300.067
300.059
300.051
300.044
300.036
300.028
300.02
300.012
300.004
297.116
297.207
297.301
297.396
297.492
297.588
297.686
297.783
297.88
297.977
298.073
298.168
298.262
298.355
298.446
298.536
298.624
298.71
298.794
298.876
298.956
299.033
299.108
299.181
299.252
299.32
299.385
299.449
299.509
299.568
299.624
299.677
299.728
299.777
299.823
299.867
299.909
299.948
299.986
300.021
300.054
300.085
300.114
300.141
300.166
300.189
300.211
300.23
300.249
300.265
300.28
300.293
300.305
300.316
300.325
300.333
300.339
300.345
300.349
300.352
300.354
300.355
300.356
300.355
300.353
300.351
300.348
300.344
300.339
300.334
300.328
300.322
300.315
300.307
300.299
300.291
300.282
300.272
300.262
300.252
300.242
300.231
300.22
300.209
300.197
300.186
300.174
300.162
300.149
300.137
300.124
300.111
300.099
300.086
300.073
300.059
300.046
300.033
300.02
300.007
295.963
296.091
296.222
296.355
296.489
296.625
296.761
296.897
297.033
297.169
297.303
297.436
297.568
297.698
297.825
297.951
298.074
298.194
298.312
298.427
298.538
298.647
298.752
298.854
298.953
299.048
299.14
299.228
299.313
299.395
299.473
299.548
299.62
299.688
299.753
299.814
299.873
299.928
299.98
300.029
300.075
300.119
300.159
300.197
300.232
300.265
300.295
300.323
300.348
300.371
300.392
300.41
300.427
300.442
300.455
300.466
300.475
300.482
300.488
300.493
300.496
300.497
300.498
300.497
300.494
300.491
300.487
300.481
300.475
300.467
300.459
300.45
300.44
300.43
300.419
300.407
300.394
300.381
300.367
300.353
300.339
300.324
300.308
300.292
300.276
300.26
300.243
300.226
300.209
300.191
300.174
300.156
300.138
300.12
300.102
300.083
300.065
300.046
300.028
300.009
294.811
294.976
295.144
295.315
295.488
295.662
295.837
296.012
296.187
296.361
296.534
296.705
296.874
297.041
297.205
297.366
297.524
297.679
297.83
297.978
298.121
298.261
298.396
298.527
298.654
298.776
298.895
299.008
299.118
299.222
299.323
299.419
299.511
299.599
299.682
299.761
299.836
299.907
299.974
300.038
300.097
300.153
300.205
300.253
300.299
300.34
300.379
300.415
300.447
300.477
300.503
300.527
300.549
300.568
300.584
300.598
300.61
300.62
300.628
300.633
300.637
300.639
300.64
300.638
300.636
300.631
300.626
300.619
300.61
300.601
300.59
300.579
300.566
300.552
300.538
300.523
300.507
300.49
300.472
300.454
300.435
300.416
300.396
300.376
300.355
300.334
300.313
300.291
300.269
300.246
300.223
300.2
300.177
300.154
300.131
300.107
300.083
300.06
300.036
300.012
293.661
293.862
294.067
294.276
294.487
294.7
294.914
295.128
295.341
295.554
295.765
295.974
296.181
296.385
296.585
296.782
296.976
297.165
297.349
297.529
297.705
297.875
298.04
298.201
298.355
298.505
298.649
298.788
298.922
299.05
299.173
299.29
299.403
299.51
299.611
299.708
299.8
299.887
299.969
300.046
300.118
300.187
300.25
300.31
300.365
300.416
300.463
300.507
300.546
300.582
300.615
300.644
300.671
300.694
300.714
300.731
300.746
300.757
300.767
300.774
300.779
300.781
300.781
300.78
300.776
300.771
300.764
300.756
300.746
300.734
300.721
300.707
300.691
300.675
300.657
300.638
300.619
300.598
300.577
300.555
300.532
300.508
300.484
300.459
300.434
300.408
300.382
300.355
300.328
300.301
300.273
300.245
300.217
300.188
300.16
300.131
300.102
300.073
300.044
300.015
292.512
292.749
292.992
293.238
293.488
293.739
293.992
294.245
294.497
294.748
294.998
295.245
295.489
295.73
295.967
296.199
296.427
296.651
296.869
297.082
297.289
297.49
297.685
297.874
298.057
298.234
298.405
298.569
298.727
298.878
299.023
299.162
299.294
299.421
299.541
299.655
299.764
299.866
299.963
300.054
300.14
300.22
300.296
300.366
300.431
300.491
300.547
300.598
300.645
300.688
300.727
300.761
300.792
300.819
300.843
300.863
300.881
300.895
300.906
300.914
300.92
300.923
300.923
300.921
300.917
300.911
300.903
300.893
300.881
300.867
300.852
300.835
300.817
300.797
300.776
300.754
300.731
300.707
300.681
300.655
300.628
300.6
300.572
300.543
300.513
300.482
300.451
300.42
300.388
300.355
300.322
300.289
300.256
300.222
300.188
300.154
300.12
300.086
300.052
300.017
291.365
291.639
291.919
292.203
292.49
292.78
293.071
293.363
293.654
293.944
294.231
294.516
294.798
295.075
295.349
295.617
295.88
296.138
296.389
296.635
296.873
297.105
297.331
297.549
297.76
297.964
298.16
298.35
298.531
298.706
298.873
299.033
299.186
299.332
299.471
299.602
299.727
299.846
299.957
300.063
300.161
300.254
300.341
300.422
300.497
300.567
300.631
300.69
300.744
300.793
300.838
300.878
300.913
300.945
300.972
300.996
301.016
301.032
301.045
301.054
301.06
301.064
301.064
301.062
301.058
301.051
301.041
301.029
301.016
301
300.982
300.963
300.942
300.919
300.895
300.87
300.843
300.815
300.786
300.756
300.724
300.692
300.659
300.626
300.591
300.556
300.52
300.484
300.447
300.41
300.372
300.334
300.295
300.256
300.217
300.178
300.139
300.099
300.06
300.02
290.22
290.53
290.847
291.169
291.495
291.823
292.153
292.483
292.813
293.141
293.466
293.789
294.108
294.423
294.732
295.036
295.334
295.626
295.911
296.188
296.459
296.722
296.977
297.224
297.463
297.694
297.916
298.131
298.337
298.534
298.724
298.905
299.078
299.243
299.401
299.55
299.691
299.825
299.952
300.071
300.183
300.288
300.386
300.478
300.563
300.642
300.715
300.781
300.843
300.898
300.949
300.994
301.035
301.07
301.101
301.128
301.15
301.169
301.183
301.194
301.201
301.205
301.206
301.203
301.198
301.19
301.179
301.166
301.15
301.132
301.113
301.091
301.067
301.041
301.014
300.985
300.955
300.923
300.89
300.856
300.821
300.784
300.747
300.709
300.669
300.63
300.589
300.548
300.506
300.464
300.421
300.378
300.334
300.29
300.246
300.202
300.157
300.112
300.067
300.022
289.078
289.424
289.778
290.137
290.501
290.868
291.236
291.605
291.973
292.339
292.703
293.064
293.42
293.771
294.117
294.456
294.789
295.115
295.433
295.743
296.045
296.339
296.624
296.899
297.166
297.424
297.673
297.912
298.142
298.363
298.575
298.777
298.971
299.155
299.331
299.497
299.655
299.805
299.946
300.079
300.204
300.321
300.431
300.533
300.629
300.717
300.798
300.873
300.941
301.003
301.06
301.11
301.155
301.195
301.23
301.26
301.285
301.305
301.321
301.333
301.341
301.346
301.346
301.344
301.338
301.329
301.317
301.302
301.285
301.265
301.242
301.218
301.191
301.163
301.132
301.1
301.066
301.031
300.994
300.956
300.916
300.876
300.834
300.791
300.748
300.703
300.658
300.612
300.565
300.518
300.47
300.422
300.373
300.324
300.275
300.225
300.175
300.125
300.075
300.025
287.938
288.32
288.711
289.108
289.51
289.915
290.322
290.729
291.135
291.54
291.942
292.34
292.733
293.121
293.503
293.878
294.245
294.605
294.956
295.299
295.632
295.957
296.271
296.576
296.871
297.156
297.43
297.694
297.949
298.193
298.426
298.65
298.863
299.067
299.261
299.445
299.619
299.784
299.94
300.087
300.225
300.355
300.476
300.589
300.694
300.791
300.881
300.964
301.039
301.108
301.17
301.226
301.276
301.32
301.358
301.391
301.419
301.441
301.459
301.472
301.481
301.486
301.487
301.484
301.477
301.467
301.454
301.438
301.419
301.397
301.372
301.345
301.316
301.284
301.25
301.215
301.178
301.138
301.098
301.056
301.012
300.967
300.921
300.874
300.826
300.777
300.727
300.676
300.624
300.572
300.519
300.466
300.412
300.358
300.304
300.249
300.194
300.139
300.083
300.028
286.801
287.22
287.647
288.082
288.521
288.964
289.409
289.855
290.3
290.743
291.182
291.618
292.048
292.473
292.89
293.301
293.703
294.096
294.481
294.856
295.221
295.575
295.92
296.253
296.576
296.887
297.188
297.477
297.755
298.022
298.278
298.523
298.756
298.979
299.191
299.392
299.583
299.764
299.935
300.096
300.247
300.388
300.521
300.645
300.76
300.866
300.964
301.055
301.137
301.213
301.281
301.342
301.396
301.444
301.486
301.522
301.552
301.577
301.597
301.611
301.621
301.626
301.627
301.624
301.617
301.606
301.591
301.573
301.552
301.528
301.501
301.472
301.44
301.405
301.368
301.329
301.288
301.246
301.201
301.155
301.107
301.058
301.008
300.956
300.904
300.85
300.795
300.739
300.683
300.626
300.568
300.51
300.451
300.392
300.332
300.272
300.212
300.152
300.091
300.03
285.667
286.122
286.586
287.058
287.535
288.017
288.5
288.984
289.467
289.948
290.425
290.898
291.365
291.826
292.28
292.725
293.162
293.589
294.007
294.414
294.81
295.196
295.569
295.931
296.282
296.62
296.946
297.261
297.562
297.852
298.13
298.396
298.649
298.891
299.122
299.34
299.548
299.744
299.929
300.104
300.268
300.422
300.566
300.7
300.825
300.94
301.047
301.145
301.235
301.317
301.391
301.457
301.516
301.568
301.614
301.653
301.686
301.712
301.734
301.75
301.76
301.766
301.767
301.763
301.756
301.744
301.728
301.709
301.686
301.66
301.63
301.598
301.563
301.526
301.486
301.444
301.399
301.353
301.304
301.254
301.202
301.149
301.094
301.038
300.981
300.923
300.863
300.803
300.742
300.68
300.617
300.554
300.49
300.425
300.361
300.296
300.23
300.165
300.099
300.033
284.537
285.028
285.529
286.038
286.553
287.072
287.593
288.115
288.636
289.155
289.67
290.18
290.685
291.182
291.671
292.152
292.623
293.084
293.534
293.974
294.401
294.817
295.22
295.611
295.989
296.354
296.706
297.045
297.37
297.683
297.983
298.269
298.543
298.804
299.052
299.288
299.512
299.724
299.924
300.112
300.289
300.455
300.61
300.755
300.89
301.015
301.13
301.236
301.332
301.421
301.5
301.572
301.636
301.692
301.741
301.783
301.818
301.848
301.87
301.887
301.899
301.905
301.906
301.902
301.894
301.881
301.864
301.843
301.819
301.79
301.759
301.724
301.687
301.646
301.603
301.557
301.509
301.459
301.407
301.353
301.297
301.24
301.181
301.12
301.058
300.995
300.931
300.866
300.8
300.733
300.666
300.597
300.528
300.459
300.389
300.319
300.248
300.178
300.107
300.036
283.411
283.937
284.475
285.021
285.573
286.13
286.69
287.25
287.809
288.365
288.918
289.465
290.006
290.539
291.064
291.58
292.086
292.58
293.063
293.535
293.993
294.439
294.872
295.291
295.696
296.088
296.466
296.829
297.179
297.514
297.836
298.143
298.437
298.717
298.983
299.236
299.476
299.703
299.918
300.12
300.31
300.488
300.655
300.81
300.955
301.088
301.212
301.326
301.429
301.524
301.61
301.686
301.755
301.815
301.868
301.913
301.951
301.982
302.007
302.025
302.037
302.044
302.045
302.041
302.032
302.018
302
301.978
301.951
301.921
301.887
301.85
301.809
301.766
301.72
301.671
301.619
301.566
301.51
301.452
301.392
301.33
301.267
301.202
301.136
301.068
300.999
300.929
300.859
300.787
300.714
300.641
300.567
300.492
300.417
300.342
300.266
300.19
300.114
300.038
282.289
282.851
283.424
284.007
284.597
285.192
285.789
286.387
286.984
287.578
288.168
288.752
289.33
289.9
290.46
291.011
291.55
292.078
292.594
293.097
293.587
294.063
294.525
294.972
295.405
295.823
296.227
296.615
296.988
297.346
297.689
298.017
298.331
298.63
298.914
299.185
299.441
299.683
299.912
300.128
300.331
300.521
300.699
300.865
301.019
301.162
301.294
301.415
301.526
301.627
301.718
301.8
301.873
301.938
301.994
302.042
302.083
302.116
302.142
302.162
302.175
302.182
302.183
302.179
302.169
302.155
302.135
302.111
302.083
302.051
302.015
301.975
301.932
301.885
301.836
301.784
301.729
301.672
301.612
301.55
301.486
301.42
301.352
301.283
301.212
301.14
301.067
300.992
300.917
300.84
300.762
300.684
300.605
300.526
300.446
300.365
300.284
300.203
300.122
300.041
281.171
281.769
282.378
282.998
283.625
284.257
284.892
285.528
286.163
286.794
287.421
288.043
288.657
289.262
289.858
290.443
291.017
291.578
292.127
292.662
293.182
293.688
294.179
294.655
295.115
295.56
295.988
296.401
296.798
297.179
297.543
297.892
298.226
298.543
298.846
299.133
299.406
299.663
299.907
300.136
300.352
300.554
300.743
300.92
301.084
301.235
301.376
301.505
301.622
301.73
301.827
301.914
301.992
302.06
302.12
302.171
302.214
302.25
302.278
302.298
302.312
302.32
302.321
302.316
302.306
302.291
302.27
302.245
302.215
302.18
302.142
302.1
302.054
302.004
301.952
301.896
301.838
301.777
301.714
301.648
301.58
301.51
301.438
301.364
301.289
301.212
301.134
301.055
300.974
300.893
300.811
300.727
300.644
300.559
300.474
300.388
300.302
300.216
300.13
300.043
280.058
280.691
281.337
281.993
282.657
283.327
283.999
284.672
285.344
286.013
286.678
287.336
287.986
288.627
289.258
289.878
290.486
291.08
291.661
292.228
292.779
293.315
293.835
294.339
294.827
295.297
295.751
296.188
296.609
297.012
297.398
297.768
298.121
298.457
298.778
299.082
299.371
299.644
299.901
300.144
300.373
300.587
300.787
300.974
301.148
301.309
301.457
301.594
301.718
301.832
301.935
302.027
302.109
302.182
302.245
302.3
302.345
302.383
302.412
302.434
302.449
302.457
302.458
302.453
302.443
302.426
302.404
302.377
302.345
302.309
302.268
302.224
302.175
302.123
302.067
302.009
301.947
301.882
301.815
301.745
301.673
301.599
301.523
301.445
301.365
301.284
301.201
301.117
301.032
300.946
300.859
300.77
300.682
300.592
300.502
300.411
300.32
300.229
300.137
300.046
278.95
279.618
280.3
280.992
281.693
282.4
283.11
283.821
284.53
285.236
285.937
286.632
287.318
287.995
288.661
289.316
289.957
290.585
291.198
291.796
292.378
292.944
293.493
294.025
294.539
295.036
295.515
295.977
296.42
296.846
297.254
297.644
298.016
298.372
298.71
299.031
299.336
299.624
299.896
300.152
300.393
300.62
300.831
301.028
301.211
301.381
301.538
301.682
301.814
301.934
302.042
302.14
302.227
302.303
302.37
302.427
302.476
302.515
302.546
302.57
302.585
302.594
302.595
302.59
302.578
302.561
302.538
302.509
302.476
302.437
302.395
302.347
302.296
302.241
302.182
302.12
302.055
301.987
301.916
301.842
301.766
301.688
301.607
301.525
301.441
301.355
301.268
301.179
301.089
300.998
300.906
300.813
300.719
300.625
300.53
300.434
300.338
300.242
300.145
300.048
277.847
278.55
279.267
279.996
280.734
281.478
282.225
282.973
283.719
284.463
285.201
285.932
286.654
287.366
288.067
288.756
289.431
290.091
290.737
291.366
291.979
292.574
293.152
293.712
294.253
294.776
295.28
295.766
296.232
296.68
297.11
297.52
297.912
298.286
298.642
298.98
299.301
299.604
299.89
300.16
300.414
300.652
300.874
301.082
301.275
301.454
301.619
301.77
301.909
302.035
302.149
302.252
302.343
302.424
302.494
302.555
302.605
302.647
302.68
302.704
302.721
302.729
302.731
302.725
302.713
302.695
302.671
302.641
302.606
302.565
302.52
302.47
302.416
302.358
302.297
302.231
302.163
302.091
302.016
301.939
301.859
301.776
301.692
301.605
301.516
301.426
301.334
301.241
301.146
301.051
300.954
300.856
300.757
300.658
300.558
300.457
300.356
300.254
300.153
300.051
276.749
277.487
278.24
279.005
279.78
280.56
281.344
282.129
282.913
283.693
284.467
285.235
285.993
286.74
287.476
288.199
288.907
289.601
290.278
290.938
291.581
292.206
292.812
293.4
293.968
294.517
295.046
295.556
296.046
296.516
296.966
297.397
297.809
298.201
298.575
298.93
299.266
299.584
299.885
300.168
300.435
300.684
300.918
301.136
301.338
301.526
301.699
301.858
302.004
302.136
302.256
302.364
302.459
302.544
302.618
302.681
302.734
302.778
302.812
302.838
302.855
302.865
302.866
302.86
302.848
302.829
302.803
302.772
302.735
302.692
302.645
302.593
302.536
302.475
302.41
302.342
302.27
302.194
302.116
302.035
301.951
301.864
301.775
301.684
301.592
301.497
301.4
301.303
301.203
301.103
301.001
300.898
300.795
300.69
300.585
300.48
300.373
300.267
300.16
300.053
275.658
276.43
277.218
278.02
278.83
279.648
280.468
281.29
282.111
282.927
283.738
284.541
285.335
286.118
286.888
287.645
288.386
289.112
289.821
290.513
291.186
291.84
292.475
293.09
293.685
294.26
294.814
295.347
295.86
296.352
296.824
297.275
297.706
298.117
298.508
298.879
299.232
299.565
299.88
300.176
300.455
300.716
300.961
301.189
301.401
301.597
301.779
301.945
302.098
302.236
302.362
302.475
302.575
302.664
302.741
302.807
302.863
302.908
302.945
302.971
302.989
302.999
303.001
302.995
302.982
302.961
302.935
302.902
302.863
302.819
302.769
302.714
302.655
302.591
302.524
302.452
302.376
302.297
302.215
302.13
302.042
301.952
301.859
301.764
301.666
301.567
301.466
301.364
301.26
301.154
301.048
300.94
300.832
300.723
300.613
300.502
300.391
300.28
300.168
300.056
274.572
275.379
276.202
277.039
277.886
278.74
279.597
280.456
281.313
282.166
283.013
283.852
284.681
285.499
286.303
287.094
287.868
288.627
289.367
290.09
290.793
291.476
292.139
292.782
293.403
294.004
294.582
295.14
295.676
296.19
296.682
297.154
297.604
298.033
298.441
298.829
299.197
299.545
299.874
300.184
300.475
300.748
301.004
301.242
301.463
301.668
301.858
302.032
302.191
302.336
302.467
302.585
302.69
302.782
302.863
302.932
302.99
303.038
303.076
303.104
303.123
303.133
303.135
303.128
303.115
303.094
303.066
303.031
302.991
302.944
302.893
302.836
302.774
302.707
302.636
302.561
302.482
302.4
302.314
302.225
302.133
302.039
301.942
301.842
301.741
301.637
301.532
301.425
301.316
301.206
301.095
300.982
300.869
300.755
300.64
300.524
300.408
300.292
300.175
300.058
273.492
274.333
275.192
276.064
276.947
277.837
278.731
279.626
280.519
281.409
282.291
283.166
284.03
284.883
285.722
286.546
287.353
288.144
288.916
289.669
290.402
291.114
291.806
292.475
293.123
293.749
294.352
294.933
295.492
296.028
296.542
297.033
297.502
297.949
298.375
298.78
299.163
299.526
299.869
300.192
300.495
300.78
301.046
301.295
301.525
301.739
301.937
302.118
302.284
302.435
302.572
302.695
302.804
302.9
302.985
303.057
303.117
303.167
303.206
303.236
303.255
303.266
303.268
303.261
303.247
303.225
303.196
303.16
303.118
303.069
303.015
302.956
302.891
302.822
302.748
302.67
302.588
302.502
302.412
302.32
302.224
302.125
302.024
301.92
301.815
301.707
301.597
301.485
301.372
301.257
301.141
301.024
300.906
300.787
300.667
300.547
300.426
300.304
300.183
300.061
272.419
273.294
274.188
275.096
276.014
276.94
277.87
278.801
279.731
280.656
281.575
282.485
283.384
284.271
285.144
286.001
286.841
287.664
288.467
289.251
290.013
290.755
291.474
292.171
292.845
293.496
294.124
294.728
295.309
295.867
296.402
296.913
297.401
297.866
298.309
298.73
299.129
299.507
299.864
300.2
300.515
300.812
301.089
301.347
301.587
301.81
302.015
302.204
302.377
302.534
302.676
302.804
302.918
303.018
303.105
303.18
303.244
303.295
303.336
303.367
303.387
303.398
303.4
303.393
303.378
303.355
303.325
303.288
303.244
303.194
303.137
303.076
303.008
302.936
302.859
302.778
302.692
302.603
302.51
302.414
302.314
302.211
302.106
301.998
301.888
301.776
301.661
301.545
301.427
301.308
301.187
301.066
300.943
300.819
300.694
300.569
300.443
300.317
300.19
300.063
271.353
272.262
273.19
274.133
275.087
276.049
277.015
277.982
278.947
279.908
280.862
281.808
282.742
283.663
284.57
285.46
286.333
287.187
288.021
288.835
289.627
290.397
291.144
291.868
292.568
293.245
293.897
294.525
295.128
295.707
296.262
296.793
297.301
297.784
298.244
298.681
299.096
299.488
299.858
300.207
300.535
300.843
301.131
301.399
301.649
301.88
302.093
302.289
302.468
302.632
302.779
302.912
303.03
303.135
303.225
303.303
303.369
303.423
303.465
303.497
303.518
303.529
303.531
303.524
303.509
303.485
303.454
303.415
303.369
303.317
303.259
303.194
303.125
303.05
302.97
302.885
302.796
302.704
302.607
302.507
302.403
302.297
302.187
302.075
301.961
301.844
301.726
301.605
301.483
301.359
301.233
301.107
300.979
300.85
300.721
300.591
300.46
300.329
300.197
300.066
270.294
271.237
272.199
273.176
274.166
275.163
276.165
277.168
278.169
279.165
280.155
281.135
282.104
283.059
283.999
284.922
285.828
286.713
287.579
288.422
289.244
290.042
290.817
291.568
292.294
292.995
293.671
294.322
294.948
295.549
296.124
296.675
297.201
297.702
298.179
298.633
299.062
299.469
299.853
300.215
300.555
300.874
301.173
301.451
301.71
301.949
302.17
302.374
302.56
302.729
302.882
303.02
303.142
303.25
303.345
303.425
303.494
303.549
303.593
303.626
303.648
303.66
303.662
303.655
303.639
303.614
303.581
303.541
303.494
303.44
303.379
303.313
303.24
303.162
303.08
302.992
302.9
302.804
302.703
302.6
302.492
302.382
302.268
302.152
302.033
301.912
301.789
301.664
301.537
301.409
301.279
301.148
301.015
300.882
300.748
300.613
300.477
300.341
300.205
300.068
269.242
270.218
271.214
272.227
273.251
274.284
275.321
276.359
277.396
278.428
279.452
280.467
281.47
282.459
283.433
284.389
285.326
286.243
287.139
288.012
288.863
289.69
290.492
291.269
292.021
292.747
293.447
294.121
294.769
295.391
295.987
296.557
297.102
297.621
298.115
298.584
299.029
299.45
299.848
300.223
300.575
300.905
301.214
301.502
301.77
302.018
302.247
302.458
302.65
302.826
302.984
303.127
303.254
303.366
303.463
303.547
303.617
303.675
303.721
303.755
303.777
303.79
303.792
303.784
303.767
303.742
303.708
303.667
303.618
303.562
303.499
303.43
303.355
303.274
303.189
303.098
303.003
302.903
302.799
302.692
302.58
302.466
302.349
302.228
302.105
301.98
301.853
301.723
301.592
301.459
301.324
301.188
301.051
300.913
300.774
300.634
300.494
300.353
300.212
300.071
268.198
269.207
270.237
271.284
272.343
273.411
274.483
275.557
276.628
277.695
278.755
279.804
280.841
281.864
282.87
283.859
284.828
285.776
286.702
287.605
288.485
289.34
290.169
290.973
291.75
292.501
293.225
293.922
294.592
295.235
295.851
296.44
297.003
297.54
298.051
298.536
298.996
299.432
299.843
300.23
300.594
300.936
301.255
301.553
301.83
302.087
302.324
302.541
302.74
302.922
303.086
303.233
303.364
303.48
303.581
303.667
303.74
303.8
303.847
303.882
303.906
303.918
303.92
303.913
303.895
303.869
303.834
303.791
303.74
303.682
303.618
303.546
303.469
303.386
303.297
303.203
303.104
303.001
302.894
302.783
302.668
302.55
302.428
302.304
302.177
302.047
301.916
301.782
301.646
301.508
301.369
301.229
301.087
300.944
300.8
300.656
300.511
300.365
300.219
300.073
267.162
268.204
269.267
270.348
271.442
272.544
273.652
274.76
275.867
276.969
278.062
279.146
280.217
281.273
282.312
283.333
284.333
285.312
286.269
287.202
288.11
288.992
289.849
290.678
291.481
292.256
293.004
293.723
294.415
295.079
295.716
296.324
296.906
297.46
297.987
298.488
298.963
299.413
299.838
300.238
300.614
300.966
301.296
301.604
301.89
302.155
302.399
302.624
302.83
303.017
303.186
303.338
303.474
303.593
303.697
303.787
303.862
303.924
303.972
304.008
304.033
304.046
304.048
304.04
304.022
303.995
303.959
303.915
303.862
303.802
303.735
303.662
303.582
303.496
303.404
303.307
303.206
303.099
302.988
302.874
302.755
302.633
302.508
302.379
302.248
302.114
301.978
301.84
301.699
301.557
301.414
301.269
301.122
300.975
300.826
300.677
300.527
300.377
300.226
300.075
266.134
267.208
268.305
269.42
270.548
271.685
272.827
273.97
275.111
276.247
277.375
278.493
279.597
280.686
281.758
282.811
283.843
284.852
285.839
286.801
287.737
288.648
289.531
290.387
291.214
292.014
292.785
293.527
294.24
294.925
295.581
296.209
296.809
297.38
297.924
298.441
298.931
299.395
299.833
300.245
300.633
300.997
301.337
301.654
301.949
302.222
302.474
302.706
302.918
303.111
303.286
303.443
303.582
303.706
303.813
303.905
303.983
304.046
304.097
304.134
304.159
304.173
304.175
304.167
304.148
304.12
304.083
304.037
303.983
303.922
303.852
303.776
303.694
303.605
303.511
303.411
303.306
303.196
303.082
302.964
302.841
302.715
302.586
302.454
302.318
302.18
302.04
301.897
301.753
301.606
301.458
301.308
301.157
301.005
300.852
300.698
300.544
300.389
300.233
300.078
265.114
266.22
267.35
268.499
269.661
270.832
272.008
273.186
274.362
275.532
276.694
277.845
278.983
280.105
281.209
282.293
283.356
284.396
285.412
286.403
287.368
288.306
289.216
290.097
290.95
291.773
292.567
293.332
294.067
294.772
295.448
296.095
296.713
297.301
297.862
298.394
298.899
299.376
299.828
300.253
300.652
301.027
301.377
301.704
302.008
302.289
302.549
302.788
303.006
303.205
303.385
303.546
303.69
303.817
303.928
304.023
304.103
304.168
304.22
304.258
304.284
304.298
304.301
304.292
304.273
304.244
304.206
304.159
304.103
304.04
303.968
303.89
303.805
303.714
303.617
303.514
303.406
303.292
303.175
303.053
302.927
302.797
302.664
302.527
302.388
302.246
302.101
301.954
301.805
301.655
301.502
301.348
301.192
301.036
300.878
300.719
300.56
300.401
300.241
300.08
264.103
265.241
266.404
267.586
268.781
269.986
271.197
272.409
273.619
274.823
276.019
277.203
278.374
279.528
280.664
281.78
282.874
283.944
284.99
286.009
287.002
287.967
288.903
289.81
290.687
291.535
292.352
293.139
293.895
294.621
295.316
295.982
296.617
297.223
297.8
298.347
298.867
299.358
299.823
300.26
300.671
301.056
301.417
301.753
302.066
302.355
302.623
302.868
303.093
303.298
303.483
303.649
303.797
303.928
304.042
304.139
304.222
304.289
304.342
304.382
304.409
304.423
304.425
304.416
304.397
304.367
304.328
304.279
304.222
304.157
304.084
304.003
303.916
303.822
303.721
303.616
303.504
303.388
303.267
303.141
303.012
302.878
302.741
302.601
302.457
302.311
302.162
302.011
301.858
301.702
301.545
301.387
301.227
301.066
300.903
300.74
300.577
300.412
300.247
300.083
263.1
264.271
265.466
266.68
267.909
269.148
270.393
271.638
272.882
274.12
275.349
276.566
277.77
278.956
280.124
281.271
282.395
283.496
284.57
285.619
286.639
287.631
288.593
289.525
290.427
291.298
292.138
292.947
293.725
294.471
295.186
295.87
296.523
297.146
297.738
298.301
298.835
299.34
299.818
300.267
300.69
301.086
301.457
301.802
302.124
302.421
302.696
302.949
303.18
303.39
303.58
303.751
303.903
304.038
304.155
304.255
304.34
304.409
304.464
304.504
304.532
304.546
304.549
304.54
304.52
304.489
304.449
304.399
304.34
304.273
304.198
304.115
304.025
303.928
303.825
303.717
303.602
303.483
303.358
303.229
303.096
302.959
302.818
302.673
302.526
302.376
302.223
302.067
301.91
301.75
301.589
301.426
301.261
301.095
300.929
300.761
300.593
300.424
300.254
300.085
262.107
263.309
264.536
265.784
267.046
268.318
269.596
270.875
272.152
273.423
274.685
275.936
277.171
278.39
279.589
280.767
281.921
283.051
284.155
285.231
286.279
287.298
288.286
289.243
290.17
291.064
291.927
292.757
293.556
294.322
295.056
295.758
296.429
297.069
297.677
298.256
298.804
299.323
299.813
300.274
300.708
301.115
301.496
301.851
302.181
302.486
302.769
303.028
303.265
303.481
303.677
303.852
304.008
304.146
304.266
304.37
304.456
304.528
304.584
304.626
304.654
304.669
304.671
304.662
304.641
304.61
304.568
304.517
304.457
304.388
304.311
304.226
304.133
304.034
303.928
303.817
303.699
303.576
303.448
303.316
303.179
303.038
302.894
302.745
302.594
302.44
302.282
302.123
301.961
301.797
301.631
301.464
301.295
301.125
300.954
300.782
300.609
300.435
300.261
300.087
261.123
262.356
263.615
264.895
266.19
267.495
268.806
270.119
271.429
272.733
274.028
275.311
276.579
277.829
279.059
280.267
281.452
282.611
283.744
284.848
285.923
286.968
287.982
288.964
289.914
290.832
291.717
292.569
293.388
294.174
294.928
295.648
296.336
296.993
297.617
298.21
298.773
299.305
299.808
300.281
300.727
301.144
301.535
301.899
302.237
302.551
302.84
303.107
303.35
303.572
303.772
303.952
304.112
304.254
304.377
304.483
304.572
304.645
304.703
304.746
304.774
304.79
304.793
304.783
304.762
304.73
304.687
304.635
304.573
304.502
304.422
304.335
304.241
304.139
304.03
303.916
303.795
303.669
303.538
303.402
303.262
303.117
302.969
302.817
302.661
302.503
302.342
302.178
302.012
301.844
301.674
301.502
301.329
301.154
300.978
300.802
300.624
300.446
300.268
300.089
260.149
261.413
262.704
264.015
265.343
266.68
268.024
269.37
270.713
272.05
273.377
274.692
275.992
277.273
278.534
279.773
280.987
282.175
283.336
284.468
285.57
286.641
287.681
288.688
289.662
290.602
291.51
292.383
293.223
294.028
294.801
295.539
296.245
296.917
297.557
298.165
298.742
299.288
299.803
300.288
300.745
301.173
301.573
301.946
302.293
302.615
302.912
303.184
303.434
303.661
303.867
304.051
304.216
304.361
304.487
304.595
304.687
304.762
304.821
304.865
304.894
304.91
304.913
304.903
304.881
304.848
304.805
304.751
304.687
304.615
304.533
304.444
304.347
304.242
304.131
304.014
303.89
303.761
303.627
303.487
303.343
303.195
303.043
302.887
302.728
302.566
302.4
302.233
302.062