/*--------------------------------*- C++ -*----------------------------------*\
| =========                 |                                                 |
| \\      /  F ield         | OpenFOAM: The Open Source CFD Toolbox           |
|  \\    /   O peration     | Version:  2406                                  |
|   \\  /    A nd           | Website:  www.openfoam.com                      |
|    \\/     M anipulation  |                                                 |
\*---------------------------------------------------------------------------*/
FoamFile
{
    version     2.0;
    format      ascii;
    arch        "LSB;label=32;scalar=64";
    class       volVectorField;
    location    "100";
    object      flux;
}
// * * * * * * * * * * * * * * * * * * * * * * * * * * * * * * * * * * * * * //

dimensions      [0 1 -1 1 0 0 0];

internalField   nonuniform List<vector> 
20000
(
(-2.81514e-05 0.027705 0)
(-8.15584e-05 0.0275924 0)
(-0.000129378 0.0273788 0)
(-0.00017181 0.027075 0)
(-0.000209196 0.0266916 0)
(-0.000242095 0.0262381 0)
(-0.000270628 0.0257233 0)
(-0.000294971 0.0251558 0)
(-0.000315602 0.0245435 0)
(-0.000332839 0.0238934 0)
(-0.000346893 0.0232122 0)
(-0.000357984 0.0225059 0)
(-0.000366359 0.0217804 0)
(-0.000372266 0.0210406 0)
(-0.000375944 0.0202914 0)
(-0.000377607 0.0195369 0)
(-0.000377456 0.0187811 0)
(-0.000375677 0.0180272 0)
(-0.000372443 0.0172784 0)
(-0.000367919 0.0165375 0)
(-0.00036226 0.0158069 0)
(-0.000355609 0.0150886 0)
(-0.0003481 0.0143845 0)
(-0.00033986 0.0136963 0)
(-0.000331002 0.0130252 0)
(-0.000321632 0.0123723 0)
(-0.00031185 0.0117387 0)
(-0.000301744 0.011125 0)
(-0.000291395 0.0105318 0)
(-0.000280879 0.00995949 0)
(-0.000270261 0.00940835 0)
(-0.000259602 0.00887852 0)
(-0.000248957 0.00837001 0)
(-0.000238373 0.00788275 0)
(-0.000227895 0.00741658 0)
(-0.000217558 0.00697123 0)
(-0.000207397 0.0065464 0)
(-0.00019744 0.00614169 0)
(-0.000187711 0.00575669 0)
(-0.000178231 0.0053909 0)
(-0.000169016 0.00504381 0)
(-0.000160082 0.00471487 0)
(-0.000151439 0.00440352 0)
(-0.000143095 0.00410915 0)
(-0.000135056 0.00383118 0)
(-0.000127326 0.00356897 0)
(-0.000119907 0.0033219 0)
(-0.000112798 0.00308937 0)
(-0.000106 0.00287074 0)
(-9.95073e-05 0.0026654 0)
(-9.33173e-05 0.00247273 0)
(-8.74247e-05 0.00229215 0)
(-8.18232e-05 0.00212306 0)
(-7.65061e-05 0.00196488 0)
(-7.1466e-05 0.00181705 0)
(-6.66949e-05 0.00167903 0)
(-6.21842e-05 0.00155029 0)
(-5.79253e-05 0.00143031 0)
(-5.39091e-05 0.0013186 0)
(-5.01264e-05 0.00121469 0)
(-4.65679e-05 0.00111811 0)
(-4.32243e-05 0.00102843 0)
(-4.00862e-05 0.000945221 0)
(-3.71443e-05 0.000868091 0)
(-3.43895e-05 0.000796653 0)
(-3.18128e-05 0.000730541 0)
(-2.94052e-05 0.000669409 0)
(-2.71582e-05 0.000612928 0)
(-2.50633e-05 0.000560783 0)
(-2.31123e-05 0.000512681 0)
(-2.12973e-05 0.00046834 0)
(-1.96108e-05 0.000427497 0)
(-1.80452e-05 0.000389902 0)
(-1.65937e-05 0.00035532 0)
(-1.52493e-05 0.000323531 0)
(-1.40058e-05 0.000294326 0)
(-1.28568e-05 0.000267511 0)
(-1.17966e-05 0.000242902 0)
(-1.08197e-05 0.000220328 0)
(-9.92067e-06 0.000199626 0)
(-9.09471e-06 0.000180647 0)
(-8.33711e-06 0.00016325 0)
(-7.64351e-06 0.000147301 0)
(-7.0098e-06 0.000132678 0)
(-6.43218e-06 0.000119264 0)
(-5.90709e-06 0.00010695 0)
(-5.43124e-06 9.56366e-05 0)
(-5.00159e-06 8.52268e-05 0)
(-4.61535e-06 7.56315e-05 0)
(-4.26999e-06 6.67665e-05 0)
(-3.96318e-06 5.85526e-05 0)
(-3.69286e-06 5.09148e-05 0)
(-3.45715e-06 4.37821e-05 0)
(-3.25444e-06 3.7087e-05 0)
(-3.08329e-06 3.07651e-05 0)
(-2.94249e-06 2.47546e-05 0)
(-2.83105e-06 1.89959e-05 0)
(-2.74816e-06 1.34311e-05 0)
(-2.69323e-06 8.00393e-06 0)
(-2.66586e-06 2.65887e-06 0)
(-8.4518e-05 0.0276982 0)
(-0.000244684 0.0275855 0)
(-0.000387958 0.027372 0)
(-0.000515364 0.0270684 0)
(-0.000627673 0.026685 0)
(-0.000726211 0.0262316 0)
(-0.000811709 0.025717 0)
(-0.000884826 0.0251497 0)
(-0.000946773 0.0245375 0)
(-0.000998466 0.0238875 0)
(-0.0010406 0.0232064 0)
(-0.00107385 0.0225004 0)
(-0.00109897 0.021775 0)
(-0.0011167 0.0210354 0)
(-0.00112774 0.0202864 0)
(-0.00113273 0.0195321 0)
(-0.00113228 0.0187764 0)
(-0.00112694 0.0180228 0)
(-0.00111724 0.0172742 0)
(-0.00110367 0.0165334 0)
(-0.00108669 0.015803 0)
(-0.00106674 0.0150848 0)
(-0.00104422 0.014381 0)
(-0.00101949 0.0136929 0)
(-0.000992923 0.0130219 0)
(-0.000964818 0.0123693 0)
(-0.000935473 0.0117358 0)
(-0.000905157 0.0111223 0)
(-0.000874114 0.0105292 0)
(-0.000842566 0.00995704 0)
(-0.000810715 0.00940603 0)
(-0.000778742 0.00887633 0)
(-0.000746809 0.00836794 0)
(-0.000715061 0.00788081 0)
(-0.000683628 0.00741475 0)
(-0.000652621 0.00696951 0)
(-0.00062214 0.00654478 0)
(-0.000592271 0.00614018 0)
(-0.000563086 0.00575527 0)
(-0.000534648 0.00538957 0)
(-0.000507007 0.00504256 0)
(-0.000480207 0.00471371 0)
(-0.000454279 0.00440243 0)
(-0.000429248 0.00410814 0)
(-0.000405134 0.00383023 0)
(-0.000381946 0.00356808 0)
(-0.000359691 0.00332108 0)
(-0.000338368 0.00308861 0)
(-0.000317973 0.00287003 0)
(-0.000298497 0.00266474 0)
(-0.000279929 0.00247212 0)
(-0.000262252 0.00229158 0)
(-0.000245449 0.00212253 0)
(-0.0002295 0.00196439 0)
(-0.00021438 0.0018166 0)
(-0.000200068 0.00167862 0)
(-0.000186537 0.0015499 0)
(-0.000173762 0.00142996 0)
(-0.000161714 0.00131828 0)
(-0.000150367 0.00121439 0)
(-0.000139692 0.00111783 0)
(-0.000129662 0.00102817 0)
(-0.000120249 0.000944988 0)
(-0.000111424 0.000867877 0)
(-0.00010316 0.000796456 0)
(-9.54305e-05 0.000730361 0)
(-8.82084e-05 0.000669244 0)
(-8.14678e-05 0.000612776 0)
(-7.51836e-05 0.000560645 0)
(-6.93312e-05 0.000512554 0)
(-6.38868e-05 0.000468224 0)
(-5.88275e-05 0.000427391 0)
(-5.41313e-05 0.000389805 0)
(-4.9777e-05 0.000355232 0)
(-4.57443e-05 0.000323451 0)
(-4.20139e-05 0.000294254 0)
(-3.85673e-05 0.000267445 0)
(-3.5387e-05 0.000242842 0)
(-3.24563e-05 0.000220273 0)
(-2.97596e-05 0.000199577 0)
(-2.72819e-05 0.000180603 0)
(-2.50093e-05 0.00016321 0)
(-2.29286e-05 0.000147265 0)
(-2.10277e-05 0.000132645 0)
(-1.9295e-05 0.000119234 0)
(-1.77198e-05 0.000106924 0)
(-1.62924e-05 9.56131e-05 0)
(-1.50035e-05 8.52059e-05 0)
(-1.38449e-05 7.56129e-05 0)
(-1.28089e-05 6.67501e-05 0)
(-1.18886e-05 5.85382e-05 0)
(-1.10777e-05 5.09023e-05 0)
(-1.03706e-05 4.37713e-05 0)
(-9.76251e-06 3.70779e-05 0)
(-9.2491e-06 3.07576e-05 0)
(-8.82675e-06 2.47486e-05 0)
(-8.49245e-06 1.89912e-05 0)
(-8.24381e-06 1.34278e-05 0)
(-8.07904e-06 8.00197e-06 0)
(-7.99693e-06 2.65822e-06 0)
(-0.000140861 0.0276846 0)
(-0.000407815 0.027572 0)
(-0.00064649 0.0273585 0)
(-0.000858786 0.027055 0)
(-0.00104604 0.0266718 0)
(-0.00121013 0.0262186 0)
(-0.00135253 0.0257043 0)
(-0.00147446 0.0251373 0)
(-0.00157775 0.0245254 0)
(-0.00166388 0.0238757 0)
(-0.00173404 0.023195 0)
(-0.00178944 0.0224893 0)
(-0.0018313 0.0217642 0)
(-0.00186085 0.0210251 0)
(-0.00187925 0.0202764 0)
(-0.00188758 0.0195225 0)
(-0.00188682 0.0187672 0)
(-0.00187793 0.0180139 0)
(-0.00186176 0.0172657 0)
(-0.00183915 0.0165253 0)
(-0.00181085 0.0157952 0)
(-0.00177761 0.0150774 0)
(-0.00174007 0.0143739 0)
(-0.00169888 0.0136861 0)
(-0.0016546 0.0130155 0)
(-0.00160777 0.0123632 0)
(-0.00155887 0.01173 0)
(-0.00150835 0.0111168 0)
(-0.00145662 0.010524 0)
(-0.00140405 0.00995212 0)
(-0.00135097 0.00940139 0)
(-0.00129769 0.00887195 0)
(-0.00124448 0.00836381 0)
(-0.00119157 0.00787692 0)
(-0.00113919 0.00741109 0)
(-0.00108752 0.00696607 0)
(-0.00103673 0.00654155 0)
(-0.000986956 0.00613715 0)
(-0.000938323 0.00575242 0)
(-0.000890933 0.00538691 0)
(-0.000844873 0.00504007 0)
(-0.000800213 0.00471138 0)
(-0.000757006 0.00440026 0)
(-0.000715296 0.00410611 0)
(-0.000675112 0.00382834 0)
(-0.000636472 0.00356632 0)
(-0.000599386 0.00331944 0)
(-0.000563853 0.00308708 0)
(-0.000529867 0.00286861 0)
(-0.000497414 0.00266342 0)
(-0.000466472 0.0024709 0)
(-0.000437015 0.00229045 0)
(-0.000409015 0.00212148 0)
(-0.000382436 0.00196342 0)
(-0.000357242 0.00181571 0)
(-0.000333392 0.00167779 0)
(-0.000310844 0.00154914 0)
(-0.000289555 0.00142925 0)
(-0.000269479 0.00131762 0)
(-0.00025057 0.00121379 0)
(-0.000232782 0.00111728 0)
(-0.000216068 0.00102766 0)
(-0.000200381 0.000944521 0)
(-0.000185676 0.000867448 0)
(-0.000171905 0.000796063 0)
(-0.000159025 0.000730001 0)
(-0.00014699 0.000668914 0)
(-0.000135757 0.000612474 0)
(-0.000125285 0.000560368 0)
(-0.000115533 0.000512301 0)
(-0.00010646 0.000467993 0)
(-9.80297e-05 0.00042718 0)
(-9.02039e-05 0.000389613 0)
(-8.29479e-05 0.000355057 0)
(-7.62279e-05 0.000323292 0)
(-7.00116e-05 0.000294109 0)
(-6.42682e-05 0.000267313 0)
(-5.89686e-05 0.000242723 0)
(-5.4085e-05 0.000220165 0)
(-4.95911e-05 0.000199479 0)
(-4.54623e-05 0.000180514 0)
(-4.16753e-05 0.000163129 0)
(-3.82081e-05 0.000147192 0)
(-3.50404e-05 0.00013258 0)
(-3.2153e-05 0.000119175 0)
(-2.95282e-05 0.000106871 0)
(-2.71495e-05 9.5566e-05 0)
(-2.50018e-05 8.51639e-05 0)
(-2.30711e-05 7.55756e-05 0)
(-2.13447e-05 6.67172e-05 0)
(-1.9811e-05 5.85094e-05 0)
(-1.84597e-05 5.08772e-05 0)
(-1.72815e-05 4.37498e-05 0)
(-1.62682e-05 3.70597e-05 0)
(-1.54126e-05 3.07424e-05 0)
(-1.47088e-05 2.47364e-05 0)
(-1.41518e-05 1.89819e-05 0)
(-1.37374e-05 1.34212e-05 0)
(-1.34629e-05 7.99804e-06 0)
(-1.3326e-05 2.65691e-06 0)
(-0.000197096 0.027664 0)
(-0.000570805 0.0275516 0)
(-0.00090493 0.0273382 0)
(-0.001202 0.027035 0)
(-0.0014641 0.0266521 0)
(-0.00169375 0.0261992 0)
(-0.00189302 0.0256853 0)
(-0.00206374 0.0251187 0)
(-0.00220835 0.0245072 0)
(-0.00232888 0.023858 0)
(-0.00242706 0.0231778 0)
(-0.00250458 0.0224726 0)
(-0.00256317 0.0217481 0)
(-0.00260454 0.0210095 0)
(-0.0026303 0.0202614 0)
(-0.00264196 0.019508 0)
(-0.00264091 0.0187533 0)
(-0.00262845 0.0180005 0)
(-0.00260582 0.0172529 0)
(-0.00257417 0.016513 0)
(-0.00253457 0.0157835 0)
(-0.00248803 0.0150662 0)
(-0.0024355 0.0143632 0)
(-0.00237784 0.013676 0)
(-0.00231587 0.0130059 0)
(-0.00225032 0.012354 0)
(-0.00218187 0.0117213 0)
(-0.00211117 0.0111085 0)
(-0.00203876 0.0105162 0)
(-0.00196518 0.00994475 0)
(-0.00189089 0.00939443 0)
(-0.00181632 0.00886537 0)
(-0.00174184 0.00835762 0)
(-0.00166779 0.00787108 0)
(-0.00159447 0.0074056 0)
(-0.00152216 0.00696091 0)
(-0.00145106 0.00653671 0)
(-0.0013814 0.0061326 0)
(-0.00131333 0.00574816 0)
(-0.001247 0.00538292 0)
(-0.00118253 0.00503634 0)
(-0.00112002 0.00470789 0)
(-0.00105955 0.004397 0)
(-0.00100117 0.00410307 0)
(-0.000944923 0.0038255 0)
(-0.000890841 0.00356368 0)
(-0.000838933 0.00331699 0)
(-0.0007892 0.0030848 0)
(-0.000741631 0.00286649 0)
(-0.000696207 0.00266145 0)
(-0.000652899 0.00246907 0)
(-0.000611671 0.00228876 0)
(-0.00057248 0.00211991 0)
(-0.000535279 0.00196197 0)
(-0.000500015 0.00181436 0)
(-0.000466634 0.00167655 0)
(-0.000435075 0.00154799 0)
(-0.000405277 0.00142819 0)
(-0.000377177 0.00131665 0)
(-0.000350712 0.00121289 0)
(-0.000325815 0.00111645 0)
(-0.000302421 0.0010269 0)
(-0.000280465 0.000943822 0)
(-0.000259882 0.000866806 0)
(-0.000240608 0.000795474 0)
(-0.00022258 0.00072946 0)
(-0.000205735 0.000668419 0)
(-0.000190013 0.000612021 0)
(-0.000175356 0.000559954 0)
(-0.000161706 0.000511922 0)
(-0.000149008 0.000467647 0)
(-0.000137208 0.000426864 0)
(-0.000126254 0.000389325 0)
(-0.000116098 0.000354795 0)
(-0.000106693 0.000323052 0)
(-9.79921e-05 0.000293891 0)
(-8.99533e-05 0.000267116 0)
(-8.25357e-05 0.000242543 0)
(-7.57003e-05 0.000220002 0)
(-6.94104e-05 0.000199331 0)
(-6.36316e-05 0.00018038 0)
(-5.8331e-05 0.000163008 0)
(-5.34782e-05 0.000147083 0)
(-4.90444e-05 0.000132482 0)
(-4.50031e-05 0.000119087 0)
(-4.13293e-05 0.000106792 0)
(-3.79999e-05 9.54953e-05 0)
(-3.49939e-05 8.51009e-05 0)
(-3.22916e-05 7.55198e-05 0)
(-2.98752e-05 6.66679e-05 0)
(-2.77286e-05 5.84661e-05 0)
(-2.58373e-05 5.08396e-05 0)
(-2.41881e-05 4.37174e-05 0)
(-2.27698e-05 3.70323e-05 0)
(-2.15724e-05 3.07197e-05 0)
(-2.05873e-05 2.47181e-05 0)
(-1.98076e-05 1.89679e-05 0)
(-1.92277e-05 1.34113e-05 0)
(-1.88434e-05 7.99214e-06 0)
(-1.86519e-05 2.65495e-06 0)
(-0.000253274 0.0276367 0)
(-0.000733615 0.0275243 0)
(-0.00116312 0.0273112 0)
(-0.00154492 0.0270083 0)
(-0.0018818 0.0266258 0)
(-0.00217694 0.0261733 0)
(-0.00243306 0.0256599 0)
(-0.00265253 0.0250939 0)
(-0.00283841 0.024483 0)
(-0.00299331 0.0238344 0)
(-0.00311947 0.0231549 0)
(-0.00321909 0.0224504 0)
(-0.0032944 0.0217266 0)
(-0.00334758 0.0209887 0)
(-0.0033807 0.0202414 0)
(-0.00339569 0.0194888 0)
(-0.00339434 0.0187348 0)
(-0.00337833 0.0179827 0)
(-0.00334925 0.0172358 0)
(-0.00330856 0.0164967 0)
(-0.00325766 0.0157679 0)
(-0.00319785 0.0150513 0)
(-0.00313033 0.014349 0)
(-0.00305622 0.0136625 0)
(-0.00297656 0.012993 0)
(-0.00289231 0.0123418 0)
(-0.00280434 0.0117097 0)
(-0.00271346 0.0110976 0)
(-0.0026204 0.0105058 0)
(-0.00252583 0.00993492 0)
(-0.00243034 0.00938514 0)
(-0.0023345 0.00885662 0)
(-0.00223877 0.00834936 0)
(-0.0021436 0.00786331 0)
(-0.00204936 0.00739828 0)
(-0.00195641 0.00695403 0)
(-0.00186504 0.00653025 0)
(-0.0017755 0.00612654 0)
(-0.00168801 0.00574249 0)
(-0.00160276 0.0053776 0)
(-0.0015199 0.00503137 0)
(-0.00143955 0.00470324 0)
(-0.00136183 0.00439266 0)
(-0.00128679 0.00409902 0)
(-0.0012145 0.00382173 0)
(-0.00114499 0.00356016 0)
(-0.00107827 0.00331371 0)
(-0.00101435 0.00308175 0)
(-0.000953212 0.00286366 0)
(-0.000894829 0.00265882 0)
(-0.000839165 0.00246663 0)
(-0.000786175 0.0022865 0)
(-0.000735803 0.00211782 0)
(-0.000687989 0.00196003 0)
(-0.000642665 0.00181257 0)
(-0.00059976 0.00167489 0)
(-0.000559198 0.00154646 0)
(-0.000520899 0.00142678 0)
(-0.000484783 0.00131535 0)
(-0.000450767 0.00121169 0)
(-0.000418767 0.00111535 0)
(-0.000388699 0.00102589 0)
(-0.000360479 0.00094289 0)
(-0.000334024 0.00086595 0)
(-0.000309251 0.000794688 0)
(-0.00028608 0.00072874 0)
(-0.000264429 0.000667759 0)
(-0.000244223 0.000611417 0)
(-0.000225384 0.000559401 0)
(-0.00020784 0.000511417 0)
(-0.000191518 0.000467185 0)
(-0.000176352 0.000426443 0)
(-0.000162274 0.000388941 0)
(-0.00014922 0.000354444 0)
(-0.000137131 0.000322734 0)
(-0.000125948 0.000293601 0)
(-0.000115616 0.000266852 0)
(-0.000106082 0.000242304 0)
(-9.72969e-05 0.000219785 0)
(-8.92127e-05 0.000199135 0)
(-8.17851e-05 0.000180202 0)
(-7.49723e-05 0.000162848 0)
(-6.8735e-05 0.000146938 0)
(-6.30364e-05 0.000132351 0)
(-5.78421e-05 0.00011897 0)
(-5.31201e-05 0.000106687 0)
(-4.8841e-05 9.54012e-05 0)
(-4.49773e-05 8.5017e-05 0)
(-4.15041e-05 7.54453e-05 0)
(-3.83984e-05 6.66022e-05 0)
(-3.56394e-05 5.84085e-05 0)
(-3.32084e-05 5.07895e-05 0)
(-3.10888e-05 4.36744e-05 0)
(-2.92659e-05 3.69958e-05 0)
(-2.77268e-05 3.06895e-05 0)
(-2.64607e-05 2.46938e-05 0)
(-2.54585e-05 1.89492e-05 0)
(-2.47132e-05 1.33981e-05 0)
(-2.42192e-05 7.98426e-06 0)
(-2.39731e-05 2.65234e-06 0)
(-0.000309409 0.0276025 0)
(-0.000896247 0.0274903 0)
(-0.001421 0.0272775 0)
(-0.00188744 0.0269749 0)
(-0.00229903 0.0265929 0)
(-0.00265961 0.026141 0)
(-0.0029725 0.0256282 0)
(-0.00324066 0.0250628 0)
(-0.00346777 0.0244527 0)
(-0.00365699 0.023805 0)
(-0.00381111 0.0231263 0)
(-0.00393281 0.0224227 0)
(-0.00402482 0.0216998 0)
(-0.0040898 0.0209628 0)
(-0.00413027 0.0202164 0)
(-0.00414858 0.0194647 0)
(-0.00414694 0.0187116 0)
(-0.00412738 0.0179605 0)
(-0.00409184 0.0172145 0)
(-0.00404214 0.0164763 0)
(-0.00397995 0.0157484 0)
(-0.00390688 0.0150328 0)
(-0.00382438 0.0143313 0)
(-0.00373385 0.0136456 0)
(-0.00363653 0.012977 0)
(-0.00353359 0.0123266 0)
(-0.00342612 0.0116953 0)
(-0.00331509 0.0110838 0)
(-0.0032014 0.0104928 0)
(-0.00308585 0.00992265 0)
(-0.0029692 0.00937355 0)
(-0.0028521 0.00884567 0)
(-0.00273515 0.00833905 0)
(-0.00261887 0.00785359 0)
(-0.00250375 0.00738914 0)
(-0.00239019 0.00694544 0)
(-0.00227855 0.00652218 0)
(-0.00216916 0.00611897 0)
(-0.00206227 0.00573539 0)
(-0.00195812 0.00537095 0)
(-0.00185689 0.00502515 0)
(-0.00175873 0.00469743 0)
(-0.00166377 0.00438723 0)
(-0.0015721 0.00409395 0)
(-0.00148378 0.003817 0)
(-0.00139886 0.00355576 0)
(-0.00131735 0.00330962 0)
(-0.00123925 0.00307794 0)
(-0.00116456 0.00286012 0)
(-0.00109323 0.00265554 0)
(-0.00102522 0.00246359 0)
(-0.000960485 0.00228367 0)
(-0.000898945 0.0021152 0)
(-0.00084053 0.00195761 0)
(-0.000785157 0.00181033 0)
(-0.000732739 0.00167282 0)
(-0.000683183 0.00154455 0)
(-0.000636392 0.00142502 0)
(-0.000592269 0.00131372 0)
(-0.00055071 0.00121019 0)
(-0.000511615 0.00111397 0)
(-0.000474881 0.00102462 0)
(-0.000440404 0.000941726 0)
(-0.000408084 0.000864881 0)
(-0.000377818 0.000793707 0)
(-0.000349509 0.00072784 0)
(-0.000323058 0.000666934 0)
(-0.000298372 0.000610662 0)
(-0.000275356 0.00055871 0)
(-0.000253922 0.000510785 0)
(-0.000233982 0.000466609 0)
(-0.000215453 0.000425916 0)
(-0.000198253 0.00038846 0)
(-0.000182305 0.000354007 0)
(-0.000167536 0.000322335 0)
(-0.000153874 0.000293239 0)
(-0.000141251 0.000266523 0)
(-0.000129603 0.000242005 0)
(-0.00011887 0.000219514 0)
(-0.000108993 0.000198889 0)
(-9.99185e-05 0.00017998 0)
(-9.15952e-05 0.000162647 0)
(-8.3975e-05 0.000146757 0)
(-7.70128e-05 0.000132188 0)
(-7.06668e-05 0.000118823 0)
(-6.48979e-05 0.000106555 0)
(-5.967e-05 9.52835e-05 0)
(-5.49497e-05 8.49121e-05 0)
(-5.07064e-05 7.53523e-05 0)
(-4.6912e-05 6.652e-05 0)
(-4.35413e-05 5.83365e-05 0)
(-4.05714e-05 5.07268e-05 0)
(-3.79819e-05 4.36205e-05 0)
(-3.57547e-05 3.69502e-05 0)
(-3.38744e-05 3.06516e-05 0)
(-3.23276e-05 2.46633e-05 0)
(-3.11032e-05 1.89258e-05 0)
(-3.01926e-05 1.33816e-05 0)
(-2.95892e-05 7.97442e-06 0)
(-2.92885e-05 2.64907e-06 0)
(-0.000365478 0.0275616 0)
(-0.00105867 0.0274495 0)
(-0.00167853 0.027237 0)
(-0.0022295 0.0269349 0)
(-0.0027157 0.0265534 0)
(-0.00314163 0.0261022 0)
(-0.00351121 0.0255902 0)
(-0.003828 0.0250257 0)
(-0.00409627 0.0244164 0)
(-0.00431977 0.0237697 0)
(-0.0045018 0.0230919 0)
(-0.00464555 0.0223894 0)
(-0.00475424 0.0216676 0)
(-0.004831 0.0209317 0)
(-0.00487882 0.0201864 0)
(-0.00490046 0.0194358 0)
(-0.00489851 0.0186839 0)
(-0.00487541 0.0179339 0)
(-0.00483343 0.017189 0)
(-0.00477471 0.0164519 0)
(-0.00470126 0.015725 0)
(-0.00461494 0.0150104 0)
(-0.0045175 0.01431 0)
(-0.00441055 0.0136253 0)
(-0.00429559 0.0129577 0)
(-0.004174 0.0123083 0)
(-0.00404705 0.0116779 0)
(-0.0039159 0.0110674 0)
(-0.0037816 0.0104773 0)
(-0.00364512 0.00990792 0)
(-0.00350732 0.00935964 0)
(-0.003369 0.00883255 0)
(-0.00323085 0.00832667 0)
(-0.0030935 0.00784194 0)
(-0.00295751 0.00737817 0)
(-0.00282337 0.00693513 0)
(-0.00269151 0.0065125 0)
(-0.00256229 0.00610989 0)
(-0.00243603 0.00572688 0)
(-0.002313 0.00536298 0)
(-0.00219342 0.00501769 0)
(-0.00207747 0.00469046 0)
(-0.0019653 0.00438072 0)
(-0.00185702 0.00408788 0)
(-0.00175269 0.00381134 0)
(-0.00165238 0.00355049 0)
(-0.0015561 0.00330471 0)
(-0.00146385 0.00307337 0)
(-0.00137562 0.00285588 0)
(-0.00129136 0.0026516 0)
(-0.00121103 0.00245993 0)
(-0.00113456 0.00228028 0)
(-0.00106186 0.00211207 0)
(-0.000992863 0.00195471 0)
(-0.000927454 0.00180764 0)
(-0.000865536 0.00167034 0)
(-0.000806999 0.00154226 0)
(-0.000751729 0.00142291 0)
(-0.000699608 0.00131178 0)
(-0.000650518 0.0012084 0)
(-0.000604338 0.00111232 0)
(-0.000560946 0.0010231 0)
(-0.000520221 0.000940329 0)
(-0.000482043 0.000863598 0)
(-0.000446292 0.00079253 0)
(-0.000412852 0.000726761 0)
(-0.000381608 0.000665945 0)
(-0.000352447 0.000609756 0)
(-0.00032526 0.000557882 0)
(-0.000299941 0.000510028 0)
(-0.000276388 0.000465917 0)
(-0.0002545 0.000425285 0)
(-0.000234183 0.000387884 0)
(-0.000215346 0.000353482 0)
(-0.000197899 0.000321857 0)
(-0.000181761 0.000292804 0)
(-0.00016685 0.000266128 0)
(-0.000153092 0.000241646 0)
(-0.000140413 0.000219188 0)
(-0.000128746 0.000198594 0)
(-0.000118027 0.000179713 0)
(-0.000108195 0.000162406 0)
(-9.91942e-05 0.000146539 0)
(-9.09703e-05 0.000131992 0)
(-8.34741e-05 0.000118647 0)
(-7.66597e-05 0.000106398 0)
(-7.04843e-05 9.51423e-05 0)
(-6.49085e-05 8.47863e-05 0)
(-5.98962e-05 7.52406e-05 0)
(-5.54142e-05 6.64215e-05 0)
(-5.14326e-05 5.825e-05 0)
(-4.79244e-05 5.06517e-05 0)
(-4.48655e-05 4.35559e-05 0)
(-4.22347e-05 3.68954e-05 0)
(-4.00136e-05 3.06062e-05 0)
(-3.81865e-05 2.46268e-05 0)
(-3.67403e-05 1.88978e-05 0)
(-3.56646e-05 1.33618e-05 0)
(-3.49518e-05 7.96262e-06 0)
(-3.45966e-05 2.64515e-06 0)
(-0.00042146 0.0275138 0)
(-0.00122083 0.027402 0)
(-0.00193564 0.0271898 0)
(-0.00257102 0.0268882 0)
(-0.00313171 0.0265074 0)
(-0.00362287 0.026057 0)
(-0.00404906 0.0255458 0)
(-0.00441439 0.0249823 0)
(-0.00472376 0.0243741 0)
(-0.00498149 0.0237285 0)
(-0.00519138 0.0230519 0)
(-0.00535714 0.0223506 0)
(-0.00548248 0.0216301 0)
(-0.00557102 0.0208955 0)
(-0.00562616 0.0201514 0)
(-0.00565112 0.0194022 0)
(-0.00564888 0.0186515 0)
(-0.00562224 0.0179028 0)
(-0.00557383 0.0171592 0)
(-0.00550612 0.0164234 0)
(-0.00542141 0.0156978 0)
(-0.00532186 0.0149844 0)
(-0.00520949 0.0142852 0)
(-0.00508616 0.0136017 0)
(-0.0049536 0.0129353 0)
(-0.00481338 0.0122869 0)
(-0.00466699 0.0116577 0)
(-0.00451574 0.0110482 0)
(-0.00436087 0.0104591 0)
(-0.00420348 0.00989075 0)
(-0.00404458 0.00934342 0)
(-0.00388507 0.00881724 0)
(-0.00372575 0.00831224 0)
(-0.00356737 0.00782835 0)
(-0.00341055 0.00736539 0)
(-0.00325586 0.00692312 0)
(-0.0031038 0.00650122 0)
(-0.00295478 0.00609931 0)
(-0.00280918 0.00571696 0)
(-0.00266731 0.00535369 0)
(-0.00252941 0.005009 0)
(-0.0023957 0.00468233 0)
(-0.00226635 0.00437313 0)
(-0.00214148 0.0040808 0)
(-0.00202117 0.00380474 0)
(-0.00190549 0.00354434 0)
(-0.00179446 0.00329898 0)
(-0.00168808 0.00306805 0)
(-0.00158633 0.00285093 0)
(-0.00148917 0.002647 0)
(-0.00139654 0.00245567 0)
(-0.00130835 0.00227633 0)
(-0.00122452 0.00210841 0)
(-0.00114495 0.00195132 0)
(-0.00106952 0.00180451 0)
(-0.00099812 0.00166745 0)
(-0.000930616 0.00153959 0)
(-0.00086688 0.00142044 0)
(-0.000806775 0.0013095 0)
(-0.000750166 0.00120631 0)
(-0.000696911 0.00111039 0)
(-0.000646872 0.00102133 0)
(-0.000599909 0.0009387 0)
(-0.000555883 0.000862102 0)
(-0.000514656 0.000791157 0)
(-0.000476093 0.000725502 0)
(-0.000440063 0.000664792 0)
(-0.000406435 0.0006087 0)
(-0.000375084 0.000556915 0)
(-0.000345887 0.000509145 0)
(-0.000318725 0.00046511 0)
(-0.000293485 0.000424548 0)
(-0.000270056 0.000387213 0)
(-0.000248333 0.00035287 0)
(-0.000228214 0.0003213 0)
(-0.000209603 0.000292297 0)
(-0.000192409 0.000265667 0)
(-0.000176542 0.000241228 0)
(-0.000161922 0.000218809 0)
(-0.000148468 0.00019825 0)
(-0.000136107 0.000179402 0)
(-0.000124769 0.000162124 0)
(-0.000114389 0.000146286 0)
(-0.000104905 0.000131763 0)
(-9.62609e-05 0.000118442 0)
(-8.84026e-05 0.000106213 0)
(-8.12813e-05 9.49776e-05 0)
(-7.48513e-05 8.46396e-05 0)
(-6.90712e-05 7.51104e-05 0)
(-6.39026e-05 6.63066e-05 0)
(-5.93111e-05 5.81492e-05 0)
(-5.52655e-05 5.05641e-05 0)
(-5.17381e-05 4.34805e-05 0)
(-4.87044e-05 3.68316e-05 0)
(-4.6143e-05 3.05533e-05 0)
(-4.4036e-05 2.45842e-05 0)
(-4.23682e-05 1.88651e-05 0)
(-4.11278e-05 1.33387e-05 0)
(-4.03058e-05 7.94884e-06 0)
(-3.98962e-05 2.64057e-06 0)
(-0.00047734 0.0274593 0)
(-0.0013827 0.0273477 0)
(-0.00219229 0.0271359 0)
(-0.0029119 0.0268349 0)
(-0.00354694 0.0264549 0)
(-0.00410322 0.0260053 0)
(-0.00458591 0.0254952 0)
(-0.00499969 0.0249328 0)
(-0.00535008 0.0243258 0)
(-0.00564197 0.0236814 0)
(-0.00587967 0.0230062 0)
(-0.00606741 0.0223063 0)
(-0.00620938 0.0215872 0)
(-0.00630966 0.020854 0)
(-0.00637212 0.0201115 0)
(-0.00640039 0.0193637 0)
(-0.00639785 0.0186145 0)
(-0.00636768 0.0178673 0)
(-0.00631285 0.0171252 0)
(-0.00623616 0.0163908 0)
(-0.00614022 0.0156666 0)
(-0.00602748 0.0149547 0)
(-0.00590021 0.0142569 0)
(-0.00576052 0.0135748 0)
(-0.00561038 0.0129096 0)
(-0.00545158 0.0122626 0)
(-0.00528577 0.0116346 0)
(-0.00511447 0.0110263 0)
(-0.00493906 0.0104384 0)
(-0.00476081 0.00987114 0)
(-0.00458084 0.00932489 0)
(-0.00440017 0.00879976 0)
(-0.00421974 0.00829576 0)
(-0.00404036 0.00781283 0)
(-0.00386274 0.00735079 0)
(-0.00368755 0.00690939 0)
(-0.00351532 0.00648833 0)
(-0.00334655 0.00608721 0)
(-0.00318164 0.00570562 0)
(-0.00302096 0.00534308 0)
(-0.00286478 0.00499907 0)
(-0.00271334 0.00467305 0)
(-0.00256684 0.00436446 0)
(-0.00242541 0.00407271 0)
(-0.00228915 0.00379719 0)
(-0.00215813 0.00353731 0)
(-0.00203238 0.00329244 0)
(-0.0019119 0.00306197 0)
(-0.00179666 0.00284528 0)
(-0.00168662 0.00264176 0)
(-0.0015817 0.0024508 0)
(-0.00148182 0.00227182 0)
(-0.00138688 0.00210423 0)
(-0.00129676 0.00194745 0)
(-0.00121133 0.00180094 0)
(-0.00113046 0.00166414 0)
(-0.001054 0.00153654 0)
(-0.000981817 0.00141763 0)
(-0.000913743 0.00130691 0)
(-0.000849628 0.00120391 0)
(-0.000789313 0.00110819 0)
(-0.000732639 0.00101931 0)
(-0.000679449 0.00093684 0)
(-0.000629585 0.000860394 0)
(-0.000582892 0.000789589 0)
(-0.000539217 0.000724064 0)
(-0.00049841 0.000663475 0)
(-0.000460323 0.000607494 0)
(-0.000424815 0.000555812 0)
(-0.000391747 0.000508136 0)
(-0.000360984 0.000464188 0)
(-0.000332397 0.000423707 0)
(-0.000305862 0.000386446 0)
(-0.000281258 0.000352171 0)
(-0.000258472 0.000320663 0)
(-0.000237394 0.000291718 0)
(-0.00021792 0.000265141 0)
(-0.00019995 0.00024075 0)
(-0.00018339 0.000218375 0)
(-0.000168153 0.000197857 0)
(-0.000154153 0.000179047 0)
(-0.000141312 0.000161803 0)
(-0.000129555 0.000145996 0)
(-0.000118814 0.000131502 0)
(-0.000109024 0.000118207 0)
(-0.000100124 0.000106003 0)
(-9.20582e-05 9.47895e-05 0)
(-8.47757e-05 8.4472e-05 0)
(-7.82292e-05 7.49617e-05 0)
(-7.23753e-05 6.61753e-05 0)
(-6.71751e-05 5.80341e-05 0)
(-6.25931e-05 5.0464e-05 0)
(-5.8598e-05 4.33945e-05 0)
(-5.5162e-05 3.67587e-05 0)
(-5.2261e-05 3.04928e-05 0)
(-4.98746e-05 2.45355e-05 0)
(-4.79858e-05 1.88278e-05 0)
(-4.65809e-05 1.33123e-05 0)
(-4.56499e-05 7.93311e-06 0)
(-4.5186e-05 2.63535e-06 0)
(-0.000533103 0.027398 0)
(-0.00154422 0.0272866 0)
(-0.00244839 0.0270753 0)
(-0.00325207 0.026775 0)
(-0.00396129 0.0263958 0)
(-0.00458256 0.0259472 0)
(-0.00512162 0.0254382 0)
(-0.00558375 0.0248771 0)
(-0.00597508 0.0242715 0)
(-0.00630105 0.0236286 0)
(-0.00656652 0.0229549 0)
(-0.00677619 0.0222565 0)
(-0.00693474 0.021539 0)
(-0.00704674 0.0208075 0)
(-0.00711651 0.0200666 0)
(-0.00714808 0.0193205 0)
(-0.00714525 0.0185729 0)
(-0.00711155 0.0178274 0)
(-0.00705032 0.0170869 0)
(-0.00696466 0.0163542 0)
(-0.00685752 0.0156317 0)
(-0.0067316 0.0149213 0)
(-0.00658946 0.0142251 0)
(-0.00643346 0.0135444 0)
(-0.00626578 0.0128808 0)
(-0.00608842 0.0122352 0)
(-0.00590325 0.0116086 0)
(-0.00571194 0.0110017 0)
(-0.00551604 0.0104151 0)
(-0.00531696 0.0098491 0)
(-0.00511596 0.00930407 0)
(-0.0049142 0.00878011 0)
(-0.00471269 0.00827724 0)
(-0.00451235 0.00779538 0)
(-0.00431399 0.00733437 0)
(-0.00411832 0.00689396 0)
(-0.00392597 0.00647384 0)
(-0.00373749 0.00607362 0)
(-0.00355332 0.00569288 0)
(-0.00337386 0.00533114 0)
(-0.00319944 0.0049879 0)
(-0.00303031 0.00466261 0)
(-0.00286669 0.00435471 0)
(-0.00270874 0.00406361 0)
(-0.00255657 0.00378871 0)
(-0.00241024 0.00352941 0)
(-0.0022698 0.00328509 0)
(-0.00213525 0.00305513 0)
(-0.00200655 0.00283892 0)
(-0.00188365 0.00263586 0)
(-0.00176647 0.00244533 0)
(-0.00165493 0.00226675 0)
(-0.00154889 0.00209953 0)
(-0.00144824 0.0019431 0)
(-0.00135283 0.00179692 0)
(-0.00126252 0.00166042 0)
(-0.00117713 0.00153311 0)
(-0.00109651 0.00141446 0)
(-0.00102049 0.00130399 0)
(-0.00094888 0.00120123 0)
(-0.000881519 0.00110572 0)
(-0.000818225 0.00101703 0)
(-0.000758822 0.000934748 0)
(-0.000703133 0.000858473 0)
(-0.000650985 0.000787827 0)
(-0.000602208 0.000722448 0)
(-0.000556634 0.000661994 0)
(-0.000514098 0.000606138 0)
(-0.000474442 0.000554571 0)
(-0.00043751 0.000507002 0)
(-0.000403154 0.000463152 0)
(-0.000371227 0.000422761 0)
(-0.000341592 0.000385583 0)
(-0.000314115 0.000351385 0)
(-0.000288667 0.000319948 0)
(-0.000265126 0.000291067 0)
(-0.000243377 0.000264549 0)
(-0.000223308 0.000240213 0)
(-0.000204814 0.000217888 0)
(-0.000187796 0.000197416 0)
(-0.000172161 0.000178647 0)
(-0.00015782 0.000161442 0)
(-0.00014469 0.00014567 0)
(-0.000132694 0.000131209 0)
(-0.00012176 0.000117943 0)
(-0.00011182 0.000105767 0)
(-0.000102812 9.45781e-05 0)
(-9.46792e-05 8.42836e-05 0)
(-8.73679e-05 7.47945e-05 0)
(-8.08302e-05 6.60277e-05 0)
(-7.50224e-05 5.79047e-05 0)
(-6.99052e-05 5.03514e-05 0)
(-6.54434e-05 4.32977e-05 0)
(-6.1606e-05 3.66767e-05 0)
(-5.83662e-05 3.04248e-05 0)
(-5.5701e-05 2.44808e-05 0)
(-5.35915e-05 1.87858e-05 0)
(-5.20225e-05 1.32826e-05 0)
(-5.09827e-05 7.91542e-06 0)
(-5.04647e-05 2.62947e-06 0)
(-0.000588734 0.0273299 0)
(-0.00170537 0.0272188 0)
(-0.00270389 0.027008 0)
(-0.00359143 0.0267084 0)
(-0.00437467 0.0263302 0)
(-0.00506076 0.0258828 0)
(-0.00565607 0.025375 0)
(-0.00616643 0.0248153 0)
(-0.0065986 0.0242112 0)
(-0.00695858 0.0235698 0)
(-0.00725174 0.0228978 0)
(-0.00748329 0.0222012 0)
(-0.00765839 0.0214855 0)
(-0.00778209 0.0207558 0)
(-0.00785914 0.0200167 0)
(-0.00789401 0.0192724 0)
(-0.00789089 0.0185268 0)
(-0.00785367 0.0177831 0)
(-0.00778605 0.0170445 0)
(-0.00769145 0.0163136 0)
(-0.00757312 0.0155928 0)
(-0.00743407 0.0148843 0)
(-0.0072771 0.0141897 0)
(-0.00710481 0.0135108 0)
(-0.00691963 0.0128488 0)
(-0.00672377 0.0122048 0)
(-0.00651927 0.0115797 0)
(-0.00630799 0.0109744 0)
(-0.00609165 0.0103892 0)
(-0.0058718 0.00982462 0)
(-0.00564983 0.00928095 0)
(-0.00542701 0.00875829 0)
(-0.00520447 0.00825667 0)
(-0.00498322 0.00777601 0)
(-0.00476416 0.00731614 0)
(-0.00454808 0.00687683 0)
(-0.00433566 0.00645775 0)
(-0.0041275 0.00605853 0)
(-0.00392412 0.00567873 0)
(-0.00372593 0.0053179 0)
(-0.00353331 0.00497551 0)
(-0.00334653 0.00465103 0)
(-0.00316584 0.00434389 0)
(-0.00299141 0.00405351 0)
(-0.00282335 0.0037793 0)
(-0.00266176 0.00352064 0)
(-0.00250666 0.00327693 0)
(-0.00235807 0.00304754 0)
(-0.00221593 0.00283187 0)
(-0.00208021 0.00262931 0)
(-0.00195081 0.00243925 0)
(-0.00182762 0.00226112 0)
(-0.00171052 0.00209431 0)
(-0.00159937 0.00193828 0)
(-0.00149401 0.00179245 0)
(-0.00139426 0.0016563 0)
(-0.00129997 0.0015293 0)
(-0.00121094 0.00141095 0)
(-0.00112698 0.00130075 0)
(-0.0010479 0.00119824 0)
(-0.000973508 0.00110297 0)
(-0.00090361 0.0010145 0)