/*--------------------------------*- C++ -*----------------------------------*\
| =========                 |                                                 |
| \\      /  F ield         | OpenFOAM: The Open Source CFD Toolbox           |
|  \\    /   O peration     | Version:  2406                                  |
|   \\  /    A nd           | Website:  www.openfoam.com                      |
|    \\/     M anipulation  |                                                 |
\*---------------------------------------------------------------------------*/
FoamFile
{
    version     2.0;
    format      ascii;
    arch        "LSB;label=32;scalar=64";
    class       volVectorField;
    location    "110";
    object      flux;
}
// * * * * * * * * * * * * * * * * * * * * * * * * * * * * * * * * * * * * * //

dimensions      [0 1 -1 1 0 0 0];

internalField   nonuniform List<vector> 
20000
(
(0.000488586 0.0374387 0)
(0.000401576 0.0383259 0)
(0.000320295 0.0390449 0)
(0.000244519 0.039607 0)
(0.000174088 0.040023 0)
(0.00010872 0.0403032 0)
(4.80789e-05 0.0404577 0)
(-7.74894e-06 0.0404957 0)
(-5.90064e-05 0.0404268 0)
(-0.000106159 0.0402596 0)
(-0.000149312 0.0400021 0)
(-0.000188537 0.0396624 0)
(-0.000224042 0.0392481 0)
(-0.00025608 0.0387663 0)
(-0.000284863 0.0382238 0)
(-0.000310559 0.0376269 0)
(-0.000333323 0.0369816 0)
(-0.000353313 0.0362937 0)
(-0.000370693 0.0355685 0)
(-0.000385629 0.034811 0)
(-0.000398283 0.0340261 0)
(-0.000408807 0.033218 0)
(-0.000417346 0.0323909 0)
(-0.000424038 0.0315487 0)
(-0.000429015 0.0306949 0)
(-0.000432401 0.0298328 0)
(-0.000434318 0.0289654 0)
(-0.000434881 0.0280956 0)
(-0.0004342 0.027226 0)
(-0.000432381 0.0263589 0)
(-0.000429523 0.0254966 0)
(-0.000425722 0.0246409 0)
(-0.000421068 0.0237938 0)
(-0.000415645 0.0229567 0)
(-0.000409535 0.0221313 0)
(-0.000402813 0.0213187 0)
(-0.000395552 0.0205201 0)
(-0.000387816 0.0197366 0)
(-0.000379671 0.018969 0)
(-0.000371174 0.018218 0)
(-0.000362381 0.0174844 0)
(-0.000353343 0.0167686 0)
(-0.000344108 0.0160711 0)
(-0.00033472 0.0153922 0)
(-0.00032522 0.0147323 0)
(-0.000315646 0.0140914 0)
(-0.000306033 0.0134698 0)
(-0.000296413 0.0128674 0)
(-0.000286816 0.0122842 0)
(-0.000277268 0.0117202 0)
(-0.000267793 0.0111752 0)
(-0.000258414 0.0106491 0)
(-0.000249151 0.0101416 0)
(-0.000240021 0.00965253 0)
(-0.000231041 0.00918157 0)
(-0.000222225 0.00872842 0)
(-0.000213584 0.00829273 0)
(-0.000205131 0.00787413 0)
(-0.000196875 0.00747225 0)
(-0.000188823 0.00708668 0)
(-0.000180983 0.00671701 0)
(-0.00017336 0.00636279 0)
(-0.000165958 0.00602361 0)
(-0.000158782 0.005699 0)
(-0.000151834 0.00538852 0)
(-0.000145116 0.0050917 0)
(-0.000138628 0.00480809 0)
(-0.000132371 0.00453722 0)
(-0.000126346 0.00427864 0)
(-0.000120551 0.00403187 0)
(-0.000114984 0.00379647 0)
(-0.000109645 0.00357196 0)
(-0.000104531 0.00335791 0)
(-9.96391e-05 0.00315387 0)
(-9.49676e-05 0.00295938 0)
(-9.05131e-05 0.00277402 0)
(-8.62725e-05 0.00259735 0)
(-8.22427e-05 0.00242895 0)
(-7.84201e-05 0.0022684 0)
(-7.48014e-05 0.00211529 0)
(-7.1383e-05 0.00196921 0)
(-6.81616e-05 0.00182978 0)
(-6.51335e-05 0.00169659 0)
(-6.22953e-05 0.00156926 0)
(-5.96438e-05 0.00144742 0)
(-5.71755e-05 0.0013307 0)
(-5.48874e-05 0.00121873 0)
(-5.27763e-05 0.00111116 0)
(-5.08395e-05 0.00100764 0)
(-4.90741e-05 0.000907816 0)
(-4.74777e-05 0.000811354 0)
(-4.60479e-05 0.000717917 0)
(-4.47825e-05 0.000627174 0)
(-4.36797e-05 0.000538798 0)
(-4.27376e-05 0.000452466 0)
(-4.19548e-05 0.000367858 0)
(-4.13301e-05 0.000284657 0)
(-4.08624e-05 0.000202548 0)
(-4.05511e-05 0.000121218 0)
(-4.03955e-05 4.03541e-05 0)
(0.00146564 0.0374294 0)
(0.0012046 0.0383165 0)
(0.000960803 0.0390353 0)
(0.000733559 0.0395973 0)
(0.000522123 0.0400131 0)
(0.000326029 0.0402932 0)
(0.000144371 0.0404477 0)
(-2.31442e-05 0.0404858 0)
(-0.000177098 0.0404169 0)
(-0.000318531 0.0402496 0)
(-0.00044788 0.0399922 0)
(-0.000565513 0.0396526 0)
(-0.000672049 0.0392384 0)
(-0.000768187 0.0387568 0)
(-0.000854538 0.0382144 0)
(-0.000931614 0.0376176 0)
(-0.000999889 0.0369725 0)
(-0.00105985 0.0362847 0)
(-0.00111198 0.0355597 0)
(-0.00115679 0.0348024 0)
(-0.00119475 0.0340177 0)
(-0.00122632 0.0332098 0)
(-0.00125194 0.0323829 0)
(-0.00127201 0.0315409 0)
(-0.00128694 0.0306873 0)
(-0.0012971 0.0298254 0)
(-0.00130285 0.0289582 0)
(-0.00130454 0.0280887 0)
(-0.00130249 0.0272192 0)
(-0.00129704 0.0263524 0)
(-0.00128846 0.0254903 0)
(-0.00127706 0.0246348 0)
(-0.0012631 0.0237879 0)
(-0.00124683 0.0229511 0)
(-0.0012285 0.0221258 0)
(-0.00120834 0.0213134 0)
(-0.00118656 0.0205151 0)
(-0.00116335 0.0197317 0)
(-0.00113892 0.0189643 0)
(-0.00111343 0.0182135 0)
(-0.00108705 0.01748 0)
(-0.00105994 0.0167644 0)
(-0.00103224 0.0160671 0)
(-0.00100408 0.0153884 0)
(-0.00097558 0.0147286 0)
(-0.000946861 0.0140879 0)
(-0.000918024 0.0134664 0)
(-0.000889167 0.0128642 0)
(-0.000860377 0.0122812 0)
(-0.000831734 0.0117173 0)
(-0.000803313 0.0111724 0)
(-0.000775178 0.0106464 0)
(-0.000747391 0.0101391 0)
(-0.000720004 0.00965014 0)
(-0.000693066 0.00917931 0)
(-0.000666619 0.00872626 0)
(-0.000640701 0.00829068 0)
(-0.000615344 0.00787219 0)
(-0.000590577 0.00747041 0)
(-0.000566423 0.00708493 0)
(-0.000542904 0.00671535 0)
(-0.000520037 0.00636122 0)
(-0.000497834 0.00602212 0)
(-0.000476308 0.00569759 0)
(-0.000455465 0.00538719 0)
(-0.000435311 0.00509045 0)
(-0.00041585 0.00480691 0)
(-0.000397082 0.00453611 0)
(-0.000379007 0.00427758 0)
(-0.000361622 0.00403088 0)
(-0.000344924 0.00379553 0)
(-0.000328907 0.00357108 0)
(-0.000313566 0.00335709 0)
(-0.000298893 0.00315309 0)
(-0.000284879 0.00295865 0)
(-0.000271517 0.00277334 0)
(-0.000258796 0.00259671 0)
(-0.000246708 0.00242835 0)
(-0.000235241 0.00226784 0)
(-0.000224386 0.00211477 0)
(-0.000214131 0.00196873 0)
(-0.000204468 0.00182932 0)
(-0.000195384 0.00169617 0)
(-0.000186871 0.00156887 0)
(-0.000178917 0.00144706 0)
(-0.000171512 0.00133037 0)
(-0.000164649 0.00121843 0)
(-0.000158316 0.00111089 0)
(-0.000152506 0.00100739 0)
(-0.00014721 0.000907593 0)
(-0.000142422 0.000811154 0)
(-0.000138132 0.00071774 0)
(-0.000134337 0.000627019 0)
(-0.000131028 0.000538665 0)
(-0.000128202 0.000452355 0)
(-0.000125854 0.000367768 0)
(-0.00012398 0.000284587 0)
(-0.000122577 0.000202498 0)
(-0.000121643 0.000121188 0)
(-0.000121177 4.03442e-05 0)
(0.00244242 0.0374109 0)
(0.00200744 0.0382976 0)
(0.00160105 0.0390161 0)
(0.00122236 0.0395777 0)
(0.000870014 0.0399934 0)
(0.000543228 0.0402733 0)
(0.000240673 0.0404277 0)
(-3.85014e-05 0.0404659 0)
(-0.000295202 0.040397 0)
(-0.000530868 0.0402297 0)
(-0.000746317 0.0399724 0)
(-0.000942307 0.039633 0)
(-0.00111987 0.0392191 0)
(-0.00128012 0.0387377 0)
(-0.00142402 0.0381955 0)
(-0.00155245 0.037599 0)
(-0.00166621 0.0369542 0)
(-0.00176611 0.0362668 0)
(-0.00185299 0.0355421 0)
(-0.00192766 0.0347853 0)
(-0.00199092 0.0340009 0)
(-0.00204353 0.0331934 0)
(-0.00208622 0.032367 0)
(-0.00211967 0.0315254 0)
(-0.00214455 0.0306722 0)
(-0.00216147 0.0298107 0)
(-0.00217106 0.0289439 0)
(-0.00217387 0.0280748 0)
(-0.00217046 0.0272058 0)
(-0.00216137 0.0263394 0)
(-0.00214709 0.0254777 0)
(-0.00212808 0.0246227 0)
(-0.00210482 0.0237762 0)
(-0.00207771 0.0229398 0)
(-0.00204717 0.0221149 0)
(-0.00201357 0.0213029 0)
(-0.00197727 0.0205049 0)
(-0.0019386 0.019722 0)
(-0.00189789 0.0189549 0)
(-0.00185541 0.0182045 0)
(-0.00181146 0.0174714 0)
(-0.00176628 0.0167562 0)
(-0.00172012 0.0160592 0)
(-0.00167319 0.0153808 0)
(-0.0016257 0.0147214 0)
(-0.00157784 0.014081 0)
(-0.00152979 0.0134598 0)
(-0.0014817 0.0128578 0)
(-0.00143373 0.0122751 0)
(-0.001386 0.0117115 0)
(-0.00133863 0.0111669 0)
(-0.00129175 0.0106412 0)
(-0.00124545 0.0101341 0)
(-0.00119981 0.00964538 0)
(-0.00115492 0.00917477 0)
(-0.00111085 0.00872196 0)
(-0.00106766 0.00828659 0)
(-0.0010254 0.0078683 0)
(-0.000984132 0.00746672 0)
(-0.000943884 0.00708144 0)
(-0.000904692 0.00671203 0)
(-0.000866586 0.00635808 0)
(-0.000829588 0.00601915 0)
(-0.000793716 0.00569478 0)
(-0.000758983 0.00538453 0)
(-0.000725399 0.00508793 0)
(-0.000692969 0.00480453 0)
(-0.000661694 0.00453387 0)
(-0.000631574 0.00427547 0)
(-0.000602604 0.00402889 0)
(-0.000574779 0.00379366 0)
(-0.000548089 0.00356932 0)
(-0.000522524 0.00335543 0)
(-0.000498073 0.00315153 0)
(-0.000474721 0.00295719 0)
(-0.000452454 0.00277197 0)
(-0.000431256 0.00259543 0)
(-0.000411112 0.00242715 0)
(-0.000392004 0.00226672 0)
(-0.000373915 0.00211373 0)
(-0.000356827 0.00196776 0)
(-0.000340724 0.00182842 0)
(-0.000325587 0.00169533 0)
(-0.0003114 0.0015681 0)
(-0.000298145 0.00144635 0)
(-0.000285807 0.00132971 0)
(-0.000274369 0.00121783 0)
(-0.000263817 0.00111034 0)
(-0.000254135 0.00100689 0)
(-0.00024531 0.000907145 0)
(-0.00023733 0.000810754 0)
(-0.000230183 0.000717386 0)
(-0.000223857 0.00062671 0)
(-0.000218344 0.000538399 0)
(-0.000213635 0.000452131 0)
(-0.000209722 0.000367586 0)
(-0.000206599 0.000284447 0)
(-0.000204262 0.000202398 0)
(-0.000202705 0.000121128 0)
(-0.000201928 4.03243e-05 0)
(0.00341852 0.0373832 0)
(0.00280981 0.0382691 0)
(0.00224097 0.0389872 0)
(0.00171086 0.0395484 0)
(0.00121775 0.0399638 0)
(0.000760326 0.0402436 0)
(0.000336876 0.0403978 0)
(-5.38827e-05 0.0404359 0)
(-0.00041324 0.040367 0)
(-0.000743057 0.0401999 0)
(-0.00104455 0.0399428 0)
(-0.00131886 0.0396037 0)
(-0.00156742 0.0391901 0)
(-0.00179174 0.038709 0)
(-0.00199317 0.0381672 0)
(-0.00217292 0.0375712 0)
(-0.00233212 0.0369269 0)
(-0.00247194 0.0362399 0)
(-0.00259353 0.0355158 0)
(-0.00269804 0.0347595 0)
(-0.00278659 0.0339757 0)
(-0.00286024 0.0331688 0)
(-0.00291999 0.032343 0)
(-0.00296681 0.031502 0)
(-0.00300163 0.0306495 0)
(-0.00302532 0.0297886 0)
(-0.00303873 0.0289225 0)
(-0.00304267 0.028054 0)
(-0.0030379 0.0271857 0)
(-0.00302517 0.0263199 0)
(-0.00300518 0.0254588 0)
(-0.00297858 0.0246044 0)
(-0.00294602 0.0237586 0)
(-0.00290808 0.0229228 0)
(-0.00286533 0.0220985 0)
(-0.0028183 0.0212871 0)
(-0.00276749 0.0204898 0)
(-0.00271337 0.0197074 0)
(-0.00265639 0.0189409 0)
(-0.00259694 0.018191 0)
(-0.00253542 0.0174585 0)
(-0.00247218 0.0167437 0)
(-0.00240757 0.0160473 0)
(-0.00234188 0.0153694 0)
(-0.00227542 0.0147105 0)
(-0.00220843 0.0140706 0)
(-0.00214118 0.0134498 0)
(-0.00207387 0.0128483 0)
(-0.00200672 0.012266 0)
(-0.00193991 0.0117028 0)
(-0.00187363 0.0111586 0)
(-0.00180801 0.0106333 0)
(-0.00174319 0.0101266 0)
(-0.00167932 0.00963824 0)
(-0.00161649 0.00916798 0)
(-0.0015548 0.0087155 0)
(-0.00149435 0.00828045 0)
(-0.00143521 0.00786248 0)
(-0.00137745 0.00746119 0)
(-0.00132111 0.00707619 0)
(-0.00126626 0.00670706 0)
(-0.00121292 0.00635338 0)
(-0.00116114 0.00601469 0)
(-0.00111093 0.00569057 0)
(-0.00106231 0.00538054 0)
(-0.00101531 0.00508417 0)
(-0.000969917 0.00480098 0)
(-0.000926143 0.00453051 0)
(-0.000883985 0.00427231 0)
(-0.000843438 0.0040259 0)
(-0.000804492 0.00379085 0)
(-0.000767135 0.00356668 0)
(-0.000731353 0.00335294 0)
(-0.00069713 0.0031492 0)
(-0.000664445 0.002955 0)
(-0.000633279 0.00276991 0)
(-0.00060361 0.00259351 0)
(-0.000575415 0.00242536 0)
(-0.00054867 0.00226504 0)
(-0.000523351 0.00211216 0)
(-0.000499435 0.0019663 0)
(-0.000476895 0.00182707 0)
(-0.000455709 0.00169407 0)
(-0.000435852 0.00156694 0)
(-0.0004173 0.00144528 0)
(-0.000400031 0.00132873 0)
(-0.000384022 0.00121693 0)
(-0.000369252 0.00110952 0)
(-0.000355701 0.00100615 0)
(-0.00034335 0.000906473 0)
(-0.00033218 0.000810154 0)
(-0.000322176 0.000716855 0)
(-0.000313323 0.000626246 0)
(-0.000305607 0.000538001 0)
(-0.000299015 0.000451797 0)
(-0.000293539 0.000367314 0)
(-0.000289168 0.000284236 0)
(-0.000285896 0.000202249 0)
(-0.000283717 0.000121039 0)
(-0.000282629 4.02944e-05 0)
(0.00439368 0.0373464 0)
(0.00361136 0.0382313 0)
(0.00288036 0.0389486 0)
(0.00219897 0.0395093 0)
(0.00156518 0.0399243 0)
(0.000977232 0.0402038 0)
(0.000432979 0.0403579 0)
(-6.92582e-05 0.0403959 0)
(-0.000531166 0.0403271 0)
(-0.000955049 0.0401602 0)
(-0.00134251 0.0399034 0)
(-0.00169508 0.0395646 0)
(-0.00201459 0.0391514 0)
(-0.00230294 0.0386708 0)
(-0.00256183 0.0381295 0)
(-0.00279284 0.0375341 0)
(-0.00299745 0.0368904 0)
(-0.00317715 0.0362041 0)
(-0.00333343 0.0354807 0)
(-0.00346776 0.0347252 0)
(-0.00358158 0.0339422 0)
(-0.00367624 0.0331361 0)
(-0.00375304 0.0323111 0)
(-0.00381322 0.0314709 0)
(-0.00385797 0.0306192 0)
(-0.00388842 0.0297592 0)
(-0.00390565 0.0288939 0)
(-0.00391071 0.0280263 0)
(-0.00390459 0.0271588 0)
(-0.00388823 0.0262939 0)
(-0.00386253 0.0254337 0)
(-0.00382835 0.0245801 0)
(-0.00378649 0.0237351 0)
(-0.00373773 0.0229001 0)
(-0.00368279 0.0220767 0)
(-0.00362234 0.0212661 0)
(-0.00355704 0.0204695 0)
(-0.00348748 0.0196879 0)
(-0.00341423 0.0189222 0)
(-0.00333782 0.0181731 0)
(-0.00325875 0.0174412 0)
(-0.00317748 0.0167272 0)
(-0.00309443 0.0160314 0)
(-0.00301 0.0153543 0)
(-0.00292457 0.0146959 0)
(-0.00283848 0.0140567 0)
(-0.00275203 0.0134365 0)
(-0.00266553 0.0128356 0)
(-0.00257922 0.0122539 0)
(-0.00249336 0.0116913 0)
(-0.00240815 0.0111476 0)
(-0.00232381 0.0106228 0)
(-0.00224051 0.0101166 0)
(-0.00215841 0.00962872 0)
(-0.00207766 0.00915892 0)
(-0.00199838 0.00870689 0)
(-0.00192068 0.00827227 0)
(-0.00184467 0.00785471 0)
(-0.00177042 0.00745382 0)
(-0.00169801 0.0070692 0)
(-0.00162751 0.00670044 0)
(-0.00155896 0.0063471 0)
(-0.0014924 0.00600875 0)
(-0.00142787 0.00568494 0)
(-0.00136538 0.00537523 0)
(-0.00130497 0.00507914 0)
(-0.00124663 0.00479623 0)
(-0.00119036 0.00452603 0)
(-0.00113618 0.00426809 0)
(-0.00108406 0.00402193 0)
(-0.00103401 0.0037871 0)
(-0.000985992 0.00356315 0)
(-0.000940002 0.00334963 0)
(-0.000896015 0.00314609 0)
(-0.000854005 0.00295208 0)
(-0.000813948 0.00276718 0)
(-0.000775814 0.00259095 0)
(-0.000739575 0.00242296 0)
(-0.0007052 0.00226281 0)
(-0.000672659 0.00211007 0)
(-0.000641919 0.00196436 0)
(-0.00061295 0.00182526 0)
(-0.000585719 0.0016924 0)
(-0.000560197 0.00156539 0)
(-0.000536353 0.00144385 0)
(-0.000514156 0.00132742 0)
(-0.00049358 0.00121573 0)
(-0.000474596 0.00110842 0)
(-0.000457179 0.00100515 0)
(-0.000441304 0.000905578 0)
(-0.000426948 0.000809354 0)
(-0.000414091 0.000716147 0)
(-0.000402711 0.000625627 0)
(-0.000392794 0.000537469 0)
(-0.000384322 0.00045135 0)
(-0.000377283 0.000366951 0)
(-0.000371665 0.000283956 0)
(-0.000367459 0.000202049 0)
(-0.000364659 0.000120919 0)
(-0.000363261 4.02546e-05 0)
(0.00536776 0.0373003 0)
(0.004412 0.0381841 0)
(0.003519 0.0389005 0)
(0.00268653 0.0394605 0)
(0.00191222 0.039875 0)
(0.00119389 0.0401541 0)
(0.000528973 0.040308 0)
(-8.46114e-05 0.040346 0)
(-0.000648953 0.0402773 0)
(-0.0011668 0.0401106 0)
(-0.00164014 0.0398541 0)
(-0.0020709 0.0395157 0)
(-0.00246128 0.039103 0)
(-0.00281357 0.038623 0)
(-0.00312986 0.0380824 0)
(-0.00341208 0.0374877 0)
(-0.00366204 0.0368448 0)
(-0.00388157 0.0361594 0)
(-0.0040725 0.0354369 0)
(-0.00423662 0.0346823 0)
(-0.00437568 0.0339002 0)
(-0.00449133 0.0330951 0)
(-0.00458516 0.0322711 0)
(-0.00465869 0.031432 0)
(-0.00471336 0.0305814 0)
(-0.00475056 0.0297224 0)
(-0.00477161 0.0288582 0)
(-0.00477779 0.0279917 0)
(-0.00477031 0.0271253 0)
(-0.00475032 0.0262614 0)
(-0.00471893 0.0254022 0)
(-0.00467717 0.0245498 0)
(-0.00462603 0.0237058 0)
(-0.00456646 0.0228718 0)
(-0.00449933 0.0220494 0)
(-0.00442548 0.0212398 0)
(-0.0043457 0.0204442 0)
(-0.00426072 0.0196636 0)
(-0.00417123 0.0188988 0)
(-0.00407788 0.0181506 0)
(-0.00398128 0.0174197 0)
(-0.00388198 0.0167065 0)
(-0.00378052 0.0160116 0)
(-0.00367738 0.0153353 0)
(-0.00357301 0.0146778 0)
(-0.00346783 0.0140393 0)
(-0.00336221 0.0134199 0)
(-0.00325652 0.0128198 0)
(-0.00315108 0.0122388 0)
(-0.00304618 0.0116768 0)
(-0.00294209 0.0111339 0)
(-0.00283905 0.0106097 0)
(-0.00273728 0.0101041 0)
(-0.00263698 0.00961682 0)
(-0.00253832 0.00914761 0)
(-0.00244146 0.00869613 0)
(-0.00234653 0.00826205 0)
(-0.00225366 0.00784501 0)
(-0.00216295 0.00744461 0)
(-0.00207449 0.00706047 0)
(-0.00198836 0.00669216 0)
(-0.00190461 0.00633926 0)
(-0.00182329 0.00600133 0)
(-0.00174445 0.00567792 0)
(-0.00166812 0.00536859 0)
(-0.0015943 0.00507287 0)
(-0.00152303 0.00479031 0)
(-0.00145429 0.00452044 0)
(-0.00138809 0.00426281 0)
(-0.00132442 0.00401696 0)
(-0.00126327 0.00378242 0)
(-0.00120461 0.00355875 0)
(-0.00114842 0.00334549 0)
(-0.00109468 0.0031422 0)
(-0.00104335 0.00294844 0)
(-0.000994416 0.00276376 0)
(-0.000947827 0.00258775 0)
(-0.000903553 0.00241997 0)
(-0.000861557 0.00226001 0)
(-0.0008218 0.00210747 0)
(-0.000784245 0.00196193 0)
(-0.000748852 0.00182301 0)
(-0.000715585 0.00169031 0)
(-0.000684404 0.00156345 0)
(-0.000655272 0.00144207 0)
(-0.000628155 0.00132578 0)
(-0.000603017 0.00121422 0)
(-0.000579824 0.00110705 0)
(-0.000558545 0.00100391 0)
(-0.00053915 0.000904459 0)
(-0.000521611 0.000808354 0)
(-0.000505902 0.000715262 0)
(-0.000492 0.000624855 0)
(-0.000479884 0.000536805 0)
(-0.000469534 0.000450793 0)
(-0.000460934 0.000366498 0)
(-0.00045407 0.000283605 0)
(-0.000448932 0.000201799 0)
(-0.000445512 0.00012077 0)
(-0.000443803 4.02049e-05 0)
(0.00634057 0.0372449 0)
(0.00521158 0.0381275 0)
(0.00415677 0.0388428 0)
(0.00317343 0.039402 0)
(0.00225878 0.0398158 0)
(0.00141025 0.0400946 0)
(0.000624841 0.0402482 0)
(-9.99375e-05 0.0402861 0)
(-0.000766575 0.0402176 0)
(-0.00137826 0.0400511 0)
(-0.00193737 0.039795 0)
(-0.0024462 0.0394571 0)
(-0.00290736 0.039045 0)
(-0.00332351 0.0385657 0)
(-0.00369712 0.0380259 0)
(-0.00403047 0.0374321 0)
(-0.00432572 0.0367901 0)
(-0.00458503 0.0361058 0)
(-0.00481057 0.0353843 0)
(-0.00500444 0.0346308 0)
(-0.0051687 0.0338499 0)
(-0.00530531 0.033046 0)
(-0.00541615 0.0322233 0)
(-0.00550301 0.0313854 0)
(-0.00556759 0.030536 0)
(-0.00561153 0.0296783 0)
(-0.0056364 0.0288154 0)
(-0.0056437 0.0279501 0)
(-0.00563486 0.027085 0)
(-0.00561125 0.0262224 0)
(-0.00557416 0.0253645 0)
(-0.00552483 0.0245133 0)
(-0.00546443 0.0236706 0)
(-0.00539406 0.0228379 0)
(-0.00531477 0.0220167 0)
(-0.00522754 0.0212083 0)
(-0.00513329 0.0204139 0)
(-0.00503291 0.0196344 0)
(-0.0049272 0.0188708 0)
(-0.00481694 0.0181237 0)
(-0.00470282 0.0173938 0)
(-0.00458553 0.0166818 0)
(-0.00446568 0.0159879 0)
(-0.00434385 0.0153125 0)
(-0.00422056 0.014656 0)
(-0.00409632 0.0140185 0)
(-0.00397156 0.0134 0)
(-0.00384672 0.0128007 0)
(-0.00372217 0.0122206 0)
(-0.00359825 0.0116595 0)
(-0.0034753 0.0111173 0)
(-0.00335358 0.0105939 0)
(-0.00323337 0.0100891 0)
(-0.00311489 0.00960255 0)
(-0.00299835 0.00913403 0)
(-0.00288393 0.00868323 0)
(-0.0027718 0.00824979 0)
(-0.00266211 0.00783337 0)
(-0.00255496 0.00743357 0)
(-0.00245047 0.00704999 0)
(-0.00234872 0.00668223 0)
(-0.00224979 0.00632985 0)
(-0.00215374 0.00599242 0)
(-0.00206061 0.0056695 0)
(-0.00197044 0.00536062 0)
(-0.00188325 0.00506534 0)
(-0.00179905 0.0047832 0)
(-0.00171786 0.00451373 0)
(-0.00163966 0.00425649 0)
(-0.00156445 0.004011 0)
(-0.00149221 0.00377681 0)
(-0.00142292 0.00355347 0)
(-0.00135655 0.00334053 0)
(-0.00129307 0.00313754 0)
(-0.00123245 0.00294406 0)
(-0.00117464 0.00275966 0)
(-0.00111961 0.00258391 0)
(-0.00106731 0.00241638 0)
(-0.0010177 0.00225666 0)
(-0.000970739 0.00210434 0)
(-0.000926377 0.00195902 0)
(-0.000884571 0.0018203 0)
(-0.000845273 0.0016878 0)
(-0.000808441 0.00156113 0)
(-0.000774031 0.00143993 0)
(-0.000741999 0.00132381 0)
(-0.000712304 0.00121242 0)
(-0.000684908 0.00110541 0)
(-0.000659773 0.00100242 0)
(-0.000636863 0.000903117 0)
(-0.000616145 0.000807154 0)
(-0.00059759 0.000714201 0)
(-0.000581168 0.000623928 0)
(-0.000566855 0.000536009 0)
(-0.000554629 0.000450124 0)
(-0.000544471 0.000365954 0)
(-0.000536363 0.000283184 0)
(-0.000530294 0.0002015 0)
(-0.000526254 0.00012059 0)
(-0.000524235 4.01453e-05 0)
(0.00731182 0.0371804 0)
(0.00600989 0.0380614 0)
(0.0047935 0.0387755 0)
(0.00365953 0.0393337 0)
(0.00260478 0.0397468 0)
(0.00162627 0.0400251 0)
(0.000720558 0.0401784 0)
(-0.000115235 0.0402163 0)
(-0.000884006 0.0401479 0)
(-0.00158938 0.0399817 0)
(-0.00223413 0.039726 0)
(-0.00282091 0.0393887 0)
(-0.00335272 0.0389773 0)
(-0.00383263 0.0384988 0)
(-0.00426347 0.03796 0)
(-0.00464787 0.0373672 0)
(-0.00498833 0.0367264 0)
(-0.00528736 0.0360432 0)
(-0.00554744 0.035323 0)
(-0.00577102 0.0345708 0)
(-0.00596045 0.0337913 0)
(-0.00611799 0.0329888 0)
(-0.00624581 0.0321674 0)
(-0.00634597 0.031331 0)
(-0.00642044 0.0304831 0)
(-0.00647111 0.0296269 0)
(-0.00649979 0.0287655 0)
(-0.00650821 0.0279017 0)
(-0.00649802 0.0270381 0)
(-0.00647079 0.026177 0)
(-0.00642802 0.0253206 0)
(-0.00637113 0.0244709 0)
(-0.00630148 0.0236296 0)
(-0.00622033 0.0227983 0)
(-0.00612889 0.0219786 0)
(-0.0060283 0.0211716 0)
(-0.00591962 0.0203785 0)
(-0.00580386 0.0196004 0)
(-0.00568196 0.0188381 0)
(-0.0055548 0.0180923 0)
(-0.00542321 0.0173637 0)
(-0.00528795 0.0166528 0)
(-0.00514974 0.0159602 0)
(-0.00500925 0.015286 0)
(-0.00486707 0.0146306 0)
(-0.0047238 0.0139942 0)
(-0.00457993 0.0133768 0)
(-0.00443597 0.0127786 0)
(-0.00429234 0.0121994 0)
(-0.00414944 0.0116393 0)
(-0.00400765 0.0110981 0)
(-0.00386729 0.0105756 0)
(-0.00372866 0.0100716 0)
(-0.00359203 0.00958591 0)
(-0.00345764 0.00911821 0)
(-0.0033257 0.00866818 0)
(-0.00319639 0.0082355 0)
(-0.00306989 0.00781979 0)
(-0.00294633 0.00742069 0)
(-0.00282583 0.00703778 0)
(-0.0027085 0.00667065 0)
(-0.00259441 0.00631888 0)
(-0.00248365 0.00598204 0)
(-0.00237625 0.00565967 0)
(-0.00227227 0.00535133 0)
(-0.00217172 0.00505656 0)
(-0.00207463 0.00477491 0)
(-0.001981 0.00450591 0)
(-0.00189083 0.00424911 0)
(-0.0018041 0.00400405 0)
(-0.00172079 0.00377027 0)
(-0.00164089 0.00354731 0)
(-0.00156435 0.00333474 0)
(-0.00149115 0.0031321 0)
(-0.00142124 0.00293896 0)
(-0.00135457 0.00275488 0)
(-0.00129111 0.00257943 0)
(-0.0012308 0.00241219 0)
(-0.00117359 0.00225275 0)
(-0.00111944 0.00210069 0)
(-0.00106828 0.00195563 0)
(-0.00102007 0.00181715 0)
(-0.000974754 0.00168488 0)
(-0.00093228 0.00155843 0)
(-0.000892598 0.00143743 0)
(-0.000855659 0.00132152 0)
(-0.000821416 0.00121032 0)
(-0.000789823 0.00110349 0)
(-0.000760838 0.00100069 0)
(-0.000734418 0.000901552 0)
(-0.000710527 0.000805756 0)
(-0.000689129 0.000712964 0)
(-0.000670192 0.000622847 0)
(-0.000653687 0.00053508 0)
(-0.000639588 0.000449344 0)
(-0.000627874 0.00036532 0)
(-0.000618524 0.000282693 0)
(-0.000611526 0.000201151 0)
(-0.000606866 0.000120382 0)
(-0.000604538 4.00757e-05 0)
(0.00828128 0.0371066 0)
(0.00680672 0.037986 0)
(0.00542905 0.0386986 0)
(0.00414473 0.0392557 0)
(0.00295014 0.039668 0)
(0.00184189 0.0399457 0)
(0.000816101 0.0400988 0)
(-0.000130504 0.0401366 0)
(-0.00100122 0.0400683 0)
(-0.00180011 0.0399024 0)
(-0.00253034 0.0396473 0)
(-0.00319492 0.0393106 0)
(-0.00379726 0.0389 0)
(-0.0043408 0.0384225 0)
(-0.00482876 0.0378848 0)
(-0.00526411 0.0372931 0)
(-0.00564971 0.0366536 0)
(-0.00598838 0.0359717 0)
(-0.00628295 0.035253 0)
(-0.00653617 0.0345023 0)
(-0.00675072 0.0337243 0)
(-0.00692916 0.0329234 0)
(-0.00707393 0.0321037 0)
(-0.00718737 0.0312689 0)
(-0.00727171 0.0304226 0)
(-0.0073291 0.0295682 0)
(-0.00736158 0.0287085 0)
(-0.00737112 0.0278464 0)
(-0.00735957 0.0269845 0)
(-0.00732873 0.0261251 0)
(-0.00728029 0.0252704 0)
(-0.00721587 0.0244223 0)
(-0.00713697 0.0235827 0)
(-0.00704507 0.0227531 0)
(-0.0069415 0.021935 0)
(-0.00682757 0.0211296 0)
(-0.00670448 0.0203381 0)
(-0.00657337 0.0195615 0)
(-0.00643531 0.0188007 0)
(-0.0062913 0.0180564 0)
(-0.00614226 0.0173293 0)
(-0.00598907 0.0166198 0)
(-0.00583253 0.0159285 0)
(-0.00567341 0.0152557 0)
(-0.00551239 0.0146016 0)
(-0.00535011 0.0139664 0)
(-0.00518717 0.0133503 0)
(-0.00502412 0.0127532 0)
(-0.00486144 0.0121752 0)
(-0.0046996 0.0116162 0)
(-0.00453901 0.0110761 0)
(-0.00438004 0.0105546 0)
(-0.00422303 0.0100516 0)
(-0.00406829 0.00956691 0)
(-0.00391608 0.00910013 0)
(-0.00376664 0.008651 0)
(-0.00362019 0.00821917 0)
(-0.00347692 0.00780429 0)
(-0.00333697 0.00740597 0)
(-0.0032005 0.00702382 0)
(-0.00306761 0.00665743 0)
(-0.0029384 0.00630636 0)
(-0.00281295 0.00597018 0)
(-0.00269131 0.00564845 0)
(-0.00257354 0.00534072 0)
(-0.00245967 0.00504654 0)
(-0.0023497 0.00476545 0)
(-0.00224366 0.00449698 0)
(-0.00214153 0.00424069 0)
(-0.0020433 0.00399611 0)
(-0.00194895 0.00376279 0)
(-0.00185845 0.00354028 0)
(-0.00177176 0.00332813 0)
(-0.00168885 0.00312589 0)
(-0.00160967 0.00293313 0)
(-0.00153417 0.00274942 0)
(-0.00146229 0.00257432 0)
(-0.00139399 0.00240741 0)
(-0.0013292 0.00224828 0)
(-0.00126786 0.00209653 0)
(-0.00120992 0.00195175 0)
(-0.00115532 0.00181355 0)
(-0.00110399 0.00168154 0)
(-0.00105589 0.00155534 0)
(-0.00101094 0.00143458 0)
(-0.000969108 0.0013189 0)
(-0.000930325 0.00120792 0)
(-0.000894544 0.00110131 0)
(-0.000861715 0.000998702 0)
(-0.000831793 0.000899765 0)
(-0.000804734 0.000804159 0)
(-0.000780499 0.00071155 0)
(-0.000759051 0.000621612 0)
(-0.000740358 0.00053402 0)
(-0.00072439 0.000448454 0)
(-0.000711122 0.000364596 0)
(-0.000700533 0.000282133 0)
(-0.000692606 0.000200752 0)
(-0.000687329 0.000120143 0)
(-0.000684692 3.99963e-05 0)
(0.00924869 0.0370238 0)
(0.00760187 0.0379011 0)
(0.00606327 0.0386122 0)
(0.00462891 0.0391681 0)
(0.00329478 0.0395794 0)
(0.00205705 0.0398565 0)
(0.000911442 0.0400093 0)
(-0.000145741 0.040047 0)
(-0.00111819 0.0399788 0)
(-0.0020104 0.0398133 0)
(-0.00282592 0.0395587 0)
(-0.00356815 0.0392229 0)
(-0.00424086 0.0388132 0)
(-0.0048479 0.0383367 0)
(-0.00539286 0.0378001 0)
(-0.00587906 0.0372098 0)
(-0.00630969 0.0365717 0)
(-0.00668793 0.0358914 0)
(-0.00701691 0.0351743 0)
(-0.00729972 0.0344252 0)
(-0.00753933 0.033649 0)
(-0.00773862 0.0328499 0)
(-0.0079003 0.032032 0)
(-0.00802699 0.0311991 0)
(-0.00812119 0.0303547 0)
(-0.00818528 0.0295021 0)
(-0.00822156 0.0286444 0)
(-0.0082322 0.0277842 0)
(-0.00821931 0.0269242 0)
(-0.00818487 0.0260668 0)
(-0.00813077 0.025214 0)
(-0.00805882 0.0243678 0)
(-0.00797071 0.0235301 0)
(-0.00786806 0.0227023 0)
(-0.0077524 0.021886 0)
(-0.00762516 0.0210824 0)
(-0.00748769 0.0202927 0)
(-0.00734127 0.0195178 0)
(-0.00718708 0.0187587 0)
(-0.00702624 0.0180161 0)
(-0.00685979 0.0172906 0)
(-0.0066887 0.0165827 0)
(-0.00651388 0.015893 0)
(-0.00633617 0.0152216 0)
(-0.00615634 0.014569 0)
(-0.0059751 0.0139352 0)
(-0.00579313 0.0133205 0)
(-0.00561103 0.0127248 0)
(-0.00542935 0.012148 0)
(-0.00524861 0.0115903 0)
(-0.00506925 0.0110513 0)
(-0.00489171 0.010531 0)
(-0.00471636 0.0100292 0)
(-0.00454354 0.00954554 0)
(-0.00437355 0.00907981 0)
(-0.00420666 0.00863168 0)
(-0.0040431 0.00820082 0)
(-0.00388309 0.00778686 0)
(-0.0037268 0.00738944 0)
(-0.00357438 0.00700814 0)
(-0.00342596 0.00664256 0)
(-0.00328166 0.00629227 0)
(-0.00314155 0.00595685 0)
(-0.00300571 0.00563584 0)
(-0.00287418 0.0053288 0)
(-0.002747 0.00503527 0)
(-0.00262419 0.0047548 0)
(-0.00250576 0.00448694 0)
(-0.0023917 0.00423122 0)
(-0.00228199 0.00398719 0)
(-0.00217662 0.00375439 0)
(-0.00207555 0.00353238 0)
(-0.00197874 0.0033207 0)
(-0.00188614 0.00311891 0)
(-0.00179771 0.00292658 0)
(-0.00171339 0.00274328 0)
(-0.00163312 0.00256857 0)
(-0.00155683 0.00240203 0)
(-0.00148447 0.00224326 0)
(-0.00141597 0.00209185 0)
(-0.00135126 0.00194739 0)
(-0.00129028 0.0018095 0)
(-0.00123296 0.00167778 0)
(-0.00117924 0.00155187 0)
(-0.00112904 0.00143138 0)
(-0.00108232 0.00131595 0)
(-0.001039 0.00120523 0)
(-0.000999043 0.00109885 0)
(-0.000962379 0.000996472 0)
(-0.000928962 0.000897756 0)
(-0.000898742 0.000802363 0)
(-0.000871676 0.000709962 0)
(-0.000847723 0.000620224 0)
(-0.000826846 0.000532827 0)
(-0.000809012 0.000447452 0)
(-0.000794194 0.000363782 0)
(-0.000782368 0.000281503 0)
(-0.000773516 0.000200304 0)
(-0.000767622 0.000119875 0)
(-0.000764678 3.9907e-05 0)
(0.0102138 0.0369318 0)
(0.00839515 0.037807 0)
(0.00669599 0.0385163 0)
(0.00511196 0.0390707 0)
(0.0036386 0.0394811 0)
(0.00227171 0.0397575 0)
(0.00100656 0.0399098 0)
(-0.000160944 0.0399475 0)
(-0.00123488 0.0398795 0)
(-0.0022202 0.0397144 0)
(-0.00312081 0.0394604 0)
(-0.00394049 0.0391254 0)
(-0.00468341 0.0387167 0)
(-0.00535381 0.0382414 0)
(-0.00595563 0.0377062 0)
(-0.00649255 0.0371174 0)
(-0.00696812 0.0364808 0)
(-0.00738582 0.0358022 0)
(-0.00774913 0.0350869 0)
(-0.00806146 0.0343397 0)
(-0.00832608 0.0335654 0)
(-0.00854617 0.0327683 0)
(-0.00872473 0.0319524 0)
(-0.00886464 0.0311216 0)
(-0.00896866 0.0302793 0)
(-0.00903944 0.0294288 0)
(-0.00907951 0.0285732 0)
(-0.00909126 0.0277152 0)
(-0.00907702 0.0268573 0)
(-0.00903898 0.026002 0)
(-0.00897924 0.0251513 0)
(-0.00889978 0.0243073 0)
(-0.00880248 0.0234716 0)
(-0.00868912 0.0226459 0)
(-0.00856139 0.0218316 0)
(-0.00842087 0.02103 0)
(-0.00826906 0.0202423 0)
(-0.00810735 0.0194693 0)
(-0.00793707 0.0187121 0)
(-0.00775945 0.0179713 0)
(-0.00757563 0.0172476 0)
(-0.00738669 0.0165415 0)
(-0.00719363 0.0158535 0)
(-0.00699737 0.0151838 0)
(-0.00679877 0.0145328 0)
(-0.00659862 0.0139006 0)
(-0.00639766 0.0132874 0)
(-0.00619656 0.0126931 0)
(-0.00599592 0.0121179 0)
(-0.00579631 0.0115615 0)
(-0.00559824 0.0110239 0)
(-0.00540218 0.0105049 0)
(-0.00520853 0.0100043 0)
(-0.00501767 0.00952182 0)
(-0.00482994 0.00905725 0)
(-0.00464563 0.00861023 0)
(-0.00446501 0.00818044 0)
(-0.0042883 0.00776751 0)
(-0.0041157 0.00737107 0)
(-0.00394738 0.00699072 0)
(-0.00378347 0.00662605 0)
(-0.00362411 0.00627664 0)
(-0.00346938 0.00594205 0)
(-0.00331936 0.00562183 0)
(-0.00317411 0.00531556 0)
(-0.00303366 0.00502276 0)
(-0.00289803 0.00474299 0)
(-0.00276724 0.00447579 0)
(-0.00264128 0.00422071 0)
(-0.00252013 0.00397728 0)
(-0.00240376 0.00374506 0)
(-0.00229214 0.0035236 0)
(-0.00218523 0.00331245 0)
(-0.00208297 0.00311116 0)
(-0.00198531 0.00291931 0)
(-0.00189219 0.00273646 0)
(-0.00180354 0.00256218 0)
(-0.00171929 0.00239606 0)
(-0.00163938 0.00223769 0)
(-0.00156373 0.00208665 0)
(-0.00149227 0.00194255 0)
(-0.00142493 0.001805 0)
(-0.00136162 0.00167361 0)
(-0.00130229 0.00154801 0)
(-0.00124686 0.00142782 0)
(-0.00119526 0.00131268 0)
(-0.00114743 0.00120223 0)
(-0.0011033 0.00109612 0)
(-0.00106281 0.000993997 0)
(-0.0010259 0.000895526 0)
(-0.000992529 0.00080037 0)