/*--------------------------------*- C++ -*----------------------------------*\
| =========                 |                                                 |
| \\      /  F ield         | OpenFOAM: The Open Source CFD Toolbox           |
|  \\    /   O peration     | Version:  2406                                  |
|   \\  /    A nd           | Website:  www.openfoam.com                      |
|    \\/     M anipulation  |                                                 |
\*---------------------------------------------------------------------------*/
FoamFile
{
    version     2.0;
    format      ascii;
    arch        "LSB;label=32;scalar=64";
    class       volScalarField;
    location    "110";
    object      gradTy;
}
// * * * * * * * * * * * * * * * * * * * * * * * * * * * * * * * * * * * * * //

dimensions      [0 -1 0 1 0 0 0];

internalField   nonuniform List<scalar> 
20000
(
170.305
174.341
177.612
180.169
182.061
183.336
184.038
184.211
183.898
183.137
181.966
180.421
178.536
176.344
173.877
171.161
168.226
165.097
161.798
158.352
154.781
151.106
147.343
143.512
139.628
135.706
131.761
127.804
123.848
119.904
115.981
112.089
108.236
104.428
100.673
96.9768
93.3442
89.78
86.2881
82.872
79.5347
76.2787
73.1058
70.0178
67.0158
64.1006
61.2727
58.5325
55.8796
53.314
50.8349
48.4416
46.1332
43.9084
41.7661
39.7048
37.7228
35.8187
33.9906
32.2367
30.555
28.9438
27.4008
25.9242
24.5119
23.1617
21.8716
20.6394
19.4631
18.3406
17.2698
16.2485
15.2748
14.3467
13.462
12.6188
11.8151
11.0491
10.3187
9.62226
8.95777
8.32348
7.71761
7.13841
6.58418
6.05322
5.5439
5.05457
4.58366
4.12957
3.69078
3.26574
2.85296
2.45094
2.05823
1.67335
1.29488
0.921374
0.551409
0.183567
170.263
174.298
177.568
180.124
182.016
183.29
183.993
184.166
183.853
183.092
181.921
180.376
178.492
176.301
173.834
171.119
168.184
165.056
161.758
158.313
154.743
151.068
147.307
143.477
139.594
135.673
131.728
127.773
123.818
119.875
115.953
112.062
108.209
104.402
100.648
96.9529
93.3212
89.7578
86.2668
82.8516
79.5151
76.2599
73.0878
70.0005
66.9992
64.0848
61.2576
58.518
55.8659
53.3008
50.8224
48.4297
46.1218
43.8976
41.7558
39.695
37.7135
35.8099
33.9822
32.2287
30.5475
28.9366
27.3941
25.9178
24.5058
23.156
21.8662
20.6343
19.4583
18.3361
17.2655
16.2445
15.2711
14.3431
13.4586
12.6156
11.8122
11.0464
10.3162
9.61989
8.95556
8.32143
7.7157
7.13665
6.58255
6.05173
5.54253
5.05333
4.58253
4.12855
3.68987
3.26493
2.85225
2.45034
2.05772
1.67294
1.29456
0.921147
0.551273
0.183522
170.179
174.212
177.481
180.035
181.926
183.2
183.902
184.075
183.762
183.001
181.831
180.287
178.404
176.214
173.748
171.035
168.101
164.974
161.678
158.235
154.667
150.994
147.234
143.406
139.525
135.606
131.663
127.71
123.757
119.815
115.896
112.006
108.156
104.351
100.599
96.905
93.2751
89.7135
86.2242
82.8107
79.4759
76.2222
73.0517
69.966
66.9662
64.0531
61.2274
58.4891
55.8383
53.2745
50.7973
48.4058
46.099
43.8759
41.7352
39.6754
37.6949
35.7922
33.9654
32.2128
30.5324
28.9223
27.3806
25.905
24.4937
23.1445
21.8554
20.6241
19.4487
18.327
17.257
16.2365
15.2635
14.336
13.452
12.6094
11.8064
11.0409
10.3111
9.61514
8.95115
8.31732
7.7119
7.13313
6.5793
6.04874
5.53979
5.05083
4.58026
4.12652
3.68804
3.26332
2.85085
2.44913
2.0567
1.67212
1.29392
0.920692
0.551001
0.183431
170.053
174.083
177.349
179.902
181.792
183.064
183.766
183.939
183.626
182.866
181.696
180.154
178.272
176.084
173.619
170.908
167.977
164.852
161.558
158.118
154.552
150.882
147.125
143.3
139.422
135.506
131.566
127.615
123.665
119.727
115.81
111.923
108.075
104.274
100.524
96.8333
93.206
89.6471
86.1604
82.7494
79.417
76.1658
72.9976
69.9142
66.9166
64.0057
61.182
58.4458
55.7969
53.2351
50.7597
48.3699
46.0649
43.8435
41.7043
39.646
37.667
35.7657
33.9403
32.1889
30.5098
28.9009
27.3603
25.8859
24.4756
23.1274
21.8392
20.6089
19.4343
18.3135
17.2442
16.2245
15.2522
14.3254
13.442
12.6001
11.7976
11.0327
10.3035
9.60802
8.94452
8.31116
7.70619
7.12785
6.57443
6.04426
5.53569
5.04709
4.57687
4.12346
3.68531
3.26091
2.84873
2.44732
2.05518
1.67088
1.29296
0.92001
0.550593
0.183296
169.885
173.911
177.174
179.724
181.612
182.883
183.584
183.757
183.444
182.685
181.517
179.976
178.096
175.91
173.448
170.739
167.811
164.689
161.399
157.962
154.4
150.733
146.98
143.158
139.284
135.372
131.436
127.489
123.543
119.608
115.695
111.813
107.969
104.171
100.425
96.7376
93.114
89.5585
86.0752
82.6676
79.3386
76.0905
72.9255
69.8451
66.8505
63.9425
61.1216
58.3881
55.7418
53.1825
50.7095
48.3221
46.0194
43.8001
41.6631
39.6068
37.6298
35.7304
33.9067
32.1571
30.4797
28.8724
27.3333
25.8603
24.4514
23.1046
21.8176
20.5885
19.4151
18.2954
17.2272
16.2085
15.2372
14.3113
13.4288
12.5876
11.786
11.0218
10.2933
9.59853
8.93568
8.30295
7.69858
7.12081
6.56794
6.03829
5.53022
5.04211
4.57235
4.11939
3.68167
3.25769
2.84592
2.4449
2.05315
1.66923
1.29169
0.919102
0.550049
0.183115
169.676
173.696
176.955
179.502
181.388
182.657
183.357
183.53
183.218
182.459
181.293
179.753
177.876
175.692
173.233
170.528
167.604
164.486
161.199
157.766
154.209
150.547
146.798
142.981
139.112
135.205
131.274
127.332
123.39
119.461
115.552
111.675
107.835
104.042
100.301
96.6181
92.9989
89.4479
85.9689
82.5655
79.2405
75.9965
72.8354
69.7588
66.7679
63.8635
61.0461
58.3159
55.6729
53.1168
50.6469
48.2624
45.9625
43.746
41.6116
39.5579
37.5833
35.6862
33.8649
32.1174
30.442
28.8367
27.2995
25.8283
24.4212
23.076
21.7907
20.5631
19.3911
18.2728
17.2059
16.1884
15.2183
14.2936
13.4122
12.5721
11.7714
11.0082
10.2806
9.58667
8.92464
8.2927
7.68906
7.11201
6.55982
6.03083
5.52339
5.03588
4.5667
4.1143
3.67713
3.25366
2.84241
2.44188
2.05062
1.66717
1.29009
0.917966
0.54937
0.182888
169.424
173.438
176.692
179.236
181.118
182.386
183.085
183.258
182.946
182.189
181.024
179.487
177.612
175.432
172.976
170.275
167.355
164.242
160.96
157.532
153.98
150.323
146.581
142.769
138.905
135.004
131.079
127.143
123.207
119.283
115.381
111.509
107.675
103.887
100.152
96.4747
92.8609
89.3151
85.8413
82.443
79.123
75.8838
72.7273
69.6553
66.6688
63.7687
60.9555
58.2294
55.5903
53.038
50.5717
48.1908
45.8943
43.6811
41.5499
39.4992
37.5275
35.6333
33.8146
32.0698
30.3968
28.7939
27.259
25.79
24.385
23.0418
21.7583
20.5326
19.3624
18.2457
17.1804
16.1644
15.1958
14.2724
13.3923
12.5534
11.7539
10.9919
10.2653
9.57245
8.9114
8.28039
7.67766
7.10146
6.55009
6.02189
5.5152
5.02841
4.55993
4.1082
3.67167
3.24883
2.83819
2.43826
2.04757
1.66469
1.28818
0.916605
0.548555
0.182617
169.13
173.138
176.386
178.925
180.805
182.07
182.768
182.94
182.629
181.873
180.71
179.176
177.304
175.128
172.677
169.98
167.065
163.957
160.681
157.259
153.713
150.063
146.327
142.522
138.665
134.77
130.852
126.922
122.994
119.077
115.181
111.316
107.489
103.707
99.9784
96.3076
92.7
89.1604
85.6926
82.3001
78.9859
75.7523
72.6013
69.5346
66.5533
63.6582
60.8499
58.1285
55.494
52.9461
50.4841
48.1073
45.8148
43.6054
41.4779
39.4308
37.4625
35.5715
33.756
32.0142
30.3442
28.744
27.2117
25.7453
24.3427
23.0018
21.7206
20.497
19.3288
18.214
17.1506
16.1364
15.1694
14.2476
13.3691
12.5317
11.7336
10.9728
10.2475
9.55586
8.89596
8.26605
7.66435
7.08915
6.53874
6.01145
5.50564
5.0197
4.55203
4.10108
3.66531
3.24321
2.83327
2.43403
2.04403
1.66181
1.28595
0.915017
0.547605
0.182301
168.795
172.795
176.036
178.571
180.446
181.709
182.406
182.578
182.267
181.512
180.352
178.82
176.953
174.78
172.334
169.643
166.734
163.632
160.363
156.948
153.409
149.765
146.037
142.239
138.39
134.503
130.592
126.671
122.75
118.841
114.953
111.095
107.276
103.502
99.7802
96.1166
92.5162
88.9836
85.5227
82.1369
78.8293
75.6021
72.4574
69.3967
66.4213
63.532
60.7293
58.0133
55.384
52.8411
50.384
48.0119
45.724
43.519
41.3957
39.3526
37.3883
35.501
33.6891
31.9507
30.284
28.687
27.1578
25.6943
24.2945
22.9562
21.6776
20.4564
19.2905
18.1779
17.1166
16.1044
15.1394
14.2194
13.3426
12.5068
11.7103
10.9511
10.2272
9.53692
8.87833
8.24966
7.64916
7.0751
6.52578
5.99954
5.49473
5.00975
4.54301
4.09295
3.65804
3.23678
2.82766
2.42921
2.03997
1.65851
1.2834
0.913203
0.546519
0.181939
168.418
172.409
175.643
178.172
180.043
181.304
181.998
182.17
181.86
181.107
179.949
178.421
176.557
174.39
171.949
169.264
166.361
163.267
160.005
156.597
153.066
149.431
145.711
141.922
138.081
134.202
130.301
126.388
122.476
118.575
114.696
110.847
107.036
103.271
99.5574
95.902
92.3096
88.7849
85.3317
81.9535
78.6532
75.4332
72.2956
69.2418
66.273
63.3901
60.5936
57.8837
55.2603
52.7231
50.2715
47.9047
45.6219
43.4218
41.3032
39.2647
37.3048
35.4217
33.6139
31.8794
30.2164
28.623
27.0972
25.6369
24.2402
22.905
21.6292
20.4107
19.2474
18.1373
17.0784
16.0685
15.1056
14.1877
13.3128
12.4789
11.6842
10.9266
10.2044
9.51562
8.8585
8.23124
7.63208
7.0593
6.51121
5.98614
5.48246
4.99856
4.53286
4.08381
3.64988
3.22955
2.82134
2.42378
2.03542
1.65481
1.28053
0.911164
0.545299
0.181533
167.999
171.98
175.207
177.729
179.596
180.853
181.546
181.717
181.408
180.657
179.502
177.978
176.119
173.957
171.522
168.843
165.948
162.861
159.607
156.208
152.686
149.06
145.348
141.569
137.738
133.869
129.977
126.074
122.171
118.281
114.411
110.571
106.77
103.014
99.31
95.6637
92.0803
88.5643
85.1197
81.7499
78.4578
75.2458
72.1159
69.0697
66.1083
63.2326
60.4431
57.7399
55.123
52.5921
50.1466
47.7857
45.5085
43.3139
41.2006
39.1671
37.2121
35.3337
33.5303
31.8002
30.1413
28.5519
27.0298
25.5732
24.18
22.8481
21.5754
20.36
19.1996
18.0923
17.0359
16.0285
15.068
14.1524
13.2797
12.4479
11.6551
10.8995
10.179
9.49198
8.83649
8.21079
7.61312
7.04176
6.49503
5.97127
5.46884
4.98614
4.5216
4.07366
3.64081
3.22153
2.81433
2.41776
2.03036
1.6507
1.27735
0.9089
0.543944
0.181082
167.539
171.51
174.727
177.243
179.104
180.358
181.049
181.22
180.911
180.162
179.01
177.49
175.637
173.48
171.053
168.381
165.494
162.415
159.17
155.78
152.268
148.652
144.951
141.182
137.361
133.502
129.621
125.729
121.837
117.957
114.098
110.269
106.478
102.732
99.0381
95.4018
91.8282
88.3218
84.8866
81.5261
78.243
75.0398
71.9185
68.8806
65.9273
63.0595
60.2776
57.5818
54.9721
52.4481
50.0093
47.6549
45.3839
43.1953
41.0878
39.0599
37.1102
35.237
33.4385
31.7131
30.0588
28.4737
26.9558
25.5032
24.1138
22.7855
21.5164
20.3042
19.147
18.0427
16.9893
15.9846
15.0268
14.1137
13.2433
12.4138
11.6232
10.8696
10.1512
9.466
8.8123
8.18831
7.59228
7.02248
6.47725
5.95492
5.45387
4.97249
4.50922
4.06251
3.63084
3.21271
2.80663
2.41114
2.0248
1.64618
1.27385
0.906412
0.542455
0.180586
167.038
170.996
174.204
176.712
178.568
179.818
180.507
180.678
180.37
179.623
178.475
176.959
175.111
172.961
170.541
167.877
164.998
161.929
158.694
155.314
151.812
148.207
144.517
140.759
136.95
133.103
129.233
125.352
121.472
117.604
113.756
109.939
106.159
102.425
98.7418
95.1163
91.5534
88.0575
84.6326
81.2821
78.0089
74.8153
71.7033
68.6745
65.7301
62.8708
60.0972
57.4095
54.8076
52.2912
49.8596
47.5123
45.2481
43.0661
40.9648
38.943
36.9991
35.1315
33.3385
31.6182
29.9689
28.3885
26.8752
25.4269
24.0416
22.7173
21.452
20.2435
19.0897
17.9888
16.9385
15.9368
14.9818
14.0714
13.2037
12.3767
11.5885
10.8371
10.1208
9.43767
8.78594
8.16381
7.56956
7.00147
6.45787
5.9371
5.43755
4.95761
4.49573
4.05036
3.61998
3.20309
2.79823
2.40393
2.01875
1.64126
1.27004
0.9037
0.540832
0.180046
166.496
170.441
173.639
176.138
177.988
179.234
179.921
180.091
179.784
179.04
177.895
176.385
174.542
172.4
169.987
167.332
164.463
161.403
158.178
154.81
151.319
147.726
144.047
140.302
136.505
132.671
128.813
124.945
121.078
117.222
113.387
109.582
105.814
102.092
98.4211
94.8074
91.256
87.7715
84.3578
81.0181
77.7555
74.5723
71.4704
68.4515
65.5166
62.6666
59.902
57.2231
54.6296
52.1213
49.6977
47.358
45.1012
42.9262
40.8318
38.8166
36.879
35.0174
33.2302
31.5155
29.8715
28.2963
26.7879
25.3443
23.9635
22.6436
21.3823
20.1777
19.0278
17.9303
16.8835
15.8851
14.9332
14.0257
13.1608
12.3365
11.5508
10.8019
10.0879
9.40703
8.7574
8.1373
7.54498
6.97874
6.4369
5.91782
5.41989
4.94151
4.48113
4.0372
3.60822
3.19269
2.78914
2.39612
2.01219
1.63593
1.26592
0.900765
0.539076
0.179461
165.912
169.844
173.03
175.521
177.364
178.606
179.291
179.46
179.154
178.412
177.272
175.766
173.931
171.795
169.391
166.746
163.886
160.838
157.624
154.267
150.789
147.208
143.543
139.81
136.026
132.206
128.362
124.507
120.654
116.811
112.989
109.198
105.443
101.734
98.0761
94.4751
90.9362
87.4639
84.0621
80.7342
77.483
74.3109
71.2199
68.2115
65.2869
62.447
59.6921
57.0225
54.4381
51.9386
49.5235
47.192
44.9431
42.7757
40.6887
38.6805
36.7497
34.8947
33.1137
31.4051
29.7668
28.1971
26.694
25.2555
23.8796
22.5642
21.3074
20.107
18.9611
17.8675
16.8243
15.8294
14.8808
13.9766
13.1147
12.2933
11.5103
10.7641
10.0526
9.37405
8.72671
8.10878
7.51853
6.95428
6.41434
5.89708
5.40089
4.92419
4.46542
4.02306
3.59558
3.1815
2.77937
2.38772
2.00514
1.63019
1.26148
0.897609
0.537186
0.178832
165.287
169.204
172.379
174.86
176.697
177.934
178.616
178.784
178.48
177.741
176.604
175.105
173.276
171.149
168.753
166.118
163.269
160.232
157.031
153.687
150.221
146.654
143.002
139.284
135.514
131.708
127.879
124.039
120.199
116.371
112.564
108.787
105.047
101.351
97.7069
94.1195
90.5939
87.1346
83.7457
80.4303
77.1913
74.0312
70.9518
67.9548
65.0412
62.2119
59.4674
56.8078
54.2332
51.7431
49.3371
47.0143
44.7739
42.6147
40.5355
38.5349
36.6114
34.7633
32.9891
31.2868
29.6548
28.091
26.5935
25.1604
23.7897
22.4793
21.2272
20.0313
18.8897
17.8002
16.761
15.7698
14.8248
13.924
13.0653
12.247
11.467
10.7235
10.0147
9.33877
8.69386
8.07826
7.49024
6.9281
6.3902
5.87489
5.38057
4.90566
4.44862
4.00791
3.58204
3.16953
2.76891
2.37874
1.99759
1.62406
1.25673
0.89423
0.535165
0.178159
164.622
168.523
171.685
174.157
175.986
177.218
177.897
178.064
177.761
177.025
175.893
174.4
172.578
170.46
168.074
165.449
162.612
159.587
156.399
153.068
149.617
146.063
142.427
138.723
134.969
131.178
127.364
123.539
119.716
115.903
112.111
108.349
104.624
100.943
97.3136
93.7406
90.2292
86.7839
83.4086
80.1065
76.8806
73.7332
70.6662
67.6812
64.7794
61.9615
59.228
56.5792
54.0149
51.5349
49.1385
46.8251
44.5937
42.4432
40.3724
38.3798
36.464
34.6234
32.8563
31.1609
29.5354
27.9779
26.4865
25.0591
23.6939
22.3888
21.1417
19.9507
18.8137
17.7286
16.6935
15.7063
14.7651
13.8679
13.0127
12.1977
11.4209
10.6804
9.97443
9.30118
8.65887
8.04574
7.46009
6.90022
6.36448
5.85124
5.35891
4.88592
4.43071
3.99178
3.56763
3.15677
2.75776
2.36916
1.98955
1.61752
1.25168
0.890631
0.533011
0.177442
163.916
167.801
170.949
173.41
175.231
176.458
177.134
177.301
176.999
176.266
175.139
173.652
171.838
169.729
167.354
164.74
161.915
158.903
155.728
152.412
148.975
145.437
141.816
138.128
134.39
130.615
126.818
123.01
119.202
115.406
111.63
107.884
104.175
100.51
96.8964
93.3386
89.8423
86.4118
83.0509
79.763
76.5509
73.417
70.3632
67.391
64.5016
61.6958
58.974
56.3366
53.7833
51.3139
48.9278
46.6243
44.4025
42.2612
40.1992
38.2152
36.3077
34.475
32.7154
31.0273
29.4088
27.8579
26.3729
24.9517
23.5923
22.2928
21.0511
19.8651
18.733
17.6526
16.6219
15.639
14.7018
13.8085
12.9569
12.1454
11.3719
10.6346
9.93166
9.2613
8.62174
8.01125
7.4281
6.87063
6.33719
5.82615
5.33593
4.86497
4.41172
3.97467
3.55233
3.14324
2.74594
2.35901
1.98102
1.61058
1.24631
0.886812
0.530725
0.176682
163.17
167.037
170.17
172.62
174.433
175.654
176.327
176.494
176.193
175.464
174.342
172.862
171.056
168.956
166.592
163.99
161.178
158.179
155.019
151.718
148.297
144.775
141.17
137.499
133.778
130.021
126.24
122.45
118.659
114.88
111.122
107.393
103.701
100.053
96.4552
92.9136
89.4332
86.0183
82.6727
79.3998
76.2024
73.0827
70.0428
67.0842
64.2079
61.4149
58.7055
56.08
53.5384
51.0802
48.705
46.412
44.2003
42.0688
40.0162
38.0412
36.1423
34.318
32.5665
30.886
29.2749
27.7311
26.2528
24.8381
23.4849
22.1913
20.9552
19.7747
18.6477
17.5722
16.5462
15.5678
14.6349
13.7456
12.898
12.0901
11.3201
10.5862
9.88644
9.21913
8.58249
7.97477
7.39428
6.83935
6.30833
5.79963
5.31164
4.84282
4.39163
3.95657
3.53616
3.12893
2.73344
2.34826
1.972
1.60325
1.24063
0.882775
0.528309
0.175877
162.383
166.231
169.35
171.788
173.592
174.807
175.477
175.643
175.344
174.618
173.501
172.028
170.231
168.142
165.788
163.199
160.401
157.417
154.272
150.986
147.582
144.077
140.49
136.837
133.133
129.394
125.632
121.859
118.087
114.327
110.586
106.875
103.201
99.5704
95.9902
92.4657
89.0021
85.6036
82.2742
79.017
75.835
72.7304
69.7051
66.7608
63.8984
61.1188
58.4225
55.8097
53.2803
50.834
48.4702
46.1883
43.9872
41.866
39.8233
37.8578
35.9681
34.1525
32.4095
30.7371
29.1337
27.5974
26.1263
24.7183
23.3717
22.0843
20.8542
19.6794
18.5578
17.4875
16.4665
15.4927
14.5643
13.6793
12.8358
12.0318
11.2655
10.5351
9.83878
9.17469
8.54112
7.93633
7.35864
6.80638
6.27793
5.77167
5.28603
4.81947
4.37046
3.9375
3.51911
3.11384
2.72026
2.33694
1.9625
1.59552
1.23465
0.878519
0.525762
0.175029
161.557
165.385
168.488
170.913
172.708
173.918
174.584
174.749
174.451
173.729
172.618
171.152
169.365
167.286
164.944
162.368
159.584
156.616
153.486
150.218
146.83
143.343
139.774
136.14
132.455
128.735
124.992
121.239
117.486
113.745
110.023
106.331
102.675
99.0635
95.5015
91.995
88.549
85.1678
81.8553
78.6148
75.4489
72.3601
69.3503
66.4209
63.5731
60.8076
58.1251
55.5256
53.009
50.5752
48.2234
45.9531
43.7633
41.6528
39.6205
37.6651
35.785
33.9787
32.2445
30.5806
28.9854
27.4569
25.9932
24.5925
23.2527
21.9719
20.748
19.5792
18.4633
17.3985
16.3826
15.4139
14.4902
13.6097
12.7704
11.9706
11.2082
10.4815
9.7887
9.12799
8.49764
7.89593
7.32118
6.77173
6.24597
5.74229
5.25912
4.79494
4.34821
3.91745
3.5012
3.09799
2.70641
2.32505
1.95251
1.5874
1.22837
0.874047
0.523086
0.174138
160.69
164.498
167.584
169.997
171.782
172.985
173.648
173.811
173.515
172.797
171.692
170.234
168.456
166.388
164.06
161.498
158.728
155.775
152.663
149.412
146.043
142.575
139.025
135.41
131.745
128.045
124.322
120.589
116.856
113.134
109.433
105.761
102.125
98.5321
94.9892
91.5015
88.074
84.711
81.4163
78.1931
75.0442
71.972
68.9783
66.0646
63.2321
60.4815
57.8133
55.2277
52.7247
50.3039
47.9648
45.7066
43.5285
41.4294
39.408
37.4631
35.5931
33.7964
32.0715
30.4166
28.8299
27.3096
25.8538
24.4606
23.128
21.854
20.6367
19.4742
18.3643
17.3052
16.2948
15.3312
14.4125
13.5367
12.7019
11.9064
11.1481
10.4253
9.73619
9.07903
8.45206
7.85358
7.28191
6.73541
6.21247
5.71149
5.23092
4.76922
4.32489
3.89644
3.48242
3.08138
2.6919
2.31258
1.94203
1.57889
1.22178
0.869359
0.52028
0.173204
159.784
163.57
166.639
169.038
170.813
172.009
172.668
172.831
172.537
171.823
170.724
169.274
167.506
165.45
163.134
160.587
157.833
154.897
151.802
148.569
145.219
141.771
138.241
134.646
131.002
127.323
123.621
119.908
116.197
112.496
108.816
105.164
101.549
97.9765
94.4535
90.9855
87.5773
84.2333
80.9571
77.7521
74.621
71.5661
68.5893
65.692
62.8755
60.1404
57.4873
54.9163
52.4274
50.0202
47.6943
45.4489
43.2831
41.1958
39.1858
37.2518
35.3923
33.6058
31.8907
30.2451
28.6674
27.1556
25.708
24.3227
22.9976
21.7308
20.5204
19.3643
18.2607
17.2076
16.2029
15.2447
14.3312
13.4603
12.6303
11.8392
11.0852
10.3665
9.68129
9.02783
8.4044
7.80929
7.24085
6.69743
6.17743
5.67928
5.20142
4.74233
4.3005
3.87447
3.46278
3.064
2.67672
2.29954
1.93108
1.56998
1.21489
0.864457
0.517347
0.172228
158.838
162.602
165.653
168.038
169.802
170.991
171.646
171.808
171.516
170.806
169.714
168.273
166.515
164.471
162.169
159.636
156.899
153.98
150.904
147.69
144.36
140.932
137.423
133.849
130.227
126.569
122.889
119.199
115.509
111.831
108.172
104.542
100.948
97.3966
93.8945
90.447
87.059
83.7348
80.478
77.292
74.1794
71.1426
68.1834
65.3033
62.5034
59.7845
57.147
54.5913
52.1171
49.7242
47.412
45.1799
43.0269
40.952
38.9539
37.0313
35.1829
33.4069
31.7019
30.0661
28.4977
26.9949
25.5559
24.1787
22.8615
21.6022
20.3989
19.2497
18.1527
17.1057
16.107
15.1545
14.2464
13.3807
12.5556
11.7691
11.0196
10.3052
9.624
8.97441
8.35466
7.76308
7.198
6.6578
6.14088
5.64567
5.17064
4.71426
4.27505
3.85154
3.44229
3.04587
2.66088
2.28593
1.91965
1.56069
1.2077
0.859342
0.514285
0.171208
157.853
161.594
164.626
166.996
168.75
169.931
170.582
170.743
170.452
169.747
168.661
167.229
165.483
163.451
161.164
158.647
155.926
153.026
149.968
146.774
143.465
140.058
136.571
133.019
129.419
125.784
122.127
118.46
114.793
111.137
107.501
103.894
100.322
96.7927
93.3124
89.8863
86.5192
83.2156
79.979
76.8127
73.7195
70.7015
67.7606
64.8984
62.1158
59.4138
56.7927
54.2528
51.794
49.4159
47.1181
44.8998
42.7601
40.6981
38.7124
36.8017
34.9647
33.1998
31.5054
29.8797
28.321
26.8276
25.3974
24.0288
22.7197
21.4682
20.2725
19.1304
18.0401
16.9997
16.0071
15.0606
14.1581
13.2977
12.4777
11.6962
10.9513
10.2413
9.56433
8.91877
8.30286
7.71495
7.15337
6.61652
6.10281
5.61067
5.13858
4.68504
4.24855
3.82766
3.42095
3.02698
2.64438
2.27176
1.90775
1.55102
1.20021
0.854014
0.511097
0.170147
156.83
160.546
163.558
165.913
167.655
168.829
169.476
169.636
169.347
168.646
167.567
166.145
164.409
162.391
160.118
157.618
154.915
152.033
148.995
145.822
142.534
139.149
135.685
132.157
128.58
124.969
121.335
117.692
114.049
110.417
106.804
103.22
99.6713
96.165
92.7072
89.3033
85.9581
82.6759
79.4603
76.3146
73.2414
70.2429
67.3212
64.4775
61.713
59.0285
56.4244
53.9009
51.4581
49.0954
46.8125
44.6086
42.4828
40.4341
38.4613
36.5631
34.738
32.9845
31.301
29.6859
28.1373
26.6536
25.2327
23.873
22.5724
21.329
20.141
19.0063
17.9231
16.8894
15.9033
14.9629
14.0662
13.2115
12.3968
11.6203
10.8803
10.1748
9.50231
8.86093
8.24902
7.66491
7.10698
6.57361
6.06323
5.57429
5.10526
4.65465
4.221
3.80284
3.39876
3.00735
2.62723
2.25703
1.89538
1.54096
1.19243
0.848476
0.507782
0.169044
155.767
159.458
162.45
164.789
166.519
167.685
168.328
168.486
168.2
167.503
166.432
165.019
163.296
161.291
159.034
156.55
153.865
151.003
147.986
144.835
141.569
138.207
134.766
131.261
127.709
124.122
120.513
116.894
113.276
109.669
106.081
102.521
98.996
95.5135
92.0791
88.6983
85.3758
82.1158
78.922
75.7976
72.7452
69.7671
66.8651
64.0407
61.2949
58.6286
56.0421
53.5358
51.1094
48.7628
46.4954
44.3064
42.195
40.1602
38.2008
36.3154
34.5026
32.7611
31.089
29.4848
27.9467
26.473
25.0618
23.7112
22.4195
21.1845
20.0045
18.8776
17.8017
16.775
15.7956
14.8615
13.9709
13.122
12.3128
11.5416
10.8066
10.1059
9.43793
8.8009
8.19314
7.61299
7.05884
6.52908
6.02216
5.53652
5.07068
4.62312
4.1924
3.77708
3.37574
2.98698
2.60944
2.24174
1.88254
1.53052
1.18435
0.842728
0.504342
0.167899
154.666
158.331
161.302
163.624
165.342
166.5
167.138
167.296
167.011
166.32
165.256
163.853
162.141
160.151
157.91
155.444
152.778
149.936
146.94
143.811
140.568
137.23
133.813
130.334
126.806
123.245
119.661
116.068
112.475
108.893
105.331
101.796
98.2964
94.8385
91.4284
88.0714
84.7724
81.5354
78.3642
75.2619
72.231
69.274
66.3925
63.5881
60.8617
58.2142
55.6461
53.1574
50.7482
48.4182
46.1667
43.9932
41.8968
39.8764
37.9308
36.0587
34.2588
32.5295
30.8693
29.2764
27.7492
26.2859
24.8847
23.5437
22.261
21.0348
19.8632
18.7442
17.6759
16.6565
15.684
14.7565
13.8722
13.0293
12.2258
11.46
10.7302
10.0345
9.37123
8.7387
8.13524
7.55919
7.00895
6.48294
5.9796
5.4974
5.03484
4.59045
4.16277
3.75039
3.35188
2.96587
2.59099
2.22589
1.86924
1.5197
1.17598
0.836772
0.500778
0.166712
153.527
157.165
160.114
162.419
164.125
165.274
165.907
166.064
165.781
165.095
164.039
162.646
160.947
158.972
156.747
154.299
151.653
148.832
145.858
142.752
139.533
136.219
132.828
129.374
125.872
122.337
118.78
115.213
111.647
108.091
104.555
101.046
97.5725
94.14
90.755
87.4228
84.1481
80.935
77.7871
74.7076
71.6991
68.7638
65.9036
63.1198
60.4135
57.7855
55.2363
52.7659
50.3745
48.0616
45.8268
43.6693
41.5882
39.5827
37.6514
35.7932
34.0065
32.29
30.6419
29.0608
27.5449
26.0923
24.7014
23.3703
22.0971
20.8799
19.7169
18.6061
17.5457
16.5338
15.5684
14.6478
13.7701
12.9333
12.1358
11.3756
10.6512
9.9606
9.30222
8.67435
8.07533
7.50352
6.95733
6.4352
5.93556
5.45691
4.99776
4.55664
4.13212
3.72277
3.3272
2.94403
2.57191
2.2095
1.85547
1.50851
1.16732
0.83061
0.497091
0.165484
152.35
155.961
158.887
161.174
162.867
164.007
164.635
164.791
164.51
163.829
162.781
161.399
159.713
157.753
155.545
153.116
150.49
147.691
144.74
141.658
138.463
135.175
131.809
128.382
124.908
121.399
117.87
114.33
110.791
107.263
103.754
100.272
96.8245
93.4183
90.0593
86.7526
83.503
80.3145
77.1908
74.1349
71.1495
68.2367
65.3983
62.6359
59.9504
57.3425
54.8128
52.3614
49.9883
47.6932
45.4754
43.3345
41.2694
39.2793
37.3628
35.5188
33.7458
32.0424
30.407
28.838
27.3337
25.8923
24.5121
23.1911
21.9277
20.7198
19.5657
18.4635
17.4112
16.407
15.4491
14.5355
13.6645
12.8342
12.0427
11.2884
10.5695
9.88425
9.23092
8.60786
8.01342
7.446
6.904
6.38587
5.89006
5.41508
4.95945
4.52172
4.10044
3.69423
3.30169
2.92147
2.5522
2.19257
1.84125
1.49695
1.15838
0.824243
0.49328
0.164216
151.136
154.717
157.62
159.889
161.568
162.699
163.323
163.477
163.199
162.523
161.484
160.113
158.44
156.495
154.305
151.895
149.29
146.513
143.586
140.528
137.359
134.097
130.759
127.359
123.912
120.431
116.93
113.419
109.908
106.408
102.927
99.4724
96.0526
92.6736
89.3414
86.061
82.8373
79.6743
76.5754
73.5439
70.5823
67.6927
64.877
62.1366
59.4724
56.8854
54.3759
51.944
49.5898
47.313
45.1129
42.989
40.9404
38.9661
37.0649
35.2356
33.4768
31.787
30.1646
28.6081
27.1158
25.6859
24.3167
23.0063
21.7529
20.5547
19.4098
18.3163
17.2724
16.2763
15.326
14.4197
13.5556
12.7319
11.9467
11.1985
10.4853
9.80545
9.15733
8.53924
7.94954
7.38665
6.84897
6.33496
5.84311
5.37192
4.91992
4.48567
4.06776
3.66478
3.27537
2.89818
2.53185
2.17509
1.82657
1.48502
1.14914
0.817673
0.489348
0.162907
149.884
153.436
156.314
158.565
160.23
161.352
161.97
162.123
161.847
161.177
160.146
158.787
157.128
155.199
153.027
150.637
148.054
145.3
142.397
139.364
136.222
132.987
129.676
126.304
122.885
119.434
115.961
112.479
108.998
105.526
102.074
98.6485
95.257
91.906
88.6014
85.3482
82.1512
79.0143
75.9412
72.9348
69.9976
67.132
64.3396
61.6219
58.9798
56.4142
53.9255
51.5138
49.1791
46.9211
44.7393
42.633
40.6013
38.6434
36.7579
34.9438
33.1995
31.5237
29.9148
28.3712
26.8912
25.4732
24.1152
22.8157
21.5727
20.3844
19.249
18.1646
17.1294
16.1414
15.199
14.3002
13.4433
12.6264
11.8478
11.1057
10.3984
9.72424
9.08149
8.46851
7.8837
7.32547
6.79224
6.28249
5.79471
5.32743
4.87917
4.44852
4.03407
3.63443
3.24825
2.87417
2.51088
2.15707
1.81144
1.47272
1.13962
0.810901
0.485295
0.161558
148.595
152.116
154.97
157.201
158.852
159.964
160.577
160.729
160.455
159.791
158.769
157.421
155.777
153.865
151.711
149.342
146.781
144.051
141.172
138.166
135.05
131.843
128.561
125.218
121.829
118.407
114.964
111.512
108.06
104.619
101.196
97.8003
94.4379
91.1158
87.8395
84.6143
81.4448
78.3349
75.2882
72.3076
69.3958
66.5548
63.7864
61.092
58.4727
55.9291
53.4618
51.0708
48.7562
46.5176
44.3546
42.2664
40.2522
38.3111
36.4419
34.6433
32.9141
31.2526
29.6576
28.1272
26.66
25.2541
23.9079
22.6195
21.3872
20.2091
19.0835
18.0084
16.9821
16.0027
15.0683
14.1773
13.3277
12.5178
11.7459
11.0102
10.309
9.64063
9.0034
8.3957
7.81592
7.26248
6.73384
6.22848
5.74489
5.28162
4.83722
4.41027
3.99938
3.60318
3.22032
2.84946
2.4893
2.13853
1.79587
1.46006
1.12983
0.803929
0.481122
0.160168
147.27
150.76
153.588
155.799
157.435
158.538
159.145
159.295
159.024
158.366
157.353
156.017
154.387
152.492
150.358
148.01
145.472
142.766
139.913
136.934
133.846
130.667
127.414
124.101
120.742
117.351
113.939
110.517
107.097
103.686
100.294
96.9279
93.5956
90.303
87.056
83.8596
80.7183
77.6362
74.6166
71.6626
68.7768
65.9611
63.2174
60.5471
57.9511
55.4303
52.9849
50.6153
48.3213
46.1027
43.9589
41.8894
39.8932
37.9694
36.1168
34.3343
32.6205
30.9739
29.393
27.8764
26.4222
25.0289
23.6946
22.4178
21.1964
20.0289
18.9133
17.8478
16.8306
15.8599
14.9339
14.0508
13.2088
12.4062
11.6412
10.912
10.2171
9.55464
8.92309
8.32081
7.7462
7.1977
6.67378
6.17292
5.69365
5.23451
4.79407
4.37093
3.96371
3.57104
3.19159
2.82405
2.46709
2.11945
1.77985
1.44703
1.11975
0.796758
0.476831
0.15874
145.908
149.366
152.168
154.358
155.98
157.072
157.673
157.822
157.553
156.901
155.898
154.574
152.96
151.082
148.968
146.641
144.126
141.445
138.619
135.667
132.608
129.459
126.236
122.953
119.626
116.266
112.885
109.495
106.106
102.727
99.3663
96.0316
92.7301
89.468
86.251
83.0842
79.9719
76.9183
73.9267
71
68.1408
65.3512
62.6329
59.9872
57.4153
54.9177
52.495
50.1473
47.8745
45.6764
43.5525
41.502
39.5243
37.6183
35.7829
34.0168
32.3188
30.6875
29.1212
27.6186
26.1779
24.7974
23.4755
22.2105
21.0004
19.8437
18.7384
17.6827
16.675
15.7133
14.7958
13.9209
13.0867
12.2915
11.5335
10.8111
10.1226
9.46629
8.84058
8.24387
7.67458
7.13115
6.61207
6.11584
5.641
5.18611
4.74974
4.33052
3.92706
3.53802
3.16208
2.79793
2.44428
2.09985
1.76339
1.43365
1.10939
0.789391
0.472422
0.157272
144.51
147.935
150.71
152.88
154.485
155.567
156.163
156.31
156.044
155.398
154.404
153.094
151.494
149.635
147.54
145.236
142.746
140.09
137.291
134.368
131.338
128.219
125.026
121.775
118.48
115.152
111.804
108.446
105.09
101.743
98.4143
95.1116
91.8417
88.6109
85.4247
82.2882
79.2058
76.1814
73.2184
70.3198
67.488
64.7251
62.0329
59.4126
56.8652
54.3916
51.9921
49.6669
47.4159
45.2388
43.1352
41.1045
39.1457
37.2579
35.4401
33.6909
32.0092
30.3935
28.8423
27.354
25.9271
24.5599
23.2506
21.9977
20.7993
19.6536
18.5589
17.5133
16.5152
15.5627
14.6541
13.7875
12.9613
12.1737
11.423
10.7075
10.0256
9.37561
8.75589
8.1649
7.60106
7.06283
6.54873
6.05725
5.58696
5.13643
4.70424
4.28903
3.88944
3.50413
3.13179
2.77113
2.42087
2.07974
1.7465
1.41992
1.09877
0.781829
0.467897
0.155765
143.077
146.467
149.215
151.363
152.953
154.024
154.614
154.76
154.496
153.857
152.873
151.575
149.992
148.15
146.077
143.796
141.33
138.701
135.929
133.035
130.035
126.947
123.786
120.567
117.304
114.01
110.695
107.371
104.047
100.734
97.4381
94.1682
90.9307
87.7319
84.5774
81.472
78.4201
75.4257
72.4922
69.6223
66.8186
64.0831
61.4175
58.8232
56.3012
53.8521
51.4764
49.1742
46.9455
44.7901
42.7074
40.6967
38.7574
36.8883
35.0885
33.3568
31.6917
30.092
28.5562
27.0827
25.6699
24.3163
23.02
21.7795
20.5929
19.4586
18.3748
17.3396
16.3514
15.4084
14.5087
13.6508
12.8328
12.053
11.3097