/*--------------------------------*- C++ -*----------------------------------*\
| =========                 |                                                 |
| \\      /  F ield         | OpenFOAM: The Open Source CFD Toolbox           |
|  \\    /   O peration     | Version:  2406                                  |
|   \\  /    A nd           | Website:  www.openfoam.com                      |
|    \\/     M anipulation  |                                                 |
\*---------------------------------------------------------------------------*/
FoamFile
{
    version     2.0;
    format      ascii;
    arch        "LSB;label=32;scalar=64";
    class       volScalarField;
    location    "180";
    object      gradTy;
}
// * * * * * * * * * * * * * * * * * * * * * * * * * * * * * * * * * * * * * //

dimensions      [0 -1 0 1 0 0 0];

internalField   nonuniform List<scalar> 
20000
(
-218.522
-209.218
-199.88
-190.541
-181.233
-171.986
-162.826
-153.774
-144.856
-136.088
-127.489
-119.073
-110.855
-102.846
-95.057
-87.4955
-80.1691
-73.0836
-66.2437
-59.653
-53.3138
-47.2275
-41.3945
-35.8145
-30.4862
-25.4079
-20.5768
-15.9901
-11.644
-7.53449
-3.65704
-0.006787
3.42146
6.63318
9.63409
12.4301
15.0273
17.4319
19.6502
21.6887
23.5537
25.2516
26.789
28.1723
29.4079
30.502
31.461
32.291
32.998
33.588
34.0669
34.4402
34.7136
34.8924
34.9819
34.9871
34.9129
34.7642
34.5454
34.2611
33.9153
33.5123
33.0558
32.5496
31.9972
31.4021
30.7674
30.0962
29.3914
28.6557
27.8917
27.1018
26.2883
25.4534
24.599
23.727
22.8392
21.9371
21.0222
20.096
19.1597
18.2145
17.2613
16.3013
15.3352
14.3638
13.3879
12.4081
11.425
10.439
9.45066
8.46031
7.4683
6.47492
5.48045
4.4851
3.48907
2.49254
1.49566
0.498575
-218.468
-209.167
-199.83
-190.494
-181.189
-171.944
-162.785
-153.737
-144.82
-136.054
-127.457
-119.044
-110.828
-102.821
-95.0336
-87.4739
-80.1493
-73.0655
-66.2274
-59.6383
-53.3006
-47.2158
-41.3843
-35.8057
-30.4787
-25.4016
-20.5718
-15.9862
-11.6411
-7.53263
-3.65614
-0.00678498
3.42062
6.63155
9.63171
12.427
15.0236
17.4276
19.6454
21.6833
23.5478
25.2454
26.7824
28.1654
29.4006
30.4945
31.4532
32.283
32.9899
33.5797
34.0585
34.4317
34.705
34.8838
34.9732
34.9784
34.9043
34.7556
34.5369
34.2526
33.907
33.504
33.0476
32.5415
31.9893
31.3943
30.7598
30.0888
29.3841
28.6486
27.8848
27.0951
26.2818
25.4471
24.5929
23.7211
22.8335
21.9317
21.017
20.0911
19.155
18.21
17.2571
16.2972
15.3314
14.3603
13.3846
12.4051
11.4222
10.4364
9.44833
8.45822
7.46645
6.47333
5.4791
4.48399
3.48821
2.49192
1.49529
0.498452
-218.36
-209.063
-199.732
-190.4
-181.1
-171.859
-162.705
-153.661
-144.749
-135.987
-127.394
-118.985
-110.773
-102.77
-94.9867
-87.4307
-80.1097
-73.0294
-66.1946
-59.6088
-53.2743
-47.1926
-41.3639
-35.788
-30.4637
-25.3891
-20.5616
-15.9783
-11.6354
-7.52891
-3.65433
-0.00677892
3.41893
6.62828
9.62696
12.4209
15.0162
17.419
19.6357
21.6726
23.5362
25.2329
26.7692
28.1515
29.3861
30.4794
31.4377
32.2671
32.9736
33.5632
34.0417
34.4147
34.6879
34.8666
34.956
34.9612
34.8871
34.7385
34.5199
34.2357
33.8902
33.4875
33.0313
32.5255
31.9735
31.3789
30.7446
30.0739
29.3696
28.6345
27.871
27.0817
26.2689
25.4345
24.5808
23.7094
22.8222
21.9208
21.0067
20.0812
19.1455
18.201
17.2485
16.2892
15.3238
14.3532
13.378
12.3989
11.4165
10.4313
9.44367
8.45405
7.46277
6.47013
5.47639
4.48178
3.48649
2.49069
1.49455
0.498206
-218.199
-208.908
-199.584
-190.259
-180.965
-171.732
-162.584
-153.547
-144.641
-135.886
-127.3
-118.897
-110.691
-102.694
-94.9163
-87.3659
-80.0503
-72.9753
-66.1456
-59.5647
-53.2349
-47.1576
-41.3333
-35.7615
-30.4411
-25.3703
-20.5464
-15.9664
-11.6268
-7.52333
-3.65162
-0.00676959
3.4164
6.62337
9.61984
12.4117
15.0051
17.4061
19.6212
21.6566
23.5188
25.2143
26.7494
28.1306
29.3644
30.4569
31.4144
32.2432
32.9492
33.5383
34.0164
34.3892
34.6622
34.8407
34.9301
34.9353
34.8613
34.7127
34.4943
34.2104
33.8651
33.4627
33.0068
32.5014
31.9499
31.3556
30.7219
30.0517
29.3479
28.6133
27.8504
27.0617
26.2494
25.4157
24.5626
23.6919
22.8053
21.9046
20.9911
20.0663
19.1314
18.1875
17.2358
16.2771
15.3125
14.3425
13.3681
12.3897
11.4081
10.4236
9.43667
8.44779
7.45724
6.46534
5.47234
4.47846
3.4839
2.48885
1.49344
0.497837
-217.983
-208.702
-199.387
-190.071
-180.787
-171.562
-162.424
-153.395
-144.498
-135.752
-127.174
-118.78
-110.582
-102.593
-94.8225
-87.2796
-79.9712
-72.9032
-66.0803
-59.5059
-53.1823
-47.1111
-41.2925
-35.7262
-30.4111
-25.3452
-20.5261
-15.9507
-11.6153
-7.5159
-3.64801
-0.00676122
3.41303
6.61683
9.61034
12.3995
14.9903
17.3889
19.6018
21.6352
23.4956
25.1893
26.723
28.1028
29.3353
30.4268
31.3834
32.2113
32.9166
33.5052
33.9828
34.3553
34.628
34.8063
34.8956
34.9008
34.8268
34.6785
34.4602
34.1766
33.8317
33.4296
32.9742
32.4693
31.9183
31.3246
30.6915
30.022
29.3189
28.585
27.8229
27.035
26.2235
25.3906
24.5383
23.6685
22.7828
21.883
20.9704
20.0465
19.1125
18.1695
17.2187
16.261
15.2973
14.3284
13.3549
12.3775
11.3968
10.4133
9.42735
8.43944
7.44988
6.45895
5.46693
4.47404
3.48046
2.48639
1.49197
0.497345
-217.714
-208.444
-199.14
-189.836
-180.563
-171.35
-162.223
-153.206
-144.32
-135.585
-127.017
-118.633
-110.445
-102.466
-94.7053
-87.1717
-79.8724
-72.8132
-65.9987
-59.4324
-53.1166
-47.0529
-41.2415
-35.6821
-30.3735
-25.3139
-20.5007
-15.9309
-11.6009
-7.50661
-3.6435
-0.00675009
3.40882
6.60866
9.59847
12.3841
14.9717
17.3674
19.5776
21.6085
23.4665
25.1582
26.69
28.0681
29.2991
30.3892
31.3446
32.1715
32.8759
33.4638
33.9409
34.3128
34.5852
34.7633
34.8525
34.8576
34.7838
34.6356
34.4177
34.1343
33.7899
33.3883
32.9335
32.4292
31.8789
31.2859
30.6536
29.9849
29.2827
28.5497
27.7885
27.0015
26.1911
25.3592
24.508
23.6392
22.7547
21.8559
20.9445
20.0217
19.0888
18.1471
17.1975
16.241
15.2784
14.3107
13.3384
12.3622
11.3827
10.4004
9.4157
8.42901
7.44067
6.45097
5.46018
4.46851
3.47616
2.48332
1.49012
0.49673
-217.391
-208.135
-198.845
-189.555
-180.295
-171.096
-161.982
-152.978
-144.106
-135.383
-126.829
-118.457
-110.281
-102.314
-94.5648
-87.0424
-79.7539
-72.7051
-65.9007
-59.3442
-53.0378
-46.9831
-41.1803
-35.6291
-30.3284
-25.2763
-20.4703
-15.9073
-11.5837
-7.49546
-3.63809
-0.00673488
3.40376
6.59886
9.58423
12.3658
14.9495
17.3417
19.5485
21.5764
23.4317
25.1209
26.6504
28.0265
29.2556
30.3441
31.2981
32.1238
32.8272
33.4141
33.8905
34.2619
34.5339
34.7117
34.8007
34.8059
34.7322
34.5842
34.3666
34.0837
33.7397
33.3388
32.8846
32.3811
31.8316
31.2395
30.6081
29.9404
29.2392
28.5073
27.7473
26.9615
26.1522
25.3216
24.4716
23.6041
22.7209
21.8235
20.9134
19.992
19.0605
18.1202
17.1719
16.2169
15.2558
14.2894
13.3186
12.3439
11.3658
10.385
9.40173
8.41651
7.42963
6.4414
5.45207
4.46188
3.471
2.47963
1.48791
0.495993
-217.014
-207.774
-198.5
-189.226
-179.983
-170.799
-161.702
-152.713
-143.856
-135.149
-126.609
-118.252
-110.09
-102.137
-94.4009
-86.8916
-79.6157
-72.5791
-65.7866
-59.2414
-52.946
-46.9017
-41.109
-35.5674
-30.2759
-25.2325
-20.4348
-15.8797
-11.5636
-7.48247
-3.63178
-0.00671998
3.39787
6.58743
9.56763
12.3443
14.9236
17.3116
19.5147
21.539
23.3911
25.0774
26.6042
27.9779
29.2049
30.2915
31.2439
32.0681
32.7703
33.3562
33.8318
34.2025
34.474
34.6516
34.7404
34.7456
34.672
34.5243
34.307
34.0246
33.6813
33.281
32.8277
32.325
31.7764
31.1854
30.5551
29.8885
29.1886
28.4579
27.6992
26.9148
26.1069
25.2777
24.4292
23.5632
22.6815
21.7857
20.8772
19.9573
19.0275
18.0888
17.1422
16.1888
15.2293
14.2647
13.2955
12.3225
11.3461
10.367
9.38544
8.40192
7.41676
6.43024
5.44263
4.45415
3.46499
2.47534
1.48534
0.495134
-216.584
-207.363
-198.107
-188.851
-179.626
-170.461
-161.381
-152.411
-143.571
-134.881
-126.358
-118.017
-109.872
-101.934
-94.2138
-86.7193
-79.4579
-72.4353
-65.6562
-59.1239
-52.841
-46.8087
-41.0275
-35.4969
-30.2159
-25.1825
-20.3943
-15.8483
-11.5407
-7.46764
-3.62458
-0.00670337
3.39114
6.57437
9.54866
12.3199
14.894
17.2773
19.476
21.4963
23.3448
25.0277
26.5514
27.9225
29.1471
30.2315
31.182
32.0046
32.7053
33.2901
33.7647
34.1347
34.4057
34.5829
34.6716
34.6767
34.6033
34.4558
34.239
33.9572
33.6145
33.215
32.7626
32.2609
31.7134
31.1236
30.4945
29.8293
29.1307
28.4015
27.6443
26.8614
26.0551
25.2276
24.3808
23.5165
22.6366
21.7425
20.8358
19.9178
18.9898
18.0529
17.1082
16.1567
15.1991
14.2364
13.2692
12.2981
11.3236
10.3464
9.36683
8.38526
7.40205
6.41749
5.43184
4.44531
3.45812
2.47043
1.48239
0.494152
-216.1
-206.899
-197.664
-188.429
-179.225
-170.08
-161.021
-152.07
-143.25
-134.58
-126.076
-117.754
-109.627
-101.707
-94.0034
-86.5256
-79.2804
-72.2735
-65.5095
-58.9919
-52.723
-46.7042
-40.9358
-35.4176
-30.1484
-25.1263
-20.3488
-15.8129
-11.5149
-7.45096
-3.61648
-0.00668418
3.38357
6.55969
9.52734
12.2924
14.8608
17.2387
19.4325
21.4483
23.2926
24.9718
26.4921
27.8601
29.082
30.164
31.1123
31.9331
32.6323
33.2158
33.6893
34.0585
34.3289
34.5057
34.5941
34.5993
34.526
34.3789
34.1626
33.8814
33.5394
33.1408
32.6894
32.1888
31.6426
31.0541
30.4264
29.7626
29.0656
28.3381
27.5826
26.8014
25.997
25.1713
24.3263
23.464
22.586
21.6939
20.7892
19.8733
18.9474
18.0126
17.07
16.1206
15.1652
14.2046
13.2395
12.2706
11.2984
10.3233
9.34592
8.36654
7.38552
6.40316
5.41971
4.43539
3.4504
2.46491
1.47908
0.493049
-215.563
-206.385
-197.173
-187.961
-178.78
-169.658
-160.621
-151.692
-142.894
-134.245
-125.762
-117.461
-109.354
-101.454
-93.7698
-86.3106
-79.0834
-72.0939
-65.3468
-58.8454
-52.592
-46.5881
-40.8341
-35.3296
-30.0735
-25.0638
-20.2982
-15.7736
-11.4863
-7.43244
-3.60749
-0.00666416
3.37516
6.5434
9.50367
12.2618
14.8239
17.1959
19.3842
21.395
23.2347
24.9097
26.4263
27.7909
29.0097
30.089
31.035
31.8537
32.5512
33.1332
33.6056
33.9739
34.2436
34.4199
34.5082
34.5133
34.4402
34.2935
34.0777
33.7972
33.4561
33.0585
32.6082
32.1088
31.564
30.9769
30.3508
29.6887
28.9934
28.2677
27.514
26.7348
25.9324
25.1087
24.2659
23.4057
22.5299
21.64
20.7376
19.8239
18.9003
17.9678
17.0276
16.0805
15.1275
14.1693
13.2066
12.2401
11.2703
10.2977
9.32269
8.34575
7.36717
6.38725
5.40624
4.42437
3.44182
2.45879
1.4754
0.491824
-214.973
-205.82
-196.634
-187.446
-178.29
-169.193
-160.181
-151.277
-142.503
-133.878
-125.418
-117.139
-109.055
-101.176
-93.5131
-86.0744
-78.8669
-71.8966
-65.1679
-58.6843
-52.448
-46.4606
-40.7223
-35.2329
-29.9912
-24.9952
-20.2427
-15.7304
-11.4549
-7.41209
-3.59761
-0.00664311
3.36593
6.52549
9.47766
12.2283
14.7833
17.1488
19.3311
21.3365
23.1711
24.8415
26.354
27.7148
28.9303
30.0066
30.95
31.7665
32.4621
33.0425
33.5136
33.8809
34.1498
34.3257
34.4137
34.4188
34.3459
34.1996
33.9844
33.7046
33.3645
32.968
32.5189
32.0209
31.4775
30.8921
30.2677
29.6074
28.914
28.1903
27.4387
26.6616
25.8614
25.04
24.1995
23.3416
22.4682
21.5808
20.6808
19.7696
18.8485
17.9186
16.981
16.0365
15.0861
14.1305
13.1705
12.2066
11.2394
10.2695
9.29717
8.3229
7.347
6.36976
5.39144
4.41225
3.4324
2.45205
1.47137
0.490477
-214.33
-205.205
-196.045
-186.886
-177.757
-168.687
-159.702
-150.825
-142.077
-133.477
-125.043
-116.789
-108.729
-100.873
-93.2333
-85.8168
-78.631
-71.6815
-64.9729
-58.5087
-52.2911
-46.3216
-40.6005
-35.1275
-29.9014
-24.9204
-20.1821
-15.6833
-11.4206
-7.38991
-3.58684
-0.00661972
3.35586
6.50596
9.4493
12.1917
14.7391
17.0975
19.2733
21.2726
23.1018
24.7672
26.2751
27.6319
28.8437
29.9169
30.8574
31.6715
32.365
32.9437
33.4133
33.7795
34.0476
34.223
34.3107
34.3158
34.2431
34.0973
33.8827
33.6038
33.2647
32.8693
32.4216
31.9251
31.3834
30.7997
30.1771
29.5188
28.8275
28.1059
27.3566
26.5819
25.784
24.9651
24.127
23.2718
22.401
21.5162
20.6189
19.7105
18.7921
17.865
16.9302
15.9885
15.0409
14.0882
13.1311
12.1701
11.2058
10.2387
9.26935
8.298
7.32502
6.3507
5.3753
4.39905
3.42213
2.44472
1.46696
0.489009
-213.634
-204.538
-195.408
-186.279
-177.179
-168.139
-159.183
-150.335
-141.615
-133.044
-124.637
-116.41
-108.375
-100.546
-92.9305
-85.5381
-78.3756
-71.4487
-64.7619
-58.3187
-52.1213
-46.1711
-40.4686
-35.0134
-29.8043
-24.8395
-20.1165
-15.6324
-11.3835
-7.3659
-3.57519
-0.00659388
3.34496
6.48484
9.41862
12.1521
14.6912
17.042
19.2107
21.2035
23.0268
24.6868
26.1898
27.5421
28.75
29.8197
30.7572
31.5686
32.2598
32.8367
33.3048
33.6698
33.937
34.1118
34.1993
34.2044
34.1319
33.9865
33.7727
33.4946
33.1566
32.7626
32.3163
31.8214
31.2814
30.6996
30.0791
29.4229
28.7339
28.0146
27.2677
26.4955
25.7002
24.884
24.0487
23.1962
22.3282
21.4463
20.552
19.6465
18.7311
17.807
16.8752
15.9366
14.9921
14.0425
13.0884
12.1305
11.1694
10.2055
9.23924
8.27104
7.30122
6.33007
5.35785
4.38476
3.41102
2.43678
1.4622
0.487421
-212.885
-203.821
-194.724
-185.626
-176.558
-167.55
-158.625
-149.808
-141.119
-132.577
-124.2
-116.002
-107.996
-100.193
-92.6048
-85.2383
-78.1009
-71.1982
-64.5349
-58.1142
-51.9386
-46.0093
-40.3268
-34.8907
-29.6998
-24.7524
-20.046
-15.5776
-11.3436
-7.34008
-3.56265
-0.00656655
3.33324
6.46211
9.38561
12.1095
14.6397
16.9823
19.1434
21.1292
22.9461
24.6002
26.098
27.4456
28.6493
29.7152
30.6494
31.458
32.1468
32.7216
33.1881
33.5518
33.8181
33.9923
34.0794
34.0845
34.0123
33.8674
33.6543
33.3772
33.0404
32.6477
32.203
31.7099
31.1718
30.592
29.9737
29.3198
28.6332
27.9165
27.1722
26.4026
25.6102
24.7967
23.9644
23.1149
22.25
21.3712
20.4799
19.5776
18.6654
17.7446
16.816
15.8807
14.9395
13.9933
13.0425
12.088
11.1302
10.1697
9.20686
8.24205
7.27563
6.30789
5.33907
4.36939
3.39906
2.42824
1.45707
0.485713
-212.084
-203.054
-193.991
-184.927
-175.894
-166.919
-158.028
-149.244
-140.588
-132.078
-123.732
-115.565
-107.589
-99.8162
-92.2562
-84.9175
-77.8069
-70.9302
-64.292
-57.8955
-51.7431
-45.8361
-40.175
-34.7594
-29.588
-24.6593
-19.9706
-15.5189
-11.3009
-7.31245
-3.54924
-0.00653854
3.3207
6.43779
9.35028
12.0639
14.5846
16.9183
19.0713
21.0497
22.8597
24.5076
25.9998
27.3423
28.5414
29.6033
30.5341
31.3396
32.0258
32.5984
33.0631
33.4255
33.6908
33.8643
33.9512
33.9562
33.8843
33.7399
33.5276
33.2516
32.916
32.5249
32.0818
31.5905
31.0545
30.4769
29.8609
29.2094
28.5254
27.8114
27.0699
26.3033
25.5137
24.7034
23.8742
23.0279
22.1662
21.2907
20.4028
19.5039
18.5952
17.6778
16.7527
15.8209
14.8833
13.9406
12.9934
12.0425
11.0883
10.1314
9.1722
8.21103
7.24825
6.28414
5.31897
4.35295
3.38626
2.41909
1.45159
0.483884
-211.23
-202.237
-193.21
-184.183
-175.186
-166.247
-157.392
-148.643
-140.022
-131.547
-123.234
-115.1
-107.156
-99.4144
-91.8849
-84.5757
-77.4937
-70.6447
-64.0332
-57.6625
-51.5348
-45.6516
-40.0133
-34.6194
-29.469
-24.56
-19.8902
-15.4565
-11.2554
-7.28301
-3.53495
-0.0065099
3.30734
6.41188
9.31265
12.0154
14.5259
16.8503
18.9946
20.965
22.7677
24.409
25.8951
27.2322
28.4266
29.4842
30.4112
31.2134
31.8969
32.4672
32.9301
33.2909
33.5552
33.728
33.8145
33.8195
33.7479
33.6041
33.3926
33.1178
32.7836
32.3939
31.9527
31.4634
30.9295
30.3542
29.7407
29.0919
28.4106
27.6994
26.9609
26.1974
25.4111
24.604
23.7781
22.9352
22.077
21.205
20.3207
19.4254
18.5203
17.6066
16.6853
15.7573
14.8234
13.8845
12.9411
11.994
11.0437
10.0907
9.13528
8.17798
7.21907
6.25885
5.29756
4.33542
3.37263
2.40936
1.44575
0.481937
-210.324
-201.369
-192.381
-183.393
-174.435
-165.534
-156.717
-148.006
-139.421
-130.983
-122.706
-114.606
-106.697
-98.9881
-91.4909
-84.213
-77.1614
-70.3418
-63.7586
-57.4152
-51.3138
-45.4559
-39.8417
-34.471
-29.3426
-24.4547
-19.8049
-15.3902
-11.2071
-7.25178
-3.51979
-0.0064802
3.29316
6.38439
9.27272
11.9638
14.4636
16.778
18.9131
20.8751
22.6701
24.3043
25.7841
27.1155
28.3047
29.3577
30.2807
31.0796
31.7601
32.328
32.7888
33.1482
33.4113
33.5834
33.6695
33.6745
33.6032
33.46
33.2495
32.9758
32.643
32.255
31.8157
31.3285
30.7968
30.224
29.6131
28.9671
28.2887
27.5806
26.8453
26.085
25.3021
24.4985
23.6761
22.8368
21.9823
21.1141
20.2336
19.3421
18.4409
17.5311
16.6137
15.6897
14.7598
13.8249
12.8856
11.9426
10.9964
10.0474
9.09611
8.14291
7.18811
6.23201
5.27484
4.31683
3.35817
2.39903
1.43955
0.47987
-209.367
-200.453
-191.505
-182.558
-173.64
-164.781
-156.003
-147.332
-138.787
-130.386
-122.147
-114.084
-106.211
-98.5374
-91.0743
-83.8296
-76.8101
-70.0215
-63.4683
-57.1538
-51.0802
-45.2489
-39.6603
-34.314
-29.209
-24.3433
-19.7147
-15.3201
-11.1561
-7.21876
-3.50376
-0.00644897
3.27816
6.35532
9.2305
11.9094
14.3977
16.7016
18.827
20.78
22.5668
24.1937
25.6667
26.992
28.1758
29.2241
30.1429
30.9381
31.6155
32.1808
32.6395
32.9972
33.2592
33.4305
33.5162
33.5212
33.4501
33.3076
33.0981
32.8256
32.4943
32.1082
31.6708
31.1858
30.6566
30.0864
29.4783
28.8352
28.1599
27.4551
26.7231
25.9663
25.1869
24.3869
23.5683
22.7329
21.8822
21.0179
20.1414
19.254
18.3569
17.4513
16.5381
15.6183
14.6926
13.762
12.827
11.8882
10.9463
10.0016
9.05469
8.10583
7.15538
6.20363
5.25082
4.29718
3.34288
2.3881
1.43299
0.477685
-208.357
-199.486
-190.582
-181.678
-172.803
-163.986
-155.251
-146.622
-138.118
-129.758
-121.558
-113.534
-105.699
-98.0624
-90.6353
-83.4254
-76.4398
-69.684
-63.1624
-56.8783
-50.8339
-45.0308
-39.4691
-34.1486
-29.0682
-24.226
-19.6197
-15.2463
-11.1023
-7.18396
-3.48687
-0.00641608
3.26236
6.32468
9.186
11.852
14.3283
16.6211
18.7362
20.6798
22.4581
24.077
25.5429
26.8619
28.0399
29.0832
29.9976
30.7889
31.4631
32.0256
32.4822
32.8382
33.0988
33.2693
33.3546
33.3596
33.2889
33.1471
32.9385
32.6673
32.3377
31.9534
31.5181
31.0355
30.5088
29.9414
29.3362
28.6962
28.0242
27.3227
26.5942
25.8411
25.0654
24.2693
23.4547
22.6233
21.7767
20.9166
20.0443
19.1612
18.2685
17.3672
16.4584
15.543
14.6218
13.6956
12.7651
11.8309
10.8935
9.95342
9.01104
8.06675
7.12089
6.17372
5.22551
4.27646
3.32676
2.37659
1.42608
0.475382
-207.297
-198.471
-189.612
-180.753
-171.924
-163.151
-154.461
-145.875
-137.414
-129.097
-120.94
-112.956
-105.161
-97.5632
-90.1738
-83.0007
-76.0507
-69.3292
-62.8408
-56.5887
-50.5752
-44.8015
-39.2682
-33.9748
-28.9202
-24.1026
-19.5198
-15.1686
-11.0458
-7.14738
-3.46912
-0.00638162
3.24575
6.29249
9.13923
11.7916
14.2554
16.5365
18.6408
20.5746
22.3437
23.9545
25.4129
26.7251
27.8972
28.9351
29.8448
30.6322
31.3029
31.8626
32.3168
32.671
32.9303
33.0999
33.1848
33.1897
33.1194
32.9783
32.7708
32.501
32.1731
31.7907
31.3577
30.8775
30.3535
29.7889
29.1868
28.5501
27.8815
27.1836
26.4588
25.7095
24.9378
24.1458
23.3353
22.5081
21.6659
20.8101
19.9423
19.0637
18.1754
17.2787
16.3746
15.4638
14.5474
13.6259
12.7001
11.7707
10.8381
9.90274
8.96516
8.02568
7.08463
6.14229
5.19891
4.25469
3.30983
2.36449
1.41882
0.472962
-206.185
-197.406
-188.595
-179.783
-171.001
-162.276
-153.632
-145.093
-136.677
-128.405
-120.291
-112.351
-104.597
-97.0399
-89.6902
-82.5555
-75.6427
-68.9574
-62.5037
-56.2852
-50.3039
-44.5612
-39.0575
-33.7925
-28.7651
-23.9734
-19.4151
-15.0873
-10.9865
-7.10904
-3.45051
-0.00634582
3.22835
6.25874
9.09021
11.7284
14.1789
16.4478
18.5409
20.4642
22.2239
23.826
25.2766
26.5818
27.7476
28.7799
29.6848
30.4679
31.135
31.6917
32.1435
32.4957
32.7537
32.9224
33.0068
33.0117
32.9418
32.8014
32.595
32.3267
32.0005
31.6202
31.1895
30.7118
30.1907
29.6291
29.0303
28.397
27.732
27.0378
26.3169
25.5716
24.8041
24.0163
23.2101
22.3874
21.5496
20.6985
19.8353
18.9614
18.078
17.1861
16.2867
15.3809
14.4693
13.5528
12.632
11.7075
10.7799
9.84963
8.91707
7.98264
7.04663
6.10935
5.17102
4.23187
3.29207
2.35181
1.41121
0.470425
-205.022
-196.293
-187.531
-178.77
-170.037
-161.361
-152.766
-144.274
-135.907
-127.681
-119.613
-111.717
-104.007
-96.4926
-89.1844
-82.09
-75.2162
-68.5685
-62.1512
-55.9677
-50.0202
-44.3099
-38.8373
-33.602
-28.6028
-23.8382
-19.3056
-15.0022
-10.9246
-7.06895
-3.43105
-0.00630889
3.21014
6.22344
9.03895
11.6622
14.099
16.355
18.4363
20.3488
22.0985
23.6916
25.134
26.4319
27.5911
28.6176
29.5173
30.296
30.9594
31.513
31.9622
32.3125
32.569
32.7367
32.8207
32.8255
32.756
32.6164
32.4112
32.1444
31.82
31.4419
31.0136
30.5386
30.0204
29.462
28.8666
28.2368
27.5756
26.8853
26.1685
25.4274
24.6642
23.8808
23.0792
22.2611
21.4281
20.5818
19.7235
18.8545
17.976
17.0891
16.1949
15.2941
14.3877
13.4764
12.5608
11.6415
10.7191
9.79408
8.86679
7.93762
7.00689
6.07489
5.14186
4.208
3.27351
2.33854
1.40325
0.467772
-203.809
-195.131
-186.421
-177.712
-169.031
-160.406
-151.862
-143.421
-135.102
-126.925
-118.905
-111.056
-103.391
-95.9216
-88.6566
-81.6041
-74.771
-68.1627
-61.7834
-55.6365
-49.7242
-44.0477
-38.6074
-33.4031
-28.4336
-23.6971
-19.1913
-14.9134
-10.8599
-7.02712
-3.41074
-0.00627094
3.19114
6.18661
8.98546
11.5932
14.0155
16.2582
18.3272
20.2284
21.9678
23.5514
24.9853
26.2754
27.4278
28.4483
29.3427
30.1167
30.7762
31.3265
31.7731
32.1213
32.3762
32.543
32.6264
32.6313
32.5621
32.4234
32.2194
31.9542
31.6317
31.2558
30.83
30.3579
29.8427
29.2877
28.6957
28.0697
27.4124
26.7262
26.0136
25.2769
24.5182
23.7395
22.9426
22.1294
21.3013
20.46
19.6067
18.7429
17.8696
16.988
16.099
15.2036
14.3026
13.3966
12.4864
11.5726
10.6557
9.73612
8.81431
7.89064
6.96542
6.03894
5.11143
4.1831
3.25414
2.3247
1.39495
0.465004
-202.545
-193.921
-185.266
-176.61
-167.983
-159.412
-150.92
-142.531
-134.265
-126.138
-118.167
-110.367
-102.75
-95.3268
-88.1069
-81.0982
-74.3074
-67.7401
-61.4004
-55.2916
-49.4159
-43.7746
-38.3681
-33.196
-28.2573
-23.5502
-19.0723
-14.8209
-10.7926
-6.98355
-3.38959
-0.00623196
3.17136
6.14825
8.92975
11.5213
13.9286
16.1574
18.2136
20.1029
21.8316
23.4054
24.8304
26.1125
27.2577
28.2719
29.1607
29.93
30.5853
31.1322
31.5761
31.9221
32.1755
32.3412
32.4241
32.429
32.3602
32.2224
32.0196
31.756
31.4356
31.062
30.6389
30.1697
29.6577
29.1061
28.5178
27.8957
27.2424
26.5605
25.8523
25.1202
24.3662
23.5923
22.8004
21.9922
21.1692
20.3331
19.4852
18.6267
17.7588
16.8827
15.9992
15.1094
14.2139
13.3136
12.409
11.5009
10.5896
9.67575
8.75966
7.84172
6.92224
6.0015
5.07974
4.15716
3.23396
2.31029
1.3863
0.46212
-201.231
-192.664
-184.064
-175.464
-166.893
-158.378
-149.942
-141.607
-133.394
-125.32
-117.401
-109.651
-102.084
-94.7086
-87.5355
-80.5722
-73.8255
-67.3007
-61.0021
-54.933
-49.0954
-43.4907
-38.1192
-32.9807
-28.074
-23.3974
-18.9486
-14.7248
-10.7226
-6.93825
-3.36761
-0.00619191
3.15079
6.10838
8.87183
11.4466
13.8383
16.0526
18.0954
19.9726
21.69
23.2536
24.6693
25.9432
27.0809
28.0885
28.9716
29.7359
30.387
30.9303
31.3713
31.7151
31.9668
32.1315
32.2138
32.2186
32.1504
32.0134
31.812
31.5501
31.2317
30.8605
30.4402
29.974
29.4654
28.9173
28.3329
27.7148
27.0657
26.3882
25.6847
24.9573
24.2082
23.4393
22.6525
21.8495
21.0319
20.2012
19.3588
18.5059
17.6436
16.7732
15.8955
15.0114
14.1217
13.2272
12.3285
11.4263
10.5209
9.613
8.70285
7.79086
6.87734
5.96257
5.04679
4.1302
3.21298
2.29531
1.37731
0.459123
-199.868
-191.358
-182.817
-174.276
-165.763
-157.305
-148.926
-140.648
-132.49
-124.471
-116.606
-108.909
-101.392
-94.067
-86.9425
-80.0264
-73.3254
-66.8448
-60.5889
-54.5608
-48.7628
-43.196
-37.861
-32.7573
-27.8838
-23.2389
-18.8203
-14.6251
-10.65
-6.89125
-3.3448
-0.00615069
3.12944
6.06699
8.81173
11.3691
13.7445
15.9439
17.9728
19.8373
21.543
23.096
24.5022
25.7674
26.8975
27.8982
28.7753
29.5345
30.1811
30.7208
31.1587
31.5002
31.7502
31.9138
31.9956
32.0004
31.9326
31.7965
31.5964
31.3363
31.0201
30.6515
30.2339
29.7709
29.2657
28.7214
28.1409
27.527
26.8824
26.2095
25.5107
24.7882
24.0442
23.2805
22.4991
21.7015
20.8895
20.0644
19.2276
18.3805
17.5241
16.6596
15.7878
14.9097
14.026
13.1376
12.245
11.3489
10.4497
9.54787
8.64389
7.73808
6.83075
5.92218
5.0126
4.10222
3.19122
2.27976
1.36798
0.456013
-198.456
-190.006
-181.525
-173.044
-164.591
-156.193
-147.873
-139.654
-131.554
-123.591
-115.782
-108.139
-100.676
-93.4022
-86.328
-79.4608
-72.8071
-66.3724
-60.1607
-54.1752
-48.4182
-42.8907
-37.5934
-32.5258
-27.6867
-23.0747
-18.6873
-14.5217
-10.5747
-6.84255
-3.32116
-0.00610822
3.10733
6.02411
8.74945
11.2887
13.6474
15.8312
17.8458
19.6971
21.3908
22.9328
24.329
25.5853
26.7074
27.701
28.572
29.3257
29.9678
30.5037
30.9385
31.2776
31.5258
31.6882
31.7695
31.7742
31.7069
31.5718
31.3731
31.1149
30.8009
30.4348
30.0203
29.5605
29.0589
28.5184
27.942
27.3325
26.6924
26.0242
25.3304
24.613
23.8742
23.116
22.34
21.5481
20.7418
19.9226
19.0917
18.2506
17.4003
16.5418
15.6762
14.8043
13.9269
13.0448
12.1585
11.2687
10.3758
9.48039
8.5828
7.68339
6.78247
5.88032
4.97717
4.07323
3.16866
2.26364
1.35831
0.45279
-196.994
-188.607
-180.188
-171.77
-163.379
-155.043
-146.784
-138.625
-130.585
-122.681
-114.929
-107.343
-99.9341
-92.7143
-85.6922
-78.8756
-72.271
-65.8836
-59.7176
-53.7762
-48.0616
-42.5749
-37.3165
-32.2862
-27.4828
-22.9047
-18.5496
-14.4148
-10.4968
-6.79216
-3.2967
-0.00606441
3.08444
5.97975
8.68501
11.2056
13.5469
15.7146
17.7144
19.552
21.2332
22.7639
24.1499
25.3969
26.5107
27.497
28.3615
29.1097
29.7471
30.279
30.7107
31.0472
31.2937
31.4548
31.5355
31.5402
31.4734
31.3393
31.1421
30.8857
30.574
30.2107
29.7992
29.3428
28.8449
28.3084
27.7362
27.1312
26.4958
25.8326
25.1438
24.4318
23.6984
22.9457
22.1755
21.3894
20.5891
19.7758
18.9511
18.1162
17.2721
16.42
15.5607
14.6953
13.8243
12.9487
12.0689
11.1857
10.2994
9.41057
8.51959
7.6268
6.73252
5.83702
4.94052
4.04323
3.14533
2.24697
1.34831
0.449455
-195.484
-187.161
-178.807
-170.453
-162.127
-153.854
-145.659
-137.562
-129.584
-121.741
-114.048
-106.52
-99.168
-92.0036
-85.0353
-78.271
-71.7169
-65.3785
-59.2598
-53.364
-47.6931
-42.2485
-37.0305
-32.0387
-27.2722
-22.7292
-18.4074
-14.3043
-10.4164
-6.74009
-3.27143
-0.00601922
3.06079
5.93391
8.61843
11.1197
13.443
15.5941
17.5786
19.4021
21.0705
22.5894
23.9647
25.2022
26.3075
27.2862
28.1441
28.8866
29.5191
30.0469
30.4752
30.8092
31.0538
31.2137
31.2937
31.2984
31.2321
31.099
30.9033
30.649
30.3397
29.9791
29.5707
29.1179
28.6238
28.0914
27.5236
26.9232
26.2927
25.6345
24.9511
24.2445
23.5167
22.7698
22.0055
21.2255
20.4312
19.6242
18.8059
17.9773
17.1397
16.2941
15.4415
14.5826
13.7184
12.8494
11.9764
11.0999
10.2204
9.33843
8.45428
7.56834
6.68091
5.79227
4.90264
4.01223
3.12122
2.22975
1.33797
0.44601
-193.926
-185.669
-177.381
-169.094
-160.834
-152.628
-144.498
-136.466
-128.551
-120.77
-113.139
-105.67
-98.3775
-91.2701
-84.3574
-77.647
-71.1452
-64.8573
-58.7874
-52.9386
-47.3129
-41.9117
-36.7353
-31.7833
-27.0548
-22.548
-18.2607
-14.1902
-10.3333
-6.68636
-3.24535
-0.00597262
3.03639
5.8866
8.54973
11.031
13.3359
15.4698
17.4384
19.2474
20.9025
22.4093
23.7737
25.0013
26.0977
27.0687
27.9197
28.6563
29.2837
29.8074
30.2323
30.5636
30.8062
30.9649
31.0443
31.0489
30.9831
30.8511
30.657
30.4046
30.0978
29.7401
29.335
28.8858
28.3956
27.8674
27.3042
26.7085
26.0831
25.4302
24.7522
24.0512
23.3293
22.5883
21.8301
21.0562
20.2683
19.4678
18.6559
17.834
17.0031
16.1642
15.3184
14.4664
13.609
12.747
11.8809
11.0114
10.139
9.26398
8.38688
7.508
6.62765
5.74609
4.86356
3.98025
3.09633
2.21197
1.3273
0.442454
-192.319
-184.131
-175.912
-167.693
-159.502
-151.364
-143.301
-135.336
-127.486
-119.77
-112.202
-104.795
-97.5626
-90.5142
-83.6587
-77.0039
-70.5559
-64.3201
-58.3005
-52.5001
-46.9211
-41.5646
-36.431
-31.5201
-26.8307
-22.3612
-18.1095
-14.0727
-10.2477
-6.63098
-3.21847
-0.00592459
3.01124
5.83784
8.47891
10.9397
13.2254
15.3417
17.294
19.088
20.7293
22.2237
23.5768
24.7942
25.8816
26.8445
27.6885
28.4189
29.0412
29.5605
29.9819
30.3105
30.551
30.7084
30.7871
30.7917
30.7265
30.5956
30.4031
30.1528
29.8485
29.4938
29.092
28.6465
28.1604
27.6366
27.078
26.4873
25.867
25.2195
24.5471
23.852
23.136
22.4012
21.6493
20.8818
20.1005
19.3066
18.5014
17.6863
16.8622
16.0303
15.1915
14.3465
13.4963
12.6414
11.7825
10.9202
10.055
9.18725
8.31741
7.44581
6.57276
5.6985
4.82328
3.94728
3.07069
2.19365
1.31631
0.438789
-190.666
-182.548
-174.4
-166.251
-158.131
-150.062
-142.069
-134.172
-126.39
-118.74
-111.237
-103.894
-96.7237
-89.7359
-82.9394
-76.3417
-69.9493
-63.7671
-57.7992
-52.0487
-46.5176
-41.2072
-36.1178
-31.249
-26.6
-22.1689
-17.9537
-13.9517
-10.1596
-6.57396
-3.1908
-0.00587513
2.98535
5.78764
8.406
10.8456
13.1117
15.2098
17.1453
18.9239
20.5511
22.0326
23.374
24.581
25.659
26.6137
27.4504
28.1746
28.7915
29.3063
29.7241
30.0498
30.2883
30.4444
30.5224
30.527
30.4623
30.3325
30.1416
29.8935
29.5918
29.2402
28.8419
28.4002
27.9182
27.399
26.8452
26.2596
25.6446
25.0027
24.3361
23.6469
22.9371
22.2086
21.4631
20.7023
19.9276
19.1405
18.3423
17.5342
16.7172
15.8925
15.0609
14.2232
13.3802
12.5327
11.6812
10.8263
9.96853
9.10825
8.24589
7.38179
6.51624
5.6495
4.7818
3.91334
3.04428
2.17479
1.30499
0.435016
-188.965
-180.919
-172.844
-164.769
-156.72
-148.723
-140.802
-132.975
-125.263
-117.681
-110.245
-102.967
-95.861
-88.9354
-82.1996
-75.6608
-69.3253
-63.1983
-57.2836
-51.5844
-46.1027
-40.8396
-35.7956
-30.9703
-26.3627
-21.9712
-17.7936
-13.8272
-10.069
-6.51533
-3.16234
-0.00582423
2.95872
5.73602
8.33102
10.7488
12.9947
15.0741
16.9924
18.7551
20.3678
21.8361
23.1655
24.3617
25.4302
26.3763
27.2056
27.9233
28.5347
29.0449
29.4589
29.7818
30.0182
30.1728
30.2502
30.2547
30.1905
30.0619
29.8728
29.6269
29.3279
28.9793
28.5846
28.1469
27.6692
27.1546
26.6057
26.0253
25.4158
24.7797
24.119
23.4359
22.7325
22.0105
21.2717
20.5176
19.7499
18.9698
18.1787
17.3778
16.5681
15.7507
14.9265
14.0963
13.2609
12.4209
11.577
10.7298
9.87961
9.02701
8.17234
7.31594
6.45811
5.59911
4.73915
3.87843
3.01713
2.15539
1.29335
0.431136
-187.218
-179.246
-171.246
-163.245
-155.271
-147.348
-139.5
-131.745
-124.104
-116.593
-109.225
-102.015
-94.9746
-88.1131
-81.4395
-74.9612
-68.6843
-62.6139
-56.7539
-51.1074
-45.6764
-40.462
-35.4646
-30.6839
-26.1189
-21.768
-17.6291
-13.6994
-9.97589
-6.45508
-3.1331
-0.00577192
2.93136
5.68297
8.25398
10.6494
12.8746
14.9347
16.8352
18.5816
20.1794
21.6342
22.9513
24.1365
25.195
26.1324
26.954
27.6651
28.2708
28.7763
29.1865
29.5064
29.7406
29.8938
29.9704
29.9749
29.9114
29.7839
29.5965
29.3529
29.0567
28.7114
28.3203
27.8866
27.4134
26.9035
26.3597
25.7847
25.1808
24.5505
23.896
23.2192
22.5223
21.807
21.075
20.3279
19.5672
18.7944
18.0106
17.2171
16.4149
15.6051
14.7885
13.966
13.1383
12.3061
11.47
10.6305
9.78825
8.94354
8.09677
7.24829
6.3984
5.54733
4.69533
3.84257
2.98923
2.13546
1.28139
0.427149
-185.424
-177.529
-169.605
-161.681
-153.783
-145.937
-138.163
-130.483
-122.915
-115.476
-108.179
-101.038
-94.0647
-87.2689
-80.6593
-74.243
-68.0263
-62.014
-56.2102
-50.6178
-45.2388
-40.0743
-35.1248
-30.39
-25.8687