/*--------------------------------*- C++ -*----------------------------------*\
| =========                 |                                                 |
| \\      /  F ield         | OpenFOAM: The Open Source CFD Toolbox           |
|  \\    /   O peration     | Version:  2406                                  |
|   \\  /    A nd           | Website:  www.openfoam.com                      |
|    \\/     M anipulation  |                                                 |
\*---------------------------------------------------------------------------*/
FoamFile
{
    version     2.0;
    format      ascii;
    arch        "LSB;label=32;scalar=64";
    class       volScalarField;
    location    "195";
    object      gradTy;
}
// * * * * * * * * * * * * * * * * * * * * * * * * * * * * * * * * * * * * * //

dimensions      [0 -1 0 1 0 0 0];

internalField   nonuniform List<scalar> 
20000
(
-171.531
-168.605
-165.259
-161.539
-157.49
-153.152
-148.565
-143.765
-138.786
-133.661
-128.419
-123.088
-117.694
-112.261
-106.81
-101.364
-95.9393
-90.554
-85.2234
-79.9618
-74.7819
-69.6953
-64.7122
-59.8418
-55.0921
-50.4699
-45.9813
-41.6313
-37.4242
-33.3634
-29.4515
-25.6907
-22.0823
-18.6269
-15.325
-12.1761
-9.17968
-6.33445
-3.63891
-1.09121
1.31084
3.56971
5.68809
7.6689
9.51526
11.2304
12.8179
14.281
15.6236
16.8493
17.9618
18.9649
19.8625
20.6584
21.3565
21.9604
22.4741
22.9012
23.2455
23.5105
23.7
23.8173
23.8659
23.8491
23.7703
23.6325
23.439
23.1926
22.8963
22.5528
22.1649
21.7351
21.266
20.76
20.2193
19.6462
19.0428
18.4111
17.753
17.0703
16.3649
15.6384
14.8924
14.1284
13.3478
12.5521
11.7424
10.9201
10.0863
9.24211
8.38868
7.527
6.65805
5.78278
4.9021
4.01689
3.12802
2.23631
1.34259
0.447662
-171.489
-168.563
-165.218
-161.499
-157.451
-153.114
-148.528
-143.729
-138.752
-133.628
-128.387
-123.058
-117.665
-112.233
-106.784
-101.339
-95.9157
-90.5316
-85.2024
-79.942
-74.7634
-69.6781
-64.6963
-59.8271
-55.0785
-50.4575
-45.97
-41.621
-37.415
-33.3551
-29.4443
-25.6844
-22.0768
-18.6223
-15.3212
-12.1731
-9.17742
-6.33288
-3.63802
-1.09094
1.31052
3.56883
5.68668
7.66701
9.51291
11.2277
12.8147
14.2775
15.6198
16.8451
17.9573
18.9602
19.8576
20.6533
21.3512
21.955
22.4686
22.8956
23.2398
23.5047
23.6941
23.8114
23.86
23.8432
23.7644
23.6267
23.4332
23.1869
22.8906
22.5472
22.1594
21.7298
21.2608
20.7549
20.2143
19.6414
19.0381
18.4065
17.7486
17.0661
16.3609
15.6346
14.8888
14.1249
13.3445
12.549
11.7395
10.9174
10.0838
9.23983
8.38661
7.52514
6.65641
5.78135
4.90089
4.0159
3.12725
2.23576
1.34226
0.447552
-171.404
-168.48
-165.136
-161.419
-157.373
-153.039
-148.455
-143.658
-138.683
-133.562
-128.324
-122.997
-117.607
-112.178
-106.731
-101.289
-95.8683
-90.4869
-85.1603
-79.9025
-74.7265
-69.6437
-64.6644
-59.7976
-55.0513
-50.4326
-45.9473
-41.6005
-37.3965
-33.3387
-29.4297
-25.6717
-22.0659
-18.6131
-15.3136
-12.1671
-9.17289
-6.32976
-3.63622
-1.0904
1.30987
3.56707
5.68388
7.66323
9.50822
11.2221
12.8084
14.2705
15.612
16.8368
17.9485
18.9509
19.8478
20.6432
21.3407
21.9442
22.4575
22.8843
23.2283
23.4931
23.6824
23.7996
23.8482
23.8315
23.7527
23.615
23.4216
23.1754
22.8793
22.5361
22.1485
21.719
21.2503
20.7446
20.2043
19.6317
19.0287
18.3974
17.7398
17.0577
16.3528
15.6269
14.8814
14.118
13.338
12.5428
11.7337
10.912
10.0788
9.23527
8.38247
7.52142
6.65312
5.7785
4.89847
4.01392
3.1257
2.23465
1.34159
0.447331
-171.277
-168.355
-165.014
-161.3
-157.256
-152.925
-148.345
-143.552
-138.581
-133.463
-128.229
-122.906
-117.52
-112.094
-106.652
-101.214
-95.7973
-90.4199
-85.0972
-79.8433
-74.6712
-69.5921
-64.6165
-59.7533
-55.0106
-50.3952
-45.9133
-41.5697
-37.3688
-33.314
-29.408
-25.6527
-22.0496
-18.5994
-15.3023
-12.1581
-9.16609
-6.32507
-3.63352
-1.08959
1.30891
3.56443
5.67967
7.65755
9.50118
11.2138
12.7989
14.2599
15.6005
16.8243
17.9352
18.9369
19.8331
20.6279
21.3249
21.9279
22.4408
22.8673
23.2111
23.4757
23.6649
23.782
23.8305
23.8138
23.7351
23.5976
23.4043
23.1583
22.8624
22.5194
22.1321
21.703
21.2346
20.7293
20.1894
19.6171
19.0146
18.3838
17.7267
17.0451
16.3407
15.6153
14.8704
14.1075
13.3281
12.5335
11.725
10.9039
10.0713
9.22843
8.37626
7.51585
6.64819
5.77422
4.89484
4.01095
3.12339
2.233
1.3406
0.447
-171.108
-168.189
-164.851
-161.141
-157.101
-152.774
-148.198
-143.41
-138.444
-133.331
-128.102
-122.784
-117.403
-111.984
-106.547
-101.114
-95.7027
-90.3306
-85.0131
-79.7645
-74.5974
-69.5234
-64.5527
-59.6943
-54.9562
-50.3455
-45.8679
-41.5286
-37.3319
-33.2811
-29.3789
-25.6273
-22.0278
-18.581
-15.2872
-12.1461
-9.15703
-6.31882
-3.62993
-1.08851
1.30762
3.56091
5.67406
7.64999
9.4918
11.2027
12.7862
14.2458
15.5851
16.8077
17.9175
18.9181
19.8135
20.6075
21.3038
21.9063
22.4187
22.8447
23.1882
23.4526
23.6415
23.7585
23.807
23.7903
23.7116
23.5743
23.3812
23.1354
22.8398
22.4972
22.1102
21.6815
21.2136
20.7088
20.1694
19.5977
18.9958
18.3656
17.7092
17.0282
16.3246
15.5999
14.8557
14.0936
13.3149
12.5211
11.7134
10.8931
10.0614
9.21931
8.36799
7.50843
6.64163
5.76851
4.89001
4.00699
3.1203
2.23079
1.33927
0.446558
-170.896
-167.981
-164.647
-160.941
-156.907
-152.585
-148.015
-143.233
-138.273
-133.166
-127.944
-122.633
-117.258
-111.845
-106.416
-100.989
-95.5844
-90.219
-84.9081
-79.6659
-74.5052
-69.4375
-64.4729
-59.6206
-54.8884
-50.2833
-45.8112
-41.4773
-37.2858
-33.24
-29.3426
-25.5957
-22.0006
-18.558
-15.2683
-12.1311
-9.14572
-6.31101
-3.62545
-1.08717
1.306
3.55651
5.66705
7.64054
9.48007
11.1889
12.7705
14.2282
15.5658
16.7869
17.8953
18.8948
19.7891
20.582
21.2775
21.8792
22.391
22.8165
23.1595
23.4236
23.6123
23.7292
23.7776
23.7609
23.6824
23.5451
23.3523
23.1068
22.8116
22.4694
22.0829
21.6547
21.1874
20.6832
20.1445
19.5735
18.9723
18.3429
17.6873
17.0072
16.3044
15.5806
14.8373
14.0762
13.2985
12.5056
11.6989
10.8797
10.0489
9.20792
8.35765
7.49915
6.63342
5.76139
4.88397
4.00203
3.11645
2.22804
1.33762
0.446006
-170.643
-167.732
-164.403
-160.703
-156.674
-152.359
-147.796
-143.02
-138.068
-132.969
-127.754
-122.451
-117.084
-111.679
-106.258
-100.839
-95.4426
-90.0851
-84.7821
-79.5477
-74.3947
-69.3345
-64.3773
-59.5321
-54.8069
-50.2087
-45.7433
-41.4158
-37.2305
-33.1906
-29.2991
-25.5577
-21.9679
-18.5305
-15.2456
-12.1131
-9.13215
-6.30164
-3.62007
-1.08555
1.30407
3.55123
5.65865
7.6292
9.46601
11.1723
12.7515
14.2071
15.5427
16.762
17.8688
18.8667
19.7597
20.5515
21.2459
21.8467
22.3577
22.7827
23.1251
23.3888
23.5773
23.694
23.7423
23.7256
23.6472
23.5102
23.3176
23.0725
22.7777
22.436
22.0501
21.6226
21.1559
20.6525
20.1146
19.5445
18.9442
18.3157
17.661
16.982
16.2802
15.5575
14.8153
14.0553
13.2787
12.4871
11.6816
10.8635
10.034
9.19426
8.34525
7.48803
6.62358
5.75284
4.87672
3.9961
3.11182
2.22473
1.33564
0.445344
-170.347
-167.441
-164.118
-160.424
-156.403
-152.095
-147.54
-142.773
-137.828
-132.738
-127.533
-122.238
-116.882
-111.486
-106.073
-100.664
-95.2772
-89.929
-84.6352
-79.4099
-74.2658
-69.2144
-64.2657
-59.429
-54.712
-50.1217
-45.664
-41.344
-37.1659
-33.1331
-29.2483
-25.5134
-21.9299
-18.4984
-15.2192
-12.0921
-9.11632
-6.29072
-3.61379
-1.08367
1.30181
3.54508
5.64884
7.61599
9.44961
11.1529
12.7294
14.1825
15.5158
16.733
17.8378
18.834
19.7255
20.5159
21.2091
21.8089
22.319
22.7432
23.0851
23.3483
23.5364
23.6529
23.7012
23.6845
23.6062
23.4694
23.2772
23.0325
22.7383
22.3972
22.0119
21.5851
21.1193
20.6167
20.0798
19.5106
18.9114
18.284
17.6304
16.9525
16.252
15.5305
14.7897
14.0309
13.2557
12.4654
11.6613
10.8447
10.0167
9.17832
8.33078
7.47505
6.6121
5.74287
4.86827
3.98917
3.10643
2.22087
1.33332
0.444573
-170.009
-167.109
-163.793
-160.106
-156.093
-151.793
-147.247
-142.49
-137.555
-132.475
-127.28
-121.996
-116.65
-111.265
-105.863
-100.465
-95.0883
-89.7507
-84.4674
-79.2525
-74.1186
-69.0771
-64.1383
-59.3111
-54.6035
-50.0223
-45.5735
-41.2621
-37.0923
-33.0675
-29.1903
-25.4628
-21.8864
-18.4617
-15.189
-12.0681
-9.09825
-6.27825
-3.60662
-1.08152
1.29923
3.53806
5.63765
7.60089
9.43087
11.1308
12.7042
14.1544
15.485
16.6998
17.8025
18.7967
19.6864
20.4752
21.167
21.7656
22.2748
22.6981
23.0393
23.302
23.4898
23.606
23.6542
23.6376
23.5594
23.4229
23.2311
22.9869
22.6932
22.3528
21.9683
21.5423
21.0774
20.5758
20.04
19.4719
18.8739
18.2477
17.5955
16.9189
16.2198
15.4997
14.7603
14.0031
13.2294
12.4407
11.6382
10.8232
9.99679
9.16013
8.31427
7.46023
6.59899
5.73148
4.85862
3.98126
3.10027
2.21647
1.33068
0.443691
-169.63
-166.736
-163.427
-159.749
-155.744
-151.455
-146.918
-142.171
-137.248
-132.179
-126.996
-121.724
-116.389
-111.016
-105.627
-100.24
-94.876
-89.5503
-84.2788
-79.0755
-73.9531
-68.9229
-63.9951
-59.1787
-54.4816
-49.9106
-45.4717
-41.1699
-37.0094
-32.9936
-29.1251
-25.406
-21.8375
-18.4205
-15.1551
-12.0412
-9.07793
-6.26422
-3.59857
-1.0791
1.29633
3.53016
5.62506
7.58392
9.40981
11.106
12.6758
14.1228
15.4505
16.6625
17.7627
18.7547
19.6424
20.4295
21.1198
21.717
22.225
22.6474
22.9879
23.25
23.4373
23.5533
23.6013
23.5848
23.5068
23.3706
23.1792
22.9355
22.6425
22.3028
21.9192
21.4942
21.0303
20.5299
19.9952
19.4285
18.8317
18.207
17.5562
16.8811
16.1836
15.4651
14.7274
13.9718
13.1999
12.4129
11.6122
10.799
9.97447
9.13967
8.2957
7.44357
6.58425
5.71868
4.84777
3.97237
3.09335
2.21152
1.32771
0.4427
-169.208
-166.322
-163.021
-159.352
-155.357
-151.078
-146.553
-141.818
-136.907
-131.851
-126.68
-121.421
-116.1
-110.741
-105.364
-99.9914
-94.6402
-89.3278
-84.0694
-78.879
-73.7693
-68.7516
-63.8361
-59.0317
-54.3462
-49.7866
-45.3587
-41.0676
-36.9175
-32.9116
-29.0528
-25.3428
-21.7832
-18.3747
-15.1175
-12.0113
-9.05537
-6.24866
-3.58962
-1.07642
1.29311
3.52139
5.61108
7.56508
9.38643
11.0784
12.6443
14.0877
15.4121
16.6211
17.7186
18.7081
19.5936
20.3787
21.0673
21.6631
22.1698
22.5911
22.9307
23.1922
23.3791
23.4948
23.5427
23.5262
23.4484
23.3125
23.1216
22.8785
22.5862
22.2474
21.8648
21.4408
20.9781
20.4789
19.9455
19.3802
18.7849
18.1618
17.5126
16.8392
16.1433
15.4267
14.6908
13.9371
13.1671
12.3821
11.5834
10.7722
9.94968
9.11696
8.27509
7.42507
6.56789
5.70447
4.83572
3.9625
3.08566
2.20603
1.32441
0.4416
-168.745
-165.866
-162.575
-158.915
-154.932
-150.665
-146.152
-141.43
-136.532
-131.49
-126.333
-121.089
-115.782
-110.437
-105.076
-99.7176
-94.3811
-89.0832
-83.8392
-78.6631
-73.5674
-68.5634
-63.6613
-58.8701
-54.1974
-49.6503
-45.2346
-40.9552
-36.8164
-32.8215
-28.9732
-25.2735
-21.7236
-18.3244
-15.0761
-11.9784
-9.03057
-6.23155
-3.57979
-1.07347
1.28957
3.51175
5.59572
7.54437
9.36074
11.0481
12.6097
14.0491
15.3699
16.5756
17.6701
18.6569
19.5399
20.3229
21.0096
21.6038
22.1091
22.5293
22.868
23.1287
23.315
23.4304
23.4782
23.4618
23.3842
23.2487
23.0583
22.8159
22.5244
22.1865
21.8049
21.3821
20.9206
20.4228
19.8909
19.3271
18.7335
18.112
17.4646
16.7931
16.0992
15.3845
14.6506
13.8989
13.131
12.3482
11.5517
10.7427
9.92244
9.092
8.25243
7.40474
6.54991
5.68886
4.82248
3.95165
3.07721
2.19999
1.32078
0.440391
-168.24
-165.37
-162.088
-158.44
-154.468
-150.214
-145.715
-141.007
-136.124
-131.097
-125.955
-120.726
-115.436
-110.107
-104.761
-99.4193
-94.0987
-88.8167
-83.5884
-78.4277
-73.3473
-68.3583
-63.4709
-58.6939
-54.0353
-49.5017
-45.0992
-40.8327
-36.7062
-32.7233
-28.8865
-25.1978
-21.6586
-18.2696
-15.031
-11.9425
-9.00355
-6.2129
-3.56908
-1.07025
1.28572
3.50124
5.57898
7.52179
9.33273
11.015
12.572
14.0071
15.3239
16.526
17.6172
18.6011
19.4815
20.2621
20.9468
21.5391
22.0429
22.4619
22.7995
23.0595
23.2453
23.3603
23.408
23.3916
23.3142
23.1792
22.9893
22.7476
22.457
22.1201
21.7396
21.3181
20.858
20.3617
19.8314
19.2693
18.6774
18.0578
17.4124
16.7428
16.051
15.3384
14.6067
13.8574
13.0918
12.3112
11.5171
10.7106
9.89275
9.06479
8.22774
7.38259
6.53031
5.67183
4.80805
3.93983
3.068
2.1934
1.31683
0.439074
-167.694
-164.833
-161.562
-157.925
-153.967
-149.726
-145.241
-140.549
-135.681
-130.671
-125.546
-120.334
-115.061
-109.749
-104.421
-99.0964
-93.7931
-88.5282
-83.3169
-78.173
-73.109
-68.1363
-63.2647
-58.5033
-53.8598
-49.341
-44.9527
-40.7
-36.587
-32.617
-28.7927
-25.116
-21.5883
-18.2102
-14.9821
-11.9037
-8.97431
-6.19272
-3.55749
-1.06678
1.28154
3.48987
5.56086
7.49737
9.30242
10.9792
12.5311
13.9616
15.2741
16.4724
17.56
18.5407
19.4182
20.1963
20.8787
21.4692
21.9713
22.3889
22.7255
22.9846
23.1698
23.2845
23.332
23.3156
23.2385
23.1039
22.9146
22.6738
22.3841
22.0483
21.669
21.2489
20.7903
20.2956
19.767
19.2067
18.6168
17.9992
17.3558
16.6885
15.9988
15.2886
14.5593
13.8123
13.0492
12.2713
11.4797
10.6758
9.86062
9.03535
8.20102
7.35861
6.5091
5.65341
4.79244
3.92703
3.05804
2.18628
1.31255
0.437648
-167.106
-164.255
-160.996
-157.372
-153.427
-149.201
-144.732
-140.056
-135.206
-130.213
-125.106
-119.913
-114.658
-109.365
-104.055
-98.749
-93.4644
-88.2179
-83.0249
-77.899
-72.8528
-67.8975
-63.043
-58.2982
-53.671
-49.168
-44.7952
-40.5574
-36.4588
-32.5027
-28.6918
-25.028
-21.5126
-18.1464
-14.9296
-11.862
-8.94285
-6.17101
-3.54501
-1.06304
1.27705
3.47764
5.54137
7.47109
9.26982
10.9408
12.4872
13.9126
15.2206
16.4146
17.4984
18.4757
19.3502
20.1255
20.8055
21.3939
21.8943
22.3104
22.6458
22.904
23.0886
23.2028
23.2502
23.2339
23.1571
23.0229
22.8343
22.5943
22.3056
21.971
21.5931
21.1744
20.7174
20.2244
19.6977
19.1394
18.5515
17.9361
17.295
16.63
15.9428
15.235
14.5082
13.7639
13.0035
12.2282
11.4395
10.6383
9.82606
9.00368
8.17227
7.33282
6.48629
5.6336
4.77564
3.91327
3.04732
2.17862
1.30795
0.436113
-166.477
-163.637
-160.39
-156.779
-152.849
-148.64
-144.188
-139.529
-134.697
-129.723
-124.635
-119.461
-114.226
-108.953
-103.664
-98.3773
-93.1126
-87.8859
-82.7124
-77.6058
-72.5786
-67.6419
-62.8057
-58.0788
-53.469
-48.983
-44.6266
-40.4047
-36.3216
-32.3804
-28.5838
-24.9338
-21.4316
-18.0781
-14.8734
-11.8174
-8.90918
-6.14778
-3.53167
-1.05903
1.27225
3.46456
5.52052
7.44297
9.23493
10.8996
12.4402
13.8603
15.1633
16.3528
17.4326
18.4062
19.2773
20.0498
20.7272
21.3134
21.8119
22.2265
22.5606
22.8178
23.0017
23.1155
23.1627
23.1464
23.0699
22.9362
22.7484
22.5092
22.2216
21.8883
21.5118
21.0947
20.6394
20.1483
19.6236
19.0673
18.4817
17.8686
17.2299
16.5674
15.8828
15.1777
14.4536
13.7121
12.9545
12.1822
11.3964
10.5983
9.78907
8.96979
8.14151
7.30521
6.46187
5.61239
4.75766
3.89854
3.03585
2.17042
1.30303
0.434472
-165.807
-162.978
-159.744
-156.148
-152.234
-148.041
-143.607
-138.967
-134.155
-129.201
-124.133
-118.98
-113.766
-108.515
-103.246
-97.9814
-92.7378
-87.5321
-82.3794
-77.2934
-72.2864
-67.3696
-62.5529
-57.845
-53.2538
-48.7858
-44.4469
-40.2421
-36.1754
-32.25
-28.4687
-24.8334
-21.3453
-18.0053
-14.8136
-11.7698
-8.87332
-6.12303
-3.51745
-1.05477
1.26713
3.45061
5.4983
7.41301
9.19776
10.8557
12.3901
13.8045
15.1023
16.287
17.3624
18.3321
19.1997
19.9691
20.6438
21.2276
21.7241
22.137
22.4698
22.726
22.9091
23.0225
23.0694
23.0532
22.977
22.8439
22.6568
22.4186
22.1322
21.8002
21.4252
21.0098
20.5564
20.0672
19.5446
18.9906
18.4073
17.7967
17.1605
16.5007
15.8188
15.1166
14.3955
13.6569
12.9024
12.1332
11.3505
10.5556
9.74967
8.93369
8.10874
7.27581
6.43586
5.5898
4.73851
3.88284
3.02363
2.16168
1.29778
0.432723
-165.096
-162.28
-159.059
-155.479
-151.581
-147.406
-142.991
-138.371
-133.58
-128.646
-123.601
-118.47
-113.279
-108.049
-102.804
-97.5612
-92.3401
-87.1568
-82.0262
-76.962
-71.9765
-67.0807
-62.2847
-57.597
-53.0254
-48.5766
-44.2563
-40.0695
-36.0202
-32.1117
-28.3466
-24.7269
-21.2538
-17.9281
-14.75
-11.7193
-8.83527
-6.09677
-3.50237
-1.05024
1.2617
3.43582
5.47472
7.38122
9.15832
10.8091
12.337
13.7453
15.0375
16.2172
17.2879
18.2535
19.1174
19.8834
20.5553
21.1366
21.631
22.0421
22.3734
22.6285
22.8108
22.9237
22.9705
22.9544
22.8785
22.7459
22.5596
22.3225
22.0373
21.7067
21.3333
20.9197
20.4682
19.9812
19.4608
18.9091
18.3284
17.7203
17.0869
16.4299
15.751
15.0517
14.3337
13.5984
12.8471
12.0811
11.3019
10.5104
9.70786
8.89538
8.07396
7.24461
6.40826
5.56583
4.71819
3.86619
3.01066
2.15241
1.29222
0.430867
-164.344
-161.541
-158.335
-154.771
-150.891
-146.735
-142.34
-137.741
-132.971
-128.061
-123.038
-117.931
-112.763
-107.557
-102.335
-97.117
-91.9197
-86.7599
-81.6527
-76.6116
-71.6487
-66.7753
-62.0011
-57.3347
-52.784
-48.3554
-44.0548
-39.8871
-35.8562
-31.9655
-28.2176
-24.6143
-21.157
-17.8465
-14.6829
-11.666
-8.79504
-6.06901
-3.48642
-1.04546
1.25595
3.42017
5.4498
7.34762
9.11662
10.7599
12.2808
13.6827
14.969
16.1433
17.2092
18.1703
19.0303
19.7929
20.4617
21.0403
21.5325
21.9417
22.2715
22.5255
22.707
22.8194
22.8659
22.8499
22.7743
22.6424
22.4569
22.2209
21.9369
21.6079
21.2362
20.8245
20.375
19.8902
19.3721
18.823
18.2449
17.6397
17.0091
16.3551
15.6793
14.9832
14.2685
13.5364
12.7886
12.0261
11.2504
10.4625
9.66365
8.85487
8.0372
7.21162
6.37908
5.54049
4.69671
3.84859
2.99696
2.14261
1.28633
0.428905
-163.552
-160.762
-157.571
-154.025
-150.164
-146.028
-141.654
-137.077
-132.33
-127.443
-122.445
-117.362
-112.219
-107.039
-101.842
-96.6488
-91.4766
-86.3417
-81.2591
-76.2422
-71.3033
-66.4534
-61.7022
-57.0583
-52.5295
-48.1223
-43.8425
-39.6948
-35.6834
-31.8114
-28.0815
-24.4956
-21.055
-17.7604
-14.6121
-11.6097
-8.75264
-6.03975
-3.46961
-1.04042
1.2499
3.40369
5.42352
7.31219
9.07267
10.7081
12.2216
13.6167
14.8969
16.0655
17.1263
18.0827
18.9386
19.6975
20.363
20.9389
21.4287
21.8359
22.1642
22.4169
22.5975
22.7093
22.7557
22.7397
22.6645
22.5332
22.3487
22.1137
21.8312
21.5037
21.1338
20.7241
20.2768
19.7943
19.2788
18.7323
18.1569
17.5546
16.9271
16.2763
15.6037
14.911
14.1997
13.4712
12.7269
11.9682
11.1962
10.4121
9.61707
8.81218
7.99845
7.17685
6.34833
5.51377
4.67406
3.83003
2.98251
2.13228
1.28013
0.426838
-162.719
-159.943
-156.769
-153.241
-149.399
-145.284
-140.933
-136.38
-131.657
-126.795
-121.822
-116.765
-111.648
-106.494
-101.324
-96.1568
-91.0109
-85.9021
-80.8454
-75.8541
-70.9403
-66.1151
-61.388
-56.7678
-52.2621
-47.8773
-43.6193
-39.4927
-35.5017
-31.6495
-27.9386
-24.3709
-20.9478
-17.67
-14.5377
-11.5506
-8.70808
-6.009
-3.45194
-1.03512
1.24354
3.38636
5.39591
7.27497
9.02648
10.6535
12.1594
13.5474
14.821
15.9837
17.0391
17.9907
18.8422
19.5972
20.2594
20.8323
21.3196
21.7248
22.0513
22.3028
22.4825
22.5937
22.6398
22.6239
22.5492
22.4185
22.2349
22.0011
21.72
21.3942
21.0262
20.6186
20.1736
19.6935
19.1806
18.6369
18.0645
17.4652
16.841
16.1934
15.5242
14.8351
14.1274
13.4026
12.6621
11.9072
11.1392
10.3591
9.5681
8.76732
7.95773
7.14032
6.31601
5.4857
4.65027
3.81054
2.96732
2.12142
1.27361
0.424665
-161.847
-159.086
-155.928
-152.419
-148.598
-144.505
-140.177
-135.648
-130.95
-126.114
-121.168
-116.138
-111.049
-105.923
-100.78
-95.641
-90.5227
-85.4414
-80.4118
-75.4472
-70.5598
-65.7605
-61.0588
-56.4634
-51.9817
-47.6205
-43.3853
-39.2809
-35.3113
-31.4797
-27.7887
-24.2402
-20.8355
-17.5752
-14.4597
-11.4887
-8.66137
-5.97677
-3.43343
-1.02957
1.23687
3.3682
5.36697
7.23595
8.97806
10.5964
12.0942
13.4748
14.7415
15.898
16.9477
17.8942
18.7411
19.4921
20.1507
20.7206
21.2052
21.6082
21.9331
22.1831
22.3619
22.4725
22.5184
22.5026
22.4282
22.2982
22.1156
21.8831
21.6035
21.2795
20.9135
20.508
20.0653
19.5879
19.0777
18.537
17.9676
17.3716
16.7506
16.1065
15.441
14.7555
14.0516
13.3307
12.5942
11.8434
11.0794
10.3035
9.51678
8.72029
7.91505
7.10202
6.28213
5.45628
4.62532
3.7901
2.95141
2.11004
1.26678
0.422387
-160.934
-158.188
-155.049
-151.559
-147.76
-143.69
-139.386
-134.883
-130.212
-125.403
-120.485
-115.484
-110.423
-105.325
-100.212
-95.1017
-90.0122
-84.9595
-79.9583
-75.0217
-70.1619
-65.3896
-60.7144
-56.1449
-51.6886
-47.352
-43.1406
-39.0594
-35.1121
-31.3022
-27.632
-24.1035
-20.718
-17.4761
-14.3782
-11.4239
-8.61252
-5.94307
-3.41406
-1.02376
1.22989
3.3492
5.3367
7.19514
8.92743
10.5366
12.026
13.3988
14.6584
15.8083
16.8521
17.7933
18.6354
19.3822
20.0371
20.6037
21.0856
21.4864
21.8094
22.058
22.2358
22.3458
22.3914
22.3757
22.3017
22.1725
21.9909
21.7597
21.4817
21.1595
20.7955
20.3923
19.9522
19.4774
18.9701
18.4324
17.8663
17.2736
16.6562
16.0157
15.3539
14.6723
13.9724
13.2555
12.5232
11.7766
11.0169
10.2454
9.46311
8.67111
7.87041
7.06197
6.2467
5.42551
4.59924
3.76872
2.93476
2.09814
1.25964
0.420005
-159.981
-157.252
-154.131
-150.662
-146.885
-142.84
-138.562
-134.085
-129.441
-124.661
-119.772
-114.8
-109.769
-104.702
-99.6188
-94.5389
-89.4795
-84.4567
-79.4851
-74.5778
-69.7467
-65.0026
-60.3551
-55.8127
-51.3827
-47.0717
-42.8853
-38.8282
-34.9043
-31.1169
-27.4685
-23.9609
-20.5954
-17.3727
-14.2931
-11.3563
-8.56155
-5.90789
-3.39386
-1.0177
1.22261
3.32938
5.30512
7.15256
8.8746
10.4743
11.9548
13.3195
14.5716
15.7148
16.7524
17.688
18.5251
19.2675
19.9185
20.4818
20.9608
21.3592
21.6803
21.9275
22.1042
22.2136
22.2589
22.2433
22.1697
22.0413
21.8607
21.6309
21.3546
21.0342
20.6724
20.2716
19.8341
19.3621
18.8579
18.3233
17.7605
17.1714
16.5576
15.9209
15.263
14.5854
13.8897
13.1771
12.4491
11.7069
10.9517
10.1848
9.40711
8.6198
7.82383
7.02017
6.20973
5.3934
4.57202
3.74642
2.91739
2.08573
1.25218
0.417519
-158.989
-156.277
-153.176
-149.728
-145.975
-141.954
-137.702
-133.253
-128.639
-123.888
-119.029
-114.088
-109.089
-104.053
-99.0012
-93.9527
-88.9247
-83.9331
-78.9923
-74.1154
-69.3143
-64.5996
-59.9809
-55.4666
-51.0641
-46.7799
-42.6194
-38.5875
-34.6879
-30.924
-27.2982
-23.8123
-20.4677
-17.265
-14.2045
-11.2858
-8.50847
-5.87126
-3.37282
-1.01139
1.21503
3.30874
5.27223
7.10821
8.81957
10.4093
11.8807
13.2369
14.4813
15.6173
16.6485
17.5783
18.4103
19.148
19.795
20.3548
20.8309
21.2268
21.5459
21.7915
21.9671
22.0758
22.1209
22.1054
22.0323
21.9046
21.7252
21.4968
21.2222
20.9038
20.5443
20.1459
19.7111
19.2421
18.7409
18.2097
17.6504
17.0649
16.4549
15.8222
15.1684
14.495
13.8035
13.0954
12.3719
11.6343
10.8838
10.1216
9.34878
8.56635
7.77532
6.97664
6.17123
5.35996
4.54367
3.72319
2.89931
2.0728
1.24442
0.41493
-157.958
-155.264
-152.182
-148.757
-145.028
-141.034
-136.809
-132.389
-127.804
-123.085
-118.258
-113.348
-108.381
-103.378
-98.3591
-93.3434
-88.348
-83.3888
-78.48
-73.6347
-68.8647
-64.1806
-59.5919
-55.1069
-50.7329
-46.4765
-42.343
-38.3372
-34.463
-30.7234
-27.1211
-23.6579
-20.3349
-17.153
-14.1123
-11.2126
-8.45329
-5.83318
-3.35094
-1.00483
1.20715
3.28728
5.23804
7.06211
8.76237
10.3418
11.8036
13.151
14.3874
15.516
16.5405
17.4643
18.2909
19.0238
19.6666
20.2228
20.6958
21.0891
21.4061
21.6502
21.8246
21.9327
21.9774
21.962
21.8894
21.7625
21.5843
21.3574
21.0845
20.7682
20.411
20.0153
19.5833
19.1173
18.6194
18.0916
17.536
16.9542
16.3482
15.7196
15.07
14.401
13.714
13.0105
12.2916
11.5588
10.8132
10.056
9.28815
8.51079
7.72489
6.9314
6.13121
5.3252
4.5142
3.69904
2.8805
2.05935
1.23635
0.412239
-156.888
-154.212
-151.151
-147.749
-144.046
-140.078
-135.883
-131.492
-126.939
-122.251
-117.456
-112.58
-107.647
-102.678
-97.6927
-92.711
-87.7495
-82.8238
-77.9483
-73.1358
-68.3982
-63.7459
-59.1882
-54.7336
-50.3893
-46.1616
-42.0561
-38.0775
-34.2295
-30.5153
-26.9374
-23.4976
-20.1972
-17.0368
-14.0167
-11.1367
-8.39602
-5.79367
-3.32824
-0.998024
1.19898
3.26501
5.20255
7.01427
8.70301
10.2718
11.7237
13.0619
14.2899
15.4109
16.4285
17.346
18.167
18.8949
19.5334
20.0858
20.5556
20.9462
21.2611
21.5035
21.6768
21.7841
21.8285
21.8132
21.7411
21.6151
21.4381
21.2127
20.9417
20.6275
20.2727
19.8797
19.4506
18.9878
18.4933
17.9691
17.4172
16.8394
16.2374
15.6131
14.9679
14.3034
13.6211
12.9223
12.2084
11.4805
10.74
9.98785
9.22522
8.45313
7.67256
6.88444
6.08967
5.28912
4.48362
3.67398
2.86099
2.0454
1.22797
0.409446
-155.779
-153.122
-150.083
-146.705
-143.028
-139.088
-134.922
-130.563
-126.042
-121.387
-116.626
-111.785
-106.886
-101.952
-97.0023
-92.0558
-87.1293
-82.2385
-77.3974
-72.619
-67.9148
-63.2953
-58.7699
-54.3467
-50.0331
-45.8354
-41.7589
-37.8084
-33.9876
-30.2996
-26.747
-23.3315
-20.0544
-16.9164
-13.9177
-11.058
-8.33668
-5.75272
-3.30472
-0.990971
1.1905
3.24193
5.16578
6.96469
8.6415
10.1992
11.6408
12.9696
14.1889
15.302
16.3124
17.2234
18.0386
18.7614
19.3953
19.9438
20.4103
20.7982
21.1108
21.3516
21.5236
21.6301
21.6742
21.659
21.5874
21.4623
21.2866
21.0628
20.7937
20.4818
20.1295
19.7392
19.3131
18.8536
18.3625
17.8421
17.2941
16.7203
16.1227
15.5028
14.8621
14.2023
13.5248
12.831
12.1221
11.3994
10.6641
9.91726
9.16002
8.39339
7.61833
6.83578
6.04663
5.25174
4.45193
3.64802
2.84077
2.03094
1.21929
0.406553
-154.632
-151.994
-148.978
-145.625
-141.974
-138.064
-133.929
-129.602
-125.113
-120.493
-115.767
-110.962
-106.099
-101.201
-96.2879
-91.3778
-86.4877
-81.6328
-76.8274
-72.0842
-67.4146
-62.8292
-58.3371
-53.9465
-49.6647
-45.4978
-41.4514
-37.5299
-33.7373
-30.0765
-26.55
-23.1597
-19.9067
-16.7918
-13.8152
-10.9765
-8.27528
-5.71035
-3.28038
-0.983673
1.18173
3.21806
5.12774
6.9134
8.57786
10.1241
11.5551
12.8741
14.0844
15.1893
16.1922
17.0965
17.9057
18.6232
19.2525
19.7969
20.26
20.645
20.9554
21.1943
21.3651
21.4708
21.5146
21.4995
21.4285
21.3043
21.1298
20.9077
20.6405
20.3309
19.9812
19.5938
19.1709
18.7147
18.2273
17.7107
17.1667
16.5972
16.0039
15.3886
14.7527
14.0978
13.4252
12.7365
12.0328
11.3154
10.5855
9.84422
9.09256
8.33158
7.56223
6.78544
6.0021
5.21306
4.41915
3.62115
2.81984
2.01599
1.21031
0.403558
-153.447
-150.829
-147.836
-144.508
-140.886
-137.005
-132.902
-128.608
-124.154
-119.569
-114.88
-110.111
-105.286
-100.425
-95.5498
-90.6773
-85.8246
-81.007
-76.2384
-71.5316
-66.8978
-62.3475
-57.8899
-53.5329
-49.2839
-45.149
-41.1336
-37.2422
-33.4786
-29.8459
-26.3465
-22.9822
-19.7541
-16.6631
-13.7093
-10.8924
-8.21184
-5.66658
-3.25523
-0.976133
1.17267
3.19339
5.08843
6.8604
8.5121
10.0465
11.4665
12.7754
13.9764
15.0729
16.0681
16.9655
17.7685
18.4804
19.1049
19.6452
20.1047
20.4868
20.7947
21.0318
21.2013
21.3062
21.3497
21.3347
21.2642
21.141
20.9678
20.7474
20.4823
20.1751
19.828
19.4436
19.0239
18.5713
18.0876
17.5749
17.0351
16.47
15.8813
15.2706
14.6396
13.9897
13.3223
12.6388
11.9406
11.2287
10.5044
9.76875
9.02286
8.26771
7.50425
6.73342
5.95609
5.1731
4.38527
3.59339
2.79823
2.00053
1.20104
0.400465
-152.224
-149.627
-146.657
-143.356
-139.763
-135.913
-131.842
-127.583
-123.164
-118.616
-113.964
-109.233
-104.446
-99.6247
-94.7881
-89.9545
-85.1405
-80.3613
-75.6307
-70.9613
-66.3645
-61.8505
-57.4284
-53.1062
-48.891
-44.7891
-40.8057
-36.9453
-33.2117
-29.608
-26.1365
-22.7989
-19.5966
-16.5303
-13.6
-10.8056
-8.14638
-5.62141
-3.22928
-0.968352
1.16332
3.16793
5.04786
6.80571
8.44424
9.96636
11.3751
12.6736
13.865
14.9527
15.94
16.8302
17.6268
18.3331
18.9526
19.4885
19.9444
20.3234
20.629
20.8642
21.0323
21.1364
21.1795
21.1646
21.0947
20.9724
20.8007
20.582
20.319
20.0142
19.67
19.2886
18.8723
18.4232
17.9434
17.4348
16.8993
16.3387
15.7547
15.1489
14.5229
13.8782
13.2161
12.5381
11.8454
11.1392
10.4206
9.69088
8.95093
8.2018
7.44443
6.67974
5.9086
5.13186
4.35031
3.56474
2.77592
1.98458
1.19146
0.397272
-150.963
-148.387
-145.443
-142.169
-138.605
-134.788
-130.75
-126.526
-122.144
-117.634
-113.02
-108.328
-103.581
-98.7995
-94.003
-89.2094
-84.4353
-79.6956
-75.0043
-70.3736
-65.8149
-61.3382
-56.9527
-52.6663
-48.4861
-44.4181
-40.4677
-36.6393
-32.9367
-29.3628
-25.92
-22.6101
-19.4343
-16.3933
-13.4873
-10.7161
-8.07891
-5.57485
-3.20254
-0.960333
1.15369
3.14169
5.00605
6.74934
8.3743
9.88381
11.2809
12.5686
13.7502
14.8289
15.808
16.6908
17.4808
18.1813
18.7956
19.3271
19.7792
20.1551
20.4581
20.6914
20.8581
20.9613
21.0041
20.9893
20.9199
20.7987
20.6284
20.4115
20.1507
19.8484
19.507
19.1288
18.716
18.2706
17.7948
17.2904
16.7593
16.2033
15.6242
15.0234
14.4026
13.7632
13.1066
12.4342
11.7473
11.0469
10.3343
9.61061
8.87679
8.13386
7.38277
6.62441
5.85966
5.08935
4.31428
3.53522
2.75293
1.96815
1.18159
0.393982
-149.665
-147.112
-144.192
-140.946
-137.413
-133.629
-129.626
-125.438
-121.094
-116.622
-112.048
-107.397
-102.691
-97.95
-93.1947
-88.4423
-83.7092
-79.0104
-74.3593
-69.7685
-65.2489
-60.8108
-56.463
-52.2135
-48.0692
-44.0362
-40.1198
-36.3243
-32.6535
-29.1103
-25.6971
-22.4157
-19.2672
-16.2524
-13.3714
-10.6239
-8.00944
-5.52691
-3.175
-0.952076
1.14377
3.11467
4.963
6.6913
8.30229
9.79882
11.1839
12.4605
13.6319
14.7014
15.672
16.5473
17.3305
18.0249
18.634
19.1609
19.6091
19.9818
20.2822
20.5134
20.6787
20.7811
20.8235
20.8088
20.7401
20.6199
20.451
20.236
19.9775
19.6778
19.3393
18.9643
18.555
18.1135
17.6418
17.1417
16.6152
16.064
15.4898
14.8942
14.2787
13.6449
12.9939
12.3273
11.6462
10.9519
10.2455
9.52797
8.80046
8.06392
7.31929
6.56745
5.80928
5.04559
4.27718
3.50482
2.72926
1.95122
1.17143
0.390594
-148.33
-145.799
-142.906
-139.689
-136.188
-132.437
-128.47
-124.319
-120.014
-115.582
-111.049
-106.439
-101.775
-97.0763
-92.3634
-87.6534
-82.9626
-78.3056
-73.696
-69.1461
-64.6669
-60.2684
-55.9594
-51.7477
-47.6404
-43.6434
-39.7619
-36.0003
-32.3622
-28.8506
-25.4679
-22.2158
-19.0954
-16.1074
-13.2521
-10.5292
-7.938
-5.47761
-3.14668
-0.943585
1.13356
3.08689
4.91873
6.63162
8.22823
9.71141
11.0841
12.3494
13.5103
14.5702
15.5322
16.3997
17.1759
17.8642
18.4678
18.99
19.4342
19.8036
20.1013
20.3305
20.4943
20.5957
20.6377
20.6232
20.5551
20.4359
20.2686
20.0555
19.7993
19.5022
19.1668
18.7952
18.3895
17.9519
17.4844
16.9888
16.467
15.9207
15.3516
14.7614
14.1514
13.5231
12.878
12.2174
11.5424
10.8542
10.1541
9.44298
8.72196
7.99199
7.254
6.50887
5.75746
5.00058
4.23903
3.47356
2.70491
1.93382
1.16098
0.38711
-146.958
-144.451
-141.584
-138.398
-134.928
-131.212
-127.282
-123.17
-118.904
-114.513
-110.022
-105.455
-100.833
-96.1787
-91.5093
-86.8429
-82.1954
-77.5815
-73.0146
-68.5067
-64.069
-59.7111
-55.4419
-51.2692
-47.1999
-43.2398
-39.3942
-35.6674
-32.0629
-28.5838
-25.2324
-22.0103
-18.9188
-15.9585
-13.1295
-10.4318
-7.8646
-5.42696
-3.11759
-0.934861
1.12308
3.05834
4.87325
6.57029
8.15215
9.62161
10.9816
12.2352
13.3854
14.4355
15.3886
16.2481
17.0171
17.699
18.297
18.8144
19.2545
19.6204
19.9154
20.1425
20.3047
20.4052
20.4469
20.4325
20.365
20.247
20.0811
19.87
19.6162
19.3219
18.9896
18.6214
18.2195
17.7859
17.3227
16.8317
16.3147
15.7735
15.2097
14.6249
14.0205
13.3981
12.759
12.1044
11.4356
10.7539
10.0602
9.35566
8.64131
7.91809
7.18692
6.44868
5.70422
4.95434
4.19983
3.44144
2.6799
1.91594
1.15025
0.38353
-145.55
-143.067