/*--------------------------------*- C++ -*----------------------------------*\
| =========                 |                                                 |
| \\      /  F ield         | OpenFOAM: The Open Source CFD Toolbox           |
|  \\    /   O peration     | Version:  2406                                  |
|   \\  /    A nd           | Website:  www.openfoam.com                      |
|    \\/     M anipulation  |                                                 |
\*---------------------------------------------------------------------------*/
FoamFile
{
    version     2.0;
    format      ascii;
    arch        "LSB;label=32;scalar=64";
    class       volScalarField;
    location    "50";
    object      gradTy;
}
// * * * * * * * * * * * * * * * * * * * * * * * * * * * * * * * * * * * * * //

dimensions      [0 -1 0 1 0 0 0];

internalField   nonuniform List<scalar> 
20000
(
307.886
292.74
278.151
264.109
250.608
237.638
225.191
213.256
201.82
190.873
180.403
170.398
160.845
151.729
143.04
134.762
126.884
119.391
112.271
105.509
99.0923
93.0083
87.2437
81.7859
76.6223
71.7405
67.1287
62.7749
58.6677
54.7958
51.1483
47.7147
44.4847
41.4483
38.5958
35.918
33.4059
31.0509
28.8445
26.779
24.8464
23.0396
21.3515
19.7753
18.3045
16.9331
15.6552
14.4651
13.3576
12.3277
11.3704
10.4813
9.65599
8.89046
8.18082
7.52339
6.91474
6.3516
5.8309
5.34975
4.90541
4.49533
4.1171
3.76847
3.44731
3.15164
2.87959
2.62943
2.39953
2.18837
1.99453
1.81668
1.65358
1.5041
1.36715
1.24173
1.12692
1.02186
0.925734
0.837807
0.757383
0.683817
0.616512
0.554912
0.498499
0.446794
0.399348
0.355744
0.315594
0.278531
0.244216
0.212327
0.18256
0.154631
0.128265
0.103202
0.0791918
0.0559921
0.0333668
0.0110842
307.81
292.668
278.082
264.044
250.546
237.58
225.135
213.203
201.77
190.826
180.359
170.356
160.805
151.692
143.004
134.729
126.853
119.362
112.243
105.483
99.0679
92.9854
87.2222
81.7657
76.6034
71.7228
67.1121
62.7594
58.6532
54.7823
51.1357
47.703
44.4737
41.438
38.5863
35.9091
33.3977
31.0432
28.8374
26.7724
24.8403
23.034
21.3462
19.7704
18.3
16.929
15.6513
14.4616
13.3543
12.3246
11.3676
10.4787
9.65361
8.88827
8.1788
7.52154
6.91304
6.35004
5.82946
5.34843
4.9042
4.49422
4.11609
3.76754
3.44646
3.15086
2.87888
2.62878
2.39894
2.18783
1.99403
1.81623
1.65318
1.50373
1.36681
1.24142
1.12664
1.0216
0.925506
0.837601
0.757196
0.683649
0.61636
0.554775
0.498376
0.446684
0.39925
0.355657
0.315516
0.278463
0.244156
0.212274
0.182515
0.154592
0.128233
0.103176
0.0791723
0.0559784
0.0333586
0.0110815
307.658
292.524
277.944
263.913
250.422
237.463
225.024
213.097
201.67
190.732
180.27
170.272
160.725
151.617
142.934
134.663
126.79
119.303
112.188
105.431
99.019
92.9394
87.1791
81.7253
76.5655
71.6874
67.079
62.7284
58.6242
54.7552
51.1105
47.6794
44.4518
41.4176
38.5672
35.8914
33.3812
31.0279
28.8232
26.7591
24.8281
23.0226
21.3357
19.7606
18.291
16.9206
15.6436
14.4544
13.3478
12.3185
11.362
10.4735
9.64884
8.88388
8.17476
7.51783
6.90963
6.3469
5.82659
5.34579
4.90178
4.492
4.11406
3.76568
3.44476
3.1493
2.87746
2.62748
2.39776
2.18675
1.99305
1.81533
1.65236
1.50298
1.36613
1.24081
1.12609
1.0211
0.925049
0.837187
0.756823
0.683311
0.616056
0.554501
0.498131
0.446463
0.399053
0.355481
0.31536
0.278325
0.244035
0.21217
0.182425
0.154516
0.12817
0.103126
0.0791333
0.0559508
0.0333422
0.0110761
307.43
292.307
277.739
263.718
250.237
237.287
224.858
212.939
201.521
190.591
180.136
170.146
160.606
151.505
142.828
134.563
126.696
119.215
112.105
105.353
98.9456
92.8706
87.1146
81.6648
76.5088
71.6343
67.0293
62.682
58.5808
54.7147
51.0726
47.6441
44.4189
41.3869
38.5387
35.8648
33.3565
31.0049
28.8018
26.7393
24.8097
23.0055
21.3199
19.746
18.2775
16.9081
15.632
14.4437
13.3379
12.3094
11.3536
10.4658
9.6417
8.8773
8.16871
7.51226
6.90451
6.3422
5.82227
5.34183
4.89815
4.48868
4.11101
3.76289
3.44221
3.14697
2.87533
2.62554
2.39598
2.18513
1.99157
1.81399
1.65114
1.50187
1.36512
1.23989
1.12525
1.02035
0.924365
0.836568
0.756262
0.682806
0.6156
0.554091
0.497762
0.446133
0.398757
0.355218
0.315127
0.27812
0.243855
0.212013
0.18229
0.154402
0.128075
0.103049
0.0790749
0.0559095
0.0333175
0.0110679
307.126
292.019
277.464
263.457
249.99
237.052
224.636
212.729
201.322
190.402
179.958
169.978
160.447
151.355
142.687
134.43
126.571
119.097
111.994
105.249
98.8479
92.7789
87.0285
81.5841
76.4332
71.5636
66.9631
62.62
58.5229
54.6606
51.0222
47.5971
44.375
41.346
38.5006
35.8294
33.3235
30.9743
28.7734
26.7129
24.7852
22.9828
21.2988
19.7265
18.2594
16.8914
15.6166
14.4295
13.3247
12.2972
11.3423
10.4554
9.63217
8.86853
8.16064
7.50484
6.89769
6.33594
5.81652
5.33655
4.89331
4.48424
4.10695
3.75918
3.43881
3.14386
2.87249
2.62295
2.39361
2.18297
1.98961
1.8122
1.64951
1.50039
1.36377
1.23867
1.12414
1.01934
0.923452
0.835742
0.755516
0.682132
0.614993
0.553544
0.497271
0.445693
0.398364
0.354868
0.314816
0.277845
0.243614
0.211804
0.182111
0.15425
0.127949
0.102948
0.0789969
0.0558543
0.0332847
0.011057
306.747
291.658
277.121
263.132
249.681
236.759
224.358
212.466
201.073
190.167
179.736
169.768
160.249
151.168
142.511
134.264
126.415
118.95
111.855
105.118
98.7258
92.6642
86.921
81.4833
76.3388
71.4751
66.8803
62.5427
58.4506
54.5931
50.9591
47.5383
44.3202
41.295
38.453
35.7852
33.2823
30.936
28.7378
26.6799
24.7545
22.9544
21.2725
19.7021
18.2368
16.8705
15.5973
14.4116
13.3082
12.2821
11.3283
10.4425
9.62027
8.85758
8.15056
7.49557
6.88917
6.32811
5.80934
5.32996
4.88727
4.4787
4.10188
3.75453
3.43456
3.13998
2.86894
2.61971
2.39066
2.18028
1.98715
1.80996
1.64747
1.49854
1.36209
1.23714
1.12275
1.01808
0.922312
0.83471
0.754583
0.681289
0.614233
0.552861
0.496657
0.445143
0.397872
0.35443
0.314427
0.277502
0.243314
0.211542
0.181886
0.154059
0.127791
0.102821
0.0788994
0.0557854
0.0332436
0.0110433
306.292
291.225
276.71
262.741
249.31
236.408
224.025
212.151
200.775
189.885
179.469
169.516
160.011
150.944
142.299
134.065
126.227
118.773
111.689
104.963
98.5793
92.5267
86.792
81.3624
76.2255
71.3691
66.7811
62.4499
58.3639
54.5121
50.8835
47.4677
44.2544
41.2337
38.396
35.732
33.233
30.8901
28.6952
26.6403
24.7178
22.9204
21.241
19.6729
18.2098
16.8455
15.5741
14.3902
13.2885
12.2638
11.3115
10.427
9.606
8.84444
8.13846
7.48445
6.87895
6.31872
5.80072
5.32205
4.88002
4.47206
4.09579
3.74896
3.42946
3.13532
2.86468
2.61582
2.38711
2.17704
1.9842
1.80727
1.64503
1.49631
1.36007
1.2353
1.12109
1.01657
0.920944
0.833472
0.753464
0.680279
0.613322
0.552041
0.49592
0.444483
0.397282
0.353904
0.313961
0.277091
0.242953
0.211229
0.181616
0.153831
0.127601
0.102668
0.0787825
0.0557027
0.0331943
0.011027
305.761
290.72
276.231
262.286
248.878
235.999
223.637
211.784
200.427
189.556
179.158
169.222
159.734
150.682
142.053
133.833
126.009
118.568
111.496
104.781
98.4084
92.3664
86.6416
81.2214
76.0934
71.2454
66.6654
62.3416
58.2628
54.4176
50.7954
47.3855
44.1777
41.1622
38.3295
35.6701
33.1754
30.8366
28.6455
26.5942
24.675
22.8806
21.2042
19.6388
18.1782
16.8163
15.5472
14.3653
13.2655
12.2426
11.2919
10.4089
9.58936
8.82911
8.12436
7.47148
6.86703
6.30778
5.79067
5.31283
4.87156
4.46431
4.0887
3.74247
3.42352
3.12989
2.85972
2.61129
2.38298
2.17327
1.98077
1.80414
1.64218
1.49372
1.35771
1.23316
1.11915
1.01481
0.919349
0.832029
0.752159
0.679101
0.61226
0.551085
0.495062
0.443713
0.396594
0.353291
0.313418
0.276611
0.242532
0.210863
0.181302
0.153565
0.127381
0.102491
0.0786461
0.0556063
0.0331369
0.0110079
305.155
290.144
275.683
261.766
248.385
235.531
223.194
211.364
200.03
189.18
178.803
168.887
159.418
150.383
141.771
133.567
125.759
118.332
111.275
104.573
98.2133
92.1833
86.4698
81.0604
75.9426
71.1042
66.5332
62.2181
58.1473
54.3097
50.6947
47.2915
44.0901
41.0806
38.2535
35.5994
33.1096
30.7754
28.5887
26.5414
24.6261
22.8353
21.1621
19.5999
18.1422
16.7829
15.5163
14.3368
13.2392
12.2183
11.2695
10.3883
9.57035
8.81161
8.10826
7.45667
6.85342
6.29527
5.77919
5.3023
4.8619
4.45546
4.08059
3.73505
3.41674
3.12369
2.85405
2.60611
2.37825
2.16896
1.97684
1.80057
1.63892
1.49076
1.35502
1.23072
1.11693
1.0128
0.917527
0.83038
0.750669
0.677755
0.611047
0.549993
0.494081
0.442834
0.395809
0.352592
0.312797
0.276063
0.242052
0.210445
0.180943
0.153261
0.127128
0.102288
0.0784903
0.0554962
0.0330713
0.0109861
304.473
289.496
275.068
261.182
247.83
235.005
222.695
210.892
199.583
188.758
178.404
168.509
159.062
150.048
141.454
133.269
125.478
118.068
111.026
104.339
97.994
91.9774
86.2767
80.8794
75.773
70.9454
66.3846
62.0791
58.0174
54.1885
50.5814
47.1859
43.9917
40.9889
38.168
35.5199
33.0357
30.7067
28.5249
26.4822
24.5711
22.7843
21.1149
19.5561
18.1017
16.7455
15.4817
14.3048
13.2096
12.191
11.2444
10.3651
9.54898
8.79193
8.09015
7.44002
6.83811
6.28122
5.76629
5.29046
4.85105
4.44551
4.07148
3.72671
3.40911
3.11671
2.84768
2.60029
2.37294
2.16412
1.97243
1.79655
1.63526
1.48743
1.352
1.22797
1.11444
1.01054
0.915479
0.828526
0.748993
0.676242
0.609683
0.548765
0.492978
0.441845
0.394925
0.351805
0.312099
0.275447
0.241512
0.209976
0.180539
0.152919
0.126845
0.102059
0.0783152
0.0553723
0.0329975
0.0109616
303.717
288.777
274.384
260.533
247.214
234.421
222.142
210.368
199.087
188.288
177.961
168.091
158.666
149.675
141.103
132.938
125.166
117.775
110.751
104.08
97.7505
91.7488
86.0623
80.6784
75.5847
70.7691
66.2197
61.9248
57.8732
54.0538
50.4558
47.0687
43.8824
40.887
38.0732
35.4317
32.9536
30.6304
28.454
26.4164
24.51
22.7277
21.0624
19.5075
18.0567
16.7039
15.4432
14.2693
13.1768
12.1607
11.2164
10.3394
9.52525
8.77009
8.07005
7.42153
6.82112
6.26561
5.75196
5.27732
4.839
4.43447
4.06136
3.71745
3.40064
3.10897
2.84061
2.59383
2.36705
2.15875
1.96753
1.79208
1.6312
1.48374
1.34864
1.22492
1.11167
1.00803
0.913205
0.826468
0.747132
0.674563
0.608169
0.547402
0.491753
0.440748
0.393944
0.350931
0.311324
0.274763
0.240912
0.209454
0.180091
0.152539
0.12653
0.101806
0.0781207
0.0552349
0.0329155
0.0109344
302.885
287.986
273.633
259.819
246.538
233.779
221.534
209.792
198.542
187.773
177.473
167.631
158.232
149.265
140.717
132.574
124.824
117.452
110.447
103.795
97.4829
91.4976
85.8267
80.4575
75.3777
70.5753
66.0384
61.7553
57.7148
53.9058
50.3176
46.9398
43.7622
40.7751
37.969
35.3347
32.8634
30.5466
28.3761
26.344
24.4429
22.6655
21.0047
19.4541
18.0073
16.6581
15.4009
14.2302
13.1407
12.1274
11.1857
10.311
9.49917
8.74608
8.04796
7.40122
6.80245
6.24846
5.73621
5.26287
4.82575
4.42233
4.05025
3.70727
3.39133
3.10046
2.83283
2.58673
2.36057
2.15284
1.96214
1.78718
1.62674
1.47968
1.34495
1.22157
1.10863
1.00527
0.910705
0.824206
0.745088
0.672717
0.606504
0.545904
0.490408
0.439542
0.392866
0.349971
0.310472
0.274011
0.240253
0.208881
0.179598
0.152121
0.126183
0.101527
0.077907
0.0550837
0.0328255
0.0109044
301.979
287.124
272.814
259.042
245.8
233.079
220.871
209.164
197.948
187.211
176.942
167.129
157.759
148.818
140.296
132.177
124.45
117.101
110.117
103.485
97.1912
91.2239
85.5699
80.2167
75.1522
70.3641
65.8408
61.5705
57.5421
53.7445
50.1671
46.7993
43.6313
40.6531
37.8553
35.2289
32.765
30.4552
28.2912
26.2652
24.3698
22.5976
20.9419
19.3959
17.9534
16.6083
15.3549
14.1876
13.1014
12.0912
11.1523
10.2802
9.47075
8.71991
8.02388
7.37907
6.7821
6.22976
5.71905
5.24712
4.81131
4.4091
4.03813
3.69618
3.38118
3.09118
2.82436
2.579
2.35351
2.1464
1.95627
1.78183
1.62187
1.47525
1.34093
1.21792
1.10531
1.00226
0.907981
0.821741
0.742859
0.670705
0.60469
0.544272
0.488941
0.438227
0.391691
0.348924
0.309543
0.273192
0.239534
0.208256
0.179061
0.151667
0.125806
0.101224
0.077674
0.054919
0.0327273
0.0108718
300.998
286.192
271.928
258.201
245.002
232.322
220.153
208.485
197.305
186.603
176.368
166.586
157.246
148.335
139.84
131.748
124.046
116.721
109.759
103.148
96.8755
90.9276
85.2919
79.9562
74.9081
70.1356
65.6269
61.3705
57.3552
53.57
50.0041
46.6473
43.4896
40.5211
37.7324
35.1145
32.6586
30.3562
28.1993
26.1799
24.2906
22.5242
20.8739
19.3329
17.8951
16.5543
15.305
14.1416
13.0588
12.0519
11.116
10.2468
9.43999
8.69159
7.99782
7.35511
6.76007
6.20953
5.70048
5.23008
4.79569
4.39478
4.02501
3.68418
3.3702
3.08114
2.81518
2.57062
2.34586
2.13943
1.94992
1.77605
1.6166
1.47046
1.33657
1.21396
1.10172
0.999006
0.905033
0.819073
0.740447
0.668527
0.602727
0.542505
0.487354
0.436805
0.39042
0.347791
0.308538
0.272305
0.238757
0.20758
0.17848
0.151174
0.125398
0.100895
0.0774219
0.0547408
0.0326211
0.0108366
299.943
285.189
270.975
257.296
244.143
231.508
219.382
207.754
196.613
185.949
175.75
166.002
156.695
147.815
139.35
131.286
123.611
116.312
109.374
102.787
96.536
90.6088
84.993
79.6759
74.6455
69.8898
65.3969
61.1554
57.1542
53.3822
49.8288
46.4838
43.3371
40.379
37.6001
34.9914
32.5441
30.2498
28.1004
26.0881
24.2055
22.4453
20.8007
19.2651
17.8324
16.4963
15.2513
14.092
13.0131
12.0097
11.0771
10.2109
9.40691
8.66113
7.96979
7.32933
6.73638
6.18777
5.6805
5.21175
4.77888
4.37938
4.01091
3.67127
3.35839
3.07035
2.80532
2.56161
2.33764
2.13193
1.94309
1.76982
1.61094
1.46531
1.33189
1.20971
1.09786
0.995505
0.901862
0.816203
0.737853
0.666184
0.600615
0.540604
0.485646
0.435274
0.389052
0.346573
0.307457
0.271351
0.23792
0.206853
0.177854
0.150645
0.124958
0.100542
0.0771507
0.054549
0.0325068
0.0107986
298.814
284.115
269.955
256.327
243.224
230.637
218.556
206.972
195.873
185.249
175.088
165.377
156.105
147.259
138.825
130.792
123.146
115.874
108.963
102.4
96.1726
90.2678
84.673
79.376
74.3646
69.6267
65.1507
60.9252
56.939
53.1812
49.6413
46.3089
43.174
40.227
37.4586
34.8597
32.4216
30.136
27.9947
25.9899
24.1144
22.3608
20.7224
19.1926
17.7652
16.4342
15.1939
14.0389
12.9641
11.9644
11.0354
10.1725
9.3715
8.62853
7.93979
7.30174
6.71102
6.16448
5.65912
5.19214
4.76089
4.36289
3.99581
3.65745
3.34575
3.05879
2.79476
2.55197
2.32884
2.1239
1.93577
1.76316
1.60487
1.45979
1.32687
1.20515
1.09373
0.991759
0.898468
0.813131
0.735076
0.663677
0.598355
0.538569
0.483819
0.433636
0.387588
0.345269
0.306301
0.27033
0.237025
0.206075
0.177185
0.150078
0.124488
0.100164
0.0768604
0.0543438
0.0323845
0.010758
297.612
282.971
268.868
255.295
242.245
229.708
217.676
206.139
195.085
184.504
174.383
164.712
155.477
146.666
138.267
130.265
122.65
115.407
108.524
101.988
95.7855
89.9044
84.3322
79.0565
74.0652
69.3464
64.8885
60.68
56.7098
52.9672
49.4415
46.1224
43.0002
40.0651
37.3078
34.7194
32.2911
30.0147
27.882
25.8853
24.0173
22.2708
20.639
19.1154
17.6937
16.3681
15.1328
13.9824
12.9119
11.9163
10.991
10.1315
9.33378
8.5938
7.90783
7.27235
6.68401
6.13966
5.63634
5.17124
4.74173
4.34533
3.97973
3.64273
3.33229
3.04648
2.78351
2.5417
2.31947
2.11536
1.92798
1.75607
1.59842
1.45392
1.32153
1.2003
1.08933
0.987768
0.894852
0.809859
0.732118
0.661007
0.595947
0.536402
0.481872
0.431891
0.386028
0.343879
0.305068
0.269242
0.236071
0.205246
0.176472
0.149474
0.123987
0.0997605
0.0765512
0.0541251
0.0322542
0.0107147
296.335
281.758
267.715
254.201
241.206
228.723
216.743
205.255
194.248
183.712
173.635
164.006
154.81
146.037
137.674
129.707
122.124
114.912
108.059
101.55
95.3747
89.5189
83.9706
78.7175
73.7476
69.0491
64.6102
60.4198
56.4667
52.74
49.2294
45.9247
42.8158
39.8933
37.1478
34.5705
32.1527
29.886
27.7624
25.7743
23.9143
22.1753
20.5505
19.0334
17.6178
16.2979
15.0679
13.9225
12.8565
11.8652
10.9438
10.0881
9.29375
8.55695
7.87393
7.24117
6.65535
6.11334
5.61217
5.14906
4.7214
4.3267
3.96266
3.62711
3.318
3.03342
2.77158
2.5308
2.30953
2.10629
1.91972
1.74854
1.59156
1.44768
1.31587
1.19516
1.08466
0.983533
0.891016
0.806387
0.728979
0.658173
0.593392
0.534102
0.479806
0.43004
0.384373
0.342405
0.30376
0.268088
0.235059
0.204366
0.175716
0.148833
0.123456
0.0993329
0.0762231
0.0538931
0.032116
0.0106688
294.986
280.475
266.496
253.043
240.108
227.682
215.756
204.32
193.364
182.876
172.845
163.259
154.105
145.372
137.047
129.116
121.568
114.389
107.567
101.088
94.9404
89.1113
83.5882
78.3591
73.4118
68.7346
64.316
60.1447
56.2095
52.4999
49.0053
45.7156
42.6209
39.7116
36.9787
34.4131
32.0063
29.7499
27.636
25.657
23.8054
22.0743
20.4569
18.9467
17.5376
16.2237
14.9993
13.8591
12.798
11.8112
10.894
10.0421
9.25144
8.51799
7.83807
7.2082
6.62505
6.0855
5.58662
5.12562
4.6999
4.307
3.94462
3.6106
3.30289
3.01961
2.75896
2.51928
2.29901
2.0967
1.91098
1.74058
1.58432
1.44109
1.30988
1.18972
1.07972
0.979055
0.886959
0.802716
0.725661
0.655177
0.590691
0.531671
0.477622
0.428082
0.382624
0.340847
0.302378
0.266868
0.233989
0.203436
0.174916
0.148156
0.122894
0.0988808
0.0758761
0.0536478
0.0319698
0.0106202
293.564
279.123
265.212
251.823
238.95
226.584
214.716
203.335
192.432
181.994
172.012
162.472
153.362
144.671
136.386
128.494
120.982
113.838
107.048
100.601
94.4827
88.6817
83.1853
77.9813
73.0579
68.4033
64.006
59.8547
55.9386
52.2468
48.769
45.4952
42.4154
39.5202
36.8004
34.2472
31.852
29.6065
27.5028
25.5333
23.6907
21.9679
20.3583
18.8554
17.4531
16.1455
14.927
13.7923
12.7363
11.7542
10.8415
9.99373
9.20684
8.47692
7.80029
7.17345
6.59311
6.05617
5.55969
5.10091
4.67724
4.28624
3.92561
3.59319
3.28697
3.00505
2.74566
2.50714
2.28793
2.08659
1.90176
1.73219
1.57668
1.43415
1.30356
1.18398
1.07451
0.974336
0.882684
0.798847
0.722163
0.652019
0.587844
0.529109
0.47532
0.426019
0.38078
0.339204
0.30092
0.265581
0.232862
0.202455
0.174073
0.147442
0.122302
0.0984042
0.0755104
0.0533893
0.0318157
0.010569
292.07
277.702
263.862
250.541
237.734
225.431
213.623
202.3
191.452
181.068
171.136
161.645
152.582
143.935
135.692
127.84
120.366
113.258
106.503
100.089
94.0017
88.2302
82.7618
77.5843
72.686
68.055
63.6801
59.55
55.6538
51.9808
48.5207
45.2635
42.1994
39.319
36.6131
34.0728
31.6898
29.4557
27.3628
25.4033
23.5701
21.8561
20.2547
18.7594
17.3642
16.0633
14.851
13.7221
12.6715
11.6944
10.7863
9.94285
9.15997
8.43377
7.76058
7.13693
6.55955
6.02534
5.53139
5.07495
4.65343
4.26442
3.90562
3.5749
3.27024
2.98975
2.73168
2.49437
2.27628
2.07597
1.89208
1.72337
1.56865
1.42685
1.29693
1.17796
1.06904
0.969377
0.878192
0.794781
0.718487
0.6487
0.584852
0.526416
0.4729
0.423851
0.378842
0.337477
0.299389
0.26423
0.231677
0.201425
0.173187
0.146691
0.121679
0.0979034
0.0751261
0.0531176
0.0316538
0.0105152
290.503
276.213
262.446
249.198
236.459
224.222
212.477
201.215
190.425
180.097
170.218
160.778
151.763
143.163
134.964
127.154
119.72
112.651
105.932
99.5517
93.4975
87.7569
82.3178
77.1682
72.2961
67.69
63.3385
59.2306
55.3553
51.702
48.2605
45.0208
41.9731
39.1081
36.4167
33.8901
31.5198
29.2977
27.216
25.267
23.4436
21.7388
20.146
18.6588
17.2711
15.9771
14.7713
13.6485
12.6035
11.6317
10.7284
9.88952
9.11084
8.38853
7.71896
7.09865
6.52437
5.99302
5.50172
5.04773
4.62848
4.24155
3.88468
3.55573
3.2527
2.97372
2.71703
2.481
2.26408
2.06484
1.88194
1.71413
1.56024
1.41919
1.28997
1.17164
1.06331
0.964178
0.873482
0.790519
0.714634
0.645222
0.581716
0.523593
0.470365
0.421578
0.37681
0.335668
0.297783
0.262813
0.230434
0.200345
0.172258
0.145905
0.121027
0.0973785
0.0747233
0.0528328
0.0314841
0.0104588
288.865
274.655
260.966
247.792
235.125
222.957
211.279
200.08
189.351
179.081
169.258
159.871
150.907
142.355
134.203
126.437
119.045
112.015
105.335
98.9903
92.9702
87.262
81.8536
76.733
71.8884
67.3083
62.9813
58.8965
55.0431
51.4104
47.9883
44.7669
41.7364
38.8876
36.2113
33.699
31.3421
29.1325
27.0625
25.1245
23.3114
21.6163
20.0324
18.5536
17.1737
15.887
14.688
13.5715
12.5324
11.5661
10.6679
9.83375
9.05946
8.34123
7.67543
7.05862
6.48758
5.95923
5.47069
5.01926
4.60238
4.21763
3.86277
3.53568
3.23436
2.95695
2.70171
2.46701
2.25131
2.05319
1.87132
1.70446
1.55144
1.41119
1.2827
1.16503
1.05732
0.958742
0.868557
0.786062
0.710605
0.641584
0.578436
0.520641
0.467713
0.419201
0.374686
0.333775
0.296104
0.261331
0.229135
0.199215
0.171287
0.145082
0.120345
0.0968295
0.0743021
0.0525349
0.0313066
0.0103999
287.155
273.029
259.422
246.326
233.734
221.638
210.028
198.896
188.231
178.021
168.256
158.925
150.014
141.513
133.409
125.689
118.341
111.352
104.711
98.4045
92.42
86.7456
81.3692
76.2789
71.4629
66.9099
62.6086
58.548
54.7173
51.1062
47.7043
44.5019
41.4894
38.6574
35.997
33.4995
31.1566
28.9601
26.9024
24.9759
23.1735
21.4883
19.9139
18.4438
17.0721
15.793
14.6011
13.4912
12.4583
11.4976
10.6048
9.77556
9.00585
8.29187
7.63001
7.01685
6.44918
5.92396
5.43832
4.98956
4.57514
4.19267
3.83991
3.51475
3.21522
2.93945
2.68572
2.45241
2.23799
2.04104
1.86025
1.69438
1.54226
1.40284
1.27511
1.15814
1.05106
0.953069
0.863418
0.781411
0.706401
0.637788
0.575014
0.51756
0.464946
0.416721
0.372469
0.331801
0.294353
0.259785
0.22778
0.198037
0.170274
0.144224
0.119633
0.0962566
0.0738625
0.0522241
0.0311214
0.0103384
285.375
271.337
257.813
244.799
232.285
220.264
208.726
197.663
187.064
176.917
167.213
157.939
149.084
140.636
132.581
124.909
117.607
110.662
104.062
97.7943
91.847
86.2078
80.8647
75.8059
71.0199
66.4951
62.2204
58.185
54.3781
50.7893
47.4086
44.226
41.2322
38.4177
35.7738
33.2918
30.9634
28.7806
26.7356
24.821
23.0298
21.3551
19.7904
18.3294
16.9662
15.6951
14.5106
13.4075
12.381
11.4263
10.5391
9.71495
8.95002
8.24046
7.5827
6.97335
6.4092
5.88724
5.40461
4.95863
4.54678
4.16668
3.81611
3.49296
3.19529
2.92123
2.66907
2.43721
2.22411
2.02839
1.84872
1.68387
1.5327
1.39415
1.26721
1.15096
1.04454
0.947162
0.858066
0.776567
0.702022
0.633834
0.57145
0.514352
0.462064
0.414138
0.37016
0.329744
0.292528
0.258175
0.226368
0.196809
0.169219
0.14333
0.118891
0.09566
0.0734047
0.0519004
0.0309285
0.0102743
283.524
269.577
256.141
243.211
230.778
218.835
207.373
196.381
185.85
175.77
166.129
156.915
148.117
139.723
131.722
124.099
116.844
109.944
103.387
97.1601
91.2513
85.6487
80.3402
75.3143
70.5593
66.0638
61.8169
57.8076
54.0254
50.4599
47.1011
43.9392
40.9648
38.1686
35.5418
33.0759
30.7626
28.5939
26.5622
24.66
22.8804
21.2166
19.662
18.2106
16.8562
15.5933
14.4165
13.3206
12.3007
11.3522
10.4707
9.65195
8.89197
8.18702
7.53353
6.92813
6.36764
5.84906
5.36956
4.92647
4.51729
4.13966
3.79136
3.47031
3.17456
2.90229
2.65177
2.4214
2.20969
2.01524
1.83673
1.67295
1.52276
1.38511
1.25899
1.1435
1.03777
0.94102
0.852502
0.771532
0.69747
0.629725
0.567744
0.511017
0.459068
0.411453
0.36776
0.327606
0.290631
0.256501
0.2249
0.195533
0.168121
0.142401
0.11812
0.0950398
0.0729288
0.0515639
0.030728
0.0102077
281.603
267.751
254.406
241.563
229.215
217.353
205.968
195.051
184.591
174.579
165.003
155.852
147.114
138.777
130.829
123.259
116.053
109.2
102.687
96.5019
90.6331
85.0685
79.796
74.8041
70.0812
65.6163
61.3981
57.416
53.6594
50.1181
46.782
43.6415
40.6872
37.91
35.3011
32.8519
30.5542
28.4002
26.3822
24.493
22.7254
21.0729
19.5288
18.0872
16.742
15.4877
14.3188
13.2303
12.2174
11.2753
10.3998
9.58657
8.83174
8.13156
7.4825
6.8812
6.3245
5.80944
5.33318
4.8931
4.48669
4.11162
3.76568
3.44681
3.15306
2.88263
2.6338
2.405
2.19472
2.00159
1.82429
1.66162
1.51245
1.37572
1.25046
1.13575
1.03074
0.934646
0.846728
0.766306
0.692746
0.625459
0.563899
0.507556
0.455958
0.408666
0.365269
0.325387
0.288663
0.254764
0.223377
0.194209
0.166983
0.141436
0.11732
0.0943962
0.0724349
0.0512147
0.0305199
0.0101385
279.613
265.858
252.608
239.856
227.595
215.816
204.512
193.672
183.287
173.345
163.837
154.751
146.074
137.796
129.905
122.387
115.233
108.428
101.961
95.8198
89.9926
84.4672
79.232
74.2754
69.5859
65.1525
60.9642
57.0102
53.2802
49.7639
46.4514
43.3331
40.3997
37.6421
35.0516
32.6197
30.3383
28.1995
26.1958
24.3199
22.5648
20.924
19.3908
17.9594
16.6237
15.3782
14.2176
13.1368
12.1311
11.1957
10.3263
9.51882
8.76932
8.0741
7.42962
6.83257
6.27981
5.76838
5.29549
4.85852
4.45499
4.08256
3.73907
3.42245
3.13078
2.86226
2.61519
2.388
2.17921
1.98744
1.8114
1.64988
1.50176
1.366
1.24163
1.12773
1.02346
0.928042
0.840745
0.760891
0.687851
0.62104
0.559914
0.50397
0.452737
0.405778
0.362689
0.323088
0.286623
0.252964
0.221799
0.192837
0.165803
0.140437
0.116491
0.0937292
0.0719231
0.0508529
0.0303042
0.0100669
277.554
263.9
250.748
238.09
225.919
214.227
203.006
192.246
181.937
172.069
162.63
153.611
144.998
136.781
128.948
121.486
114.384
107.629
101.21
95.1142
89.3298
83.8452
78.6485
73.7284
69.0735
64.6727
60.5152
56.5904
52.8878
49.3974
46.1093
43.014
40.1022
37.3649
34.7934
32.3795
30.1148
27.9918
26.0029
24.1408
22.3987
20.7699
19.248
17.8271
16.5013
15.265
14.1129
13.0401
12.0417
11.1132
10.2502
9.44872
8.70474
8.01464
7.3749
6.78225
6.23356
5.7259
5.2565
4.82274
4.42218
4.0525
3.71153
3.39725
3.10772
2.84118
2.59593
2.37042
2.16317
1.97281
1.79806
1.63773
1.4907
1.35594
1.23248
1.11942
1.01592
0.921208
0.834554
0.755288
0.682786
0.616467
0.555792
0.500259
0.449403
0.402791
0.360018
0.320709
0.284513
0.251101
0.220166
0.191417
0.164582
0.139403
0.115634
0.0930391
0.0713935
0.0504785
0.0300811
0.00999278
275.426
261.877
248.826
236.264
224.187
212.585
201.45
190.772
180.542
170.75
161.384
152.433
143.887
135.733
127.959
120.555
113.507
106.804
100.434
94.385
88.645
83.2024
78.0456
73.1632
68.544
64.1769
60.0513
56.1566
52.4824
49.0187
45.7558
42.6842
39.7947
37.0784
34.5267
32.1312
29.884
27.7772
25.8035
23.9557
22.227
20.6106
19.1005
17.6904
16.3748
15.1479
14.0047
12.9401
11.9494
11.028
10.1717
9.37629
8.63802
7.9532
7.31837
6.73026
6.18578
5.68201
5.2162
4.78577
4.38828
4.02144
3.68308
3.3712
3.0839
2.8194
2.57604
2.35225
2.14659
1.95769
1.78428
1.62518
1.47928
1.34555
1.22304
1.11084
1.00814
0.914147
0.828157
0.749499
0.677553
0.611742
0.551532
0.496425
0.445959
0.399703
0.357259
0.318251
0.282333
0.249177
0.218478
0.18995
0.163321
0.138335
0.114747
0.0923261
0.0708464
0.0500916
0.0298506
0.0099162
273.23
259.79
246.842
234.381
222.4
210.89
199.844
189.251
179.103
169.389
160.097
151.218
142.74
134.651
126.939
119.594
112.602
105.953
99.6335
93.6326
87.9384
82.5391
77.4234
72.5799
67.9976
63.6653
59.5726
55.7089
52.064
48.6279
45.3911
42.344
39.4775
36.7829
34.2515
31.8751
29.6458
27.5558
25.5978
23.7648
22.0498
20.4463
18.9482
17.5494
16.2442
15.0272
13.8931
12.837
11.8542
10.9401
10.0906
9.30154
8.56916
7.8898
7.26003
6.67661
6.13647
5.63672
5.17462
4.74762
4.3533
3.98938
3.65372
3.34433
3.05932
2.79693
2.5555
2.3335
2.12948
1.94208
1.77005
1.61222
1.46749
1.33483
1.21329
1.10199
1.0001
0.906861
0.821556
0.743525
0.672152
0.606866
0.547136
0.492468
0.442404
0.396518
0.354411
0.315715
0.280082
0.247191
0.216737
0.188436
0.162019
0.137232
0.113833
0.0915902
0.0702817
0.0496924
0.0296127
0.00983716
270.967
257.638
244.797
232.44
220.558
209.143
198.188
187.684
177.62
167.986
158.771
149.966
141.557
133.535
125.888
118.603
111.67
105.075
98.8082
92.8571
87.21
81.8555
76.7822
71.9788
67.4344
63.138
59.0792
55.2475
51.6328
48.2252
45.0151
41.9933
39.1505
36.4782
33.9678
31.6111
29.4002
27.3276
25.3858
23.5679
21.8671
20.277
18.7913
17.4041
16.1097
14.9027
13.778
12.7307
11.756
10.8495
10.007
9.2245
8.49819
7.82445
7.1999
6.62131
6.08564
5.59003
5.13177
4.7083
4.31725
3.95634
3.62346
3.31663
3.03398
2.77376
2.53434
2.31417
2.11184
1.926
1.7554
1.59887
1.45533
1.32377
1.20324
1.09286
0.991818
0.89935
0.814753
0.737368
0.666586
0.60184
0.542605
0.48839
0.43874
0.393234
0.351476
0.3131
0.277763
0.245144
0.214942
0.186875
0.160677
0.136096
0.11289
0.0908317
0.0696997
0.0492808
0.0293674
0.0097557
268.637
255.423
242.692
230.441
218.661
207.345
196.484
186.07
176.092
166.541
157.406
148.676
140.34
132.387
124.805
117.583
110.709
104.172
97.9586
92.0587
86.4601
81.1517
76.1219
71.3599
66.8545
62.5951
58.5712
54.7724
51.1888
47.8105
44.6281
41.6322
38.8139
36.1645
33.6757
31.3393
29.1474
27.0926
25.1675
23.3653
21.6791
20.1026
18.6297
17.2544
15.9712
14.7746
13.6596
12.6212
11.6549
10.7562
9.92096
9.14519
8.42512
7.75718
7.138
6.56438
6.03332
5.54197
5.08764
4.66782
4.28013
3.92232
3.59231
3.28812
3.0079
2.74991
2.51255
2.29428
2.09368
1.90944
1.7403
1.58512
1.44282
1.31239
1.19289
1.08346
0.98329
0.891618
0.807748
0.731028
0.660855
0.596666
0.53794
0.484191
0.434968
0.389853
0.348454
0.310408
0.275375
0.243036
0.213094
0.185269
0.159296
0.134926
0.11192
0.0900509
0.0691005
0.0488572
0.029115
0.00967183
266.241
253.144
240.528
228.385
216.711
205.496
194.732
184.41
174.522
165.056
156.002
147.35
139.088
131.206
123.692
116.534
109.722
103.242
97.0849
91.2375
85.6889
80.4278
75.4429
70.7234
66.2582
62.0368
58.0487
54.2839
50.7322
47.384
44.23
41.2608
38.4677
35.842
33.3753
31.0597
28.8874
26.8509
24.943
23.1569
21.4857
19.9233
18.4635
17.1005
15.8287
14.6428
13.5377
12.5086
11.5509
10.6603
9.83247
9.06362
8.34997
7.68799
7.07433
6.50583
5.9795
5.49253
5.04226
4.62619
4.24195
3.88734
3.56027
3.25879
2.98107
2.72539
2.49014
2.27381
2.07501
1.89241
1.72478
1.57099
1.42995
1.30068
1.18225
1.0738
0.97452
0.883666
0.800543
0.724508
0.654961
0.591344
0.533142
0.479872
0.431089
0.386376
0.345347
0.30764
0.272919
0.240869
0.211194
0.183616
0.157875
0.133722
0.110922
0.0892478
0.0684842
0.0484215
0.0288553
0.00958558
263.779
250.803
238.304
226.274
214.707
203.595
192.931
182.705
172.908
163.529
154.559
145.987
137.802
129.993
122.548
115.457
108.707
102.288
96.1871
90.3938
84.8966
79.6841
74.7453
70.0694
65.6455
61.4631
57.512
53.7819
50.2631
46.9459
43.821
40.8793
38.112
35.5105
33.0667
30.7725
28.6203
26.6026
24.7124
22.9427
21.2871
19.7391
18.2928
16.9424
15.6823
14.5074
13.4125
12.393
11.4441
10.5617
9.74155
8.97981
8.27276
7.6169
7.00891
6.44567
5.92421
5.44175
4.99564
4.58341
4.20273
3.85139
3.52735
3.22866
2.9535
2.70019
2.46711
2.25279
2.05582
1.87491
1.70883
1.55646
1.41673
1.28866
1.17132
1.06387
0.96551
0.875495
0.793141
0.717809
0.648905
0.585877
0.528212
0.475435
0.427103
0.382804
0.342154
0.304796
0.270396
0.238642
0.209241
0.181919
0.156416
0.132486
0.109896
0.0884226
0.0678511
0.0479738
0.0285885
0.00949695
261.252
248.401
236.021
224.106
212.65
201.645
191.083
180.955
171.251
161.963
153.079
144.589
136.482
128.748
121.374
114.351
107.666
101.308
95.2657
89.5279
84.0833
78.9207
74.0293
69.3981
65.0166
60.8743
56.961
53.2667
49.7816
46.4962
43.4012
40.4877
37.7469
35.1704
32.7499
30.4777
28.3461
26.3478
24.4757
22.7229
21.0831
19.55
18.1176
16.7801
15.5321
14.3684
13.284
12.2742
11.3345
10.4605
9.64823
8.89379
8.19351
7.54393
6.94177
6.38393
5.86746
5.38962
4.94778
4.5395
4.16246
3.8145
3.49356
3.19773
2.92521
2.67432