/*--------------------------------*- C++ -*----------------------------------*\
| =========                 |                                                 |
| \\      /  F ield         | OpenFOAM: The Open Source CFD Toolbox           |
|  \\    /   O peration     | Version:  2406                                  |
|   \\  /    A nd           | Website:  www.openfoam.com                      |
|    \\/     M anipulation  |                                                 |
\*---------------------------------------------------------------------------*/
FoamFile
{
    version     2.0;
    format      ascii;
    arch        "LSB;label=32;scalar=64";
    class       volScalarField;
    location    "50";
    object      gradTx;
}
// * * * * * * * * * * * * * * * * * * * * * * * * * * * * * * * * * * * * * //

dimensions      [0 -1 0 1 0 0 0];

internalField   nonuniform List<scalar> 
20000
(
-7.7136
-7.43431
-7.15827
-6.88601
-6.61815
-6.35479
-6.0959
-5.84301
-5.59617
-5.3546
-5.11895
-4.88988
-4.66744
-4.45151
-4.24206
-4.03918
-3.843
-3.65355
-3.47082
-3.29477
-3.1253
-2.96233
-2.80578
-2.65553
-2.5115
-2.37354
-2.24155
-2.11538
-1.9949
-1.87994
-1.77037
-1.66601
-1.56672
-1.47232
-1.38265
-1.29755
-1.21686
-1.14041
-1.06804
-0.999584
-0.934887
-0.87379
-0.816141
-0.761787
-0.710581
-0.662378
-0.617039
-0.574424
-0.534403
-0.496845
-0.461626
-0.428625
-0.397725
-0.368816
-0.341788
-0.316537
-0.292966
-0.270977
-0.25048
-0.231388
-0.213617
-0.197089
-0.181726
-0.167459
-0.154218
-0.141938
-0.130559
-0.120022
-0.110272
-0.101257
-0.0929291
-0.0852409
-0.0781494
-0.0716139
-0.065596
-0.0600597
-0.0549715
-0.0502998
-0.0460153
-0.0420904
-0.0384999
-0.0352198
-0.0322283
-0.029505
-0.0270311
-0.0247893
-0.0227638
-0.0209399
-0.0193045
-0.0178455
-0.0165522
-0.0154149
-0.0144249
-0.0135748
-0.012858
-0.0122689
-0.0118032
-0.011457
-0.0112277
-0.0111134
-23.1389
-22.3009
-21.4731
-20.6566
-19.8524
-19.0624
-18.2868
-17.528
-16.7867
-16.0622
-15.3557
-14.6686
-14.0013
-13.3534
-12.7251
-12.1165
-11.528
-10.9598
-10.4116
-9.8835
-9.37513
-8.88627
-8.41664
-7.96594
-7.53386
-7.12004
-6.7241
-6.34563
-5.9842
-5.63937
-5.31067
-4.99762
-4.69976
-4.41659
-4.14761
-3.89234
-3.65029
-3.42096
-3.20386
-2.99851
-2.80443
-2.62116
-2.44822
-2.28517
-2.13157
-1.98697
-1.85096
-1.72313
-1.60308
-1.49041
-1.38476
-1.28577
-1.19308
-1.10636
-1.02528
-0.949534
-0.878825
-0.812864
-0.751379
-0.694107
-0.640799
-0.591217
-0.545134
-0.502336
-0.462616
-0.42578
-0.391645
-0.360037
-0.330789
-0.303747
-0.278764
-0.255702
-0.234429
-0.214824
-0.196772
-0.180164
-0.164901
-0.150887
-0.138034
-0.126261
-0.11549
-0.105651
-0.0966771
-0.0885078
-0.0810867
-0.0743619
-0.0682857
-0.0628145
-0.0579087
-0.0535321
-0.0496525
-0.0462408
-0.0432711
-0.040721
-0.0385707
-0.0368038
-0.0354066
-0.0343681
-0.0336802
-0.0333376
-38.5588
-37.1626
-35.7825
-34.4217
-33.0816
-31.7652
-30.4734
-29.2087
-27.9729
-26.7656
-25.5887
-24.4439
-23.3317
-22.252
-21.2048
-20.1908
-19.2102
-18.2633
-17.3499
-16.4698
-15.6227
-14.808
-14.0254
-13.2744
-12.5544
-11.8648
-11.205
-10.5743
-9.97203
-9.3974
-8.84965
-8.328
-7.83164
-7.35977
-6.91155
-6.48617
-6.08281
-5.70066
-5.33888
-4.99669
-4.67328
-4.36787
-4.0797
-3.80799
-3.55203
-3.31108
-3.08443
-2.87141
-2.67135
-2.48361
-2.30756
-2.1426
-1.98814
-1.84362
-1.70852
-1.5823
-1.46447
-1.35455
-1.25209
-1.15665
-1.06782
-0.9852
-0.908408
-0.837088
-0.770899
-0.709517
-0.652635
-0.599962
-0.551225
-0.506162
-0.464531
-0.426099
-0.390651
-0.357981
-0.327899
-0.300225
-0.27479
-0.251437
-0.23002
-0.2104
-0.192452
-0.176056
-0.161102
-0.147489
-0.135122
-0.123916
-0.113791
-0.104674
-0.0964985
-0.0892056
-0.0827406
-0.0770553
-0.0721067
-0.0678571
-0.064274
-0.0613296
-0.0590013
-0.0572707
-0.0561245
-0.0555535
-53.969
-52.0152
-50.0833
-48.1784
-46.3029
-44.4603
-42.6524
-40.8821
-39.1522
-37.4625
-35.8155
-34.2133
-32.6564
-31.145
-29.6793
-28.26
-26.8876
-25.5623
-24.2839
-23.0521
-21.8663
-20.7261
-19.6307
-18.5795
-17.5718
-16.6066
-15.6831
-14.8004
-13.9574
-13.1531
-12.3865
-11.6563
-10.9616
-10.3011
-9.67378
-9.0784
-8.51384
-7.97895
-7.47259
-6.99364
-6.54098
-6.11351
-5.71017
-5.32988
-4.97161
-4.63436
-4.31714
-4.01899
-3.73897
-3.4762
-3.22979
-2.99889
-2.7827
-2.58044
-2.39133
-2.21467
-2.04975
-1.8959
-1.7525
-1.61892
-1.49458
-1.37894
-1.27146
-1.17163
-1.07899
-0.993079
-0.913463
-0.83974
-0.771524
-0.708453
-0.650183
-0.596392
-0.546776
-0.50105
-0.458946
-0.420211
-0.384611
-0.351925
-0.321948
-0.294488
-0.269366
-0.246417
-0.225487
-0.206433
-0.189125
-0.17344
-0.159268
-0.146507
-0.135065
-0.124857
-0.115808
-0.107851
-0.100924
-0.0949765
-0.0899614
-0.0858403
-0.0825814
-0.0801593
-0.0785549
-0.0777558
-69.3653
-66.8544
-64.3719
-61.9234
-59.5128
-57.1444
-54.8207
-52.5454
-50.3218
-48.1502
-46.0335
-43.9741
-41.973
-40.0302
-38.1465
-36.3223
-34.5585
-32.8551
-31.212
-29.6287
-28.1046
-26.6391
-25.2312
-23.8801
-22.5848
-21.3443
-20.1574
-19.0228
-17.9393
-16.9056
-15.9202
-14.9818
-14.0888
-13.24
-12.4336
-11.6684
-10.9428
-10.2553
-9.60446
-8.98886
-8.40706
-7.85765
-7.33923
-6.85044
-6.38997
-5.9565
-5.54878
-5.16557
-4.80567
-4.46793
-4.15122
-3.85445
-3.57659
-3.31661
-3.07356
-2.84649
-2.63452
-2.43679
-2.25247
-2.08078
-1.92097
-1.77234
-1.63419
-1.50589
-1.38682
-1.2764
-1.17407
-1.07931
-0.991633
-0.910568
-0.835674
-0.766537
-0.702767
-0.643995
-0.589879
-0.540093
-0.494337
-0.452326
-0.413797
-0.378503
-0.346214
-0.316718
-0.289817
-0.265327
-0.24308
-0.222921
-0.204705
-0.188304
-0.173597
-0.160478
-0.148847
-0.13862
-0.129717
-0.122073
-0.115627
-0.11033
-0.106141
-0.103028
-0.100966
-0.099939
-84.7446
-81.677
-78.6445
-75.6531
-72.708
-69.8144
-66.9755
-64.1958
-61.479
-58.8261
-56.2402
-53.7242
-51.2792
-48.9056
-46.6042
-44.3756
-42.2208
-40.1397
-38.1323
-36.198
-34.336
-32.5455
-30.8255
-29.1748
-27.5923
-26.0768
-24.6266
-23.2405
-21.9168
-20.6539
-19.45
-18.3035
-17.2126
-16.1755
-15.1904
-14.2555
-13.369
-12.5291
-11.7339
-10.9819
-10.2711
-9.59984
-8.96648
-8.36932
-7.80675
-7.27718
-6.77905
-6.31088
-5.87118
-5.45855
-5.07162
-4.70906
-4.36958
-4.05197
-3.75503
-3.47762
-3.21865
-2.97707
-2.75188
-2.54213
-2.34689
-2.1653
-1.99653
-1.83978
-1.6943
-1.5594
-1.43438
-1.31861
-1.2115
-1.11246
-1.02096
-0.936494
-0.858584
-0.786782
-0.720666
-0.659843
-0.603941
-0.552616
-0.505544
-0.462424
-0.422977
-0.386941
-0.354075
-0.324155
-0.296976
-0.272347
-0.250093
-0.230055
-0.212087
-0.196059
-0.18185
-0.169355
-0.158478
-0.149138
-0.141263
-0.134792
-0.129675
-0.125871
-0.123352
-0.122097
-100.103
-96.4796
-92.8976
-89.3641
-85.8852
-82.4671
-79.1137
-75.8303
-72.6211
-69.4874
-66.4329
-63.4609
-60.5727
-57.7689
-55.0504
-52.418
-49.8726
-47.4145
-45.0433
-42.7584
-40.5589
-38.4439
-36.4121
-34.4623
-32.593
-30.8028
-29.0898
-27.4525
-25.8889
-24.3971
-22.975
-21.6208
-20.3321
-19.1071
-17.9434
-16.8391
-15.7919
-14.7998
-13.8605
-12.9722
-12.1325
-11.3397
-10.5915
-9.88613
-9.2216
-8.59605
-8.00765
-7.45463
-6.93524
-6.44783
-5.99077
-5.5625
-5.16151
-4.78633
-4.43557
-4.10788
-3.80198
-3.51662
-3.25062
-3.00285
-2.77223
-2.55773
-2.35837
-2.17321
-2.00137
-1.84201
-1.69434
-1.55759
-1.43106
-1.31407
-1.20599
-1.10622
-1.01419
-0.929374
-0.851276
-0.779429
-0.713396
-0.652769
-0.597166
-0.546231
-0.499635
-0.457068
-0.418245
-0.382904
-0.350798
-0.321705
-0.295418
-0.271749
-0.250525
-0.231591
-0.214807
-0.200048
-0.1872
-0.176168
-0.166865
-0.159221
-0.153177
-0.148684
-0.145708
-0.144226
-115.437
-111.259
-107.128
-103.053
-99.0412
-95.0995
-91.2325
-87.4461
-83.7453
-80.1316
-76.6093
-73.182
-69.8513
-66.618
-63.483
-60.4475
-57.5122
-54.6775
-51.9431
-49.3082
-46.7718
-44.3328
-41.9898
-39.7413
-37.5857
-35.5212
-33.5459
-31.6577
-29.8546
-28.1343
-26.4944
-24.9327
-23.4466
-22.0339
-20.692
-19.4185
-18.2109
-17.0668
-15.9837
-14.9593
-13.991
-13.0767
-12.2139
-11.4005
-10.6342
-9.91281
-9.23428
-8.59654
-7.99759
-7.43552
-6.90845
-6.41457
-5.95215
-5.5195
-5.11502
-4.73713
-4.38437
-4.0553
-3.74856
-3.46283
-3.19688
-2.94952
-2.71962
-2.5061
-2.30794
-2.12418
-1.95388
-1.79619
-1.65028
-1.51537
-1.39073
-1.27567
-1.16954
-1.07174
-0.981676
-0.898823
-0.822675
-0.752761
-0.688641
-0.629904
-0.57617
-0.527082
-0.482313
-0.441557
-0.404534
-0.370985
-0.340671
-0.313376
-0.288901
-0.267067
-0.247712
-0.230691
-0.215876
-0.203153
-0.192426
-0.183611
-0.17664
-0.17146
-0.168028
-0.166319
-130.743
-126.01
-121.331
-116.716
-112.173
-107.708
-103.329
-99.0404
-94.8488
-90.7561
-86.7668
-82.885
-79.1126
-75.4506
-71.8999
-68.462
-65.1376
-61.9271
-58.8301
-55.8459
-52.9732
-50.2108
-47.5571
-45.0104
-42.569
-40.2308
-37.9936
-35.8551
-33.8129
-31.8645
-30.0072
-28.2384
-26.5554
-24.9553
-23.4355
-21.9932
-20.6255
-19.3297
-18.103
-16.9427
-15.8461
-14.8105
-13.8333
-12.9121
-12.0441
-11.2271
-10.4586
-9.73633
-9.05797
-8.42138
-7.82442
-7.26506
-6.74133
-6.25132
-5.7932
-5.36522
-4.96568
-4.59298
-4.24557
-3.92196
-3.62075
-3.34059
-3.08021
-2.83838
-2.61395
-2.40581
-2.21294
-2.03434
-1.86908
-1.71628
-1.57512
-1.44481
-1.32461
-1.21384
-1.11183
-1.018
-0.931752
-0.852568
-0.779946
-0.713421
-0.652562
-0.596966
-0.546261
-0.500102
-0.45817
-0.420173
-0.38584
-0.354925
-0.327206
-0.302477
-0.280556
-0.261278
-0.244498
-0.230089
-0.217939
-0.207956
-0.200061
-0.194193
-0.190307
-0.188371
-146.016
-140.73
-135.505
-130.351
-125.277
-120.291
-115.4
-110.61
-105.929
-101.358
-96.9028
-92.5675
-88.3544
-84.2645
-80.2992
-76.4597
-72.747
-69.1614
-65.7027
-62.3698
-59.1615
-56.0763
-53.1126
-50.2685
-47.5419
-44.9305
-42.432
-40.0437
-37.7629
-35.5869
-33.5126
-31.5372
-29.6575
-27.8706
-26.1732
-24.5624
-23.0349
-21.5877
-20.2177
-18.9219
-17.6972
-16.5406
-15.4493
-14.4204
-13.4511
-12.5387
-11.6804
-10.8737
-10.1161
-9.40515
-8.73846
-8.11376
-7.52885
-6.98159
-6.46996
-5.99198
-5.54577
-5.12953
-4.74153
-4.38012
-4.04372
-3.73084
-3.44004
-3.16996
-2.91931
-2.68686
-2.47145
-2.27199
-2.08743
-1.91678
-1.75913
-1.61359
-1.47935
-1.35563
-1.24172
-1.13692
-1.0406
-0.952164
-0.871058
-0.796763
-0.728794
-0.666704
-0.610075
-0.558524
-0.511693
-0.469257
-0.430913
-0.396388
-0.365429
-0.337812
-0.31333
-0.2918
-0.27306
-0.256968
-0.243399
-0.232249
-0.223432
-0.216879
-0.212538
-0.210376
-161.253
-155.416
-149.646
-143.954
-138.35
-132.844
-127.442
-122.153
-116.983
-111.935
-107.015
-102.227
-97.5744
-93.0577
-88.6786
-84.4384
-80.3384
-76.3787
-72.559
-68.8783
-65.3352
-61.9281
-58.6551
-55.5142
-52.503
-49.6191
-46.8599
-44.2223
-41.7036
-39.3005
-37.0098
-34.8282
-32.7524
-30.779
-28.9045
-27.1255
-25.4387
-23.8405
-22.3275
-20.8964
-19.5439
-18.2667
-17.0615
-15.9253
-14.8548
-13.8471
-12.8993
-12.0084
-11.1718
-10.3866
-9.65035
-8.96046
-8.3145
-7.71014
-7.14512
-6.61726
-6.12449
-5.66481
-5.23632
-4.8372
-4.4657
-4.12016
-3.79902
-3.50075
-3.22395
-2.96724
-2.72936
-2.50908
-2.30525
-2.1168
-1.9427
-1.78197
-1.63373
-1.4971
-1.37129
-1.25556
-1.14919
-1.05153
-0.961956
-0.879907
-0.804846
-0.736276
-0.673739
-0.616808
-0.56509
-0.518225
-0.47588
-0.437752
-0.403563
-0.373064
-0.346027
-0.322251
-0.301555
-0.283783
-0.268798
-0.256485
-0.246748
-0.239511
-0.234717
-0.23233
-176.45
-170.063
-163.749
-157.521
-151.389
-145.364
-139.453
-133.665
-128.008
-122.484
-117.101
-111.862
-106.77
-101.828
-97.0361
-92.3964
-87.91
-83.5771
-79.3974
-75.3698
-71.4927
-67.7645
-64.1831
-60.7461
-57.4512
-54.2955
-51.2762
-48.3901
-45.634
-43.0043
-40.4978
-38.1106
-35.8392
-33.6797
-31.6286
-29.682
-27.8362
-26.0873
-24.4318
-22.8658
-21.3859
-19.9883
-18.6695
-17.4261
-16.2548
-15.1521
-14.115
-13.1402
-12.2246
-11.3655
-10.5598
-9.80494
-9.09811
-8.43679
-7.81851
-7.2409
-6.70169
-6.19869
-5.72982
-5.29308
-4.88657
-4.50847
-4.15706
-3.83068
-3.52779
-3.24689
-2.98659
-2.74555
-2.52251
-2.3163
-2.12579
-1.94992
-1.7877
-1.63819
-1.50053
-1.37389
-1.25749
-1.15063
-1.05262
-0.962835
-0.880699
-0.805667
-0.737236
-0.674939
-0.618348
-0.567066
-0.52073
-0.479008
-0.441598
-0.408224
-0.378639
-0.352622
-0.329976
-0.310529
-0.294132
-0.280658
-0.270003
-0.262084
-0.256839
-0.254226
-191.604
-184.668
-177.812
-171.049
-164.39
-157.848
-151.429
-145.145
-139.002
-133.004
-127.157
-121.469
-115.94
-110.573
-105.37
-100.332
-95.4599
-90.7549
-86.2162
-81.8427
-77.6327
-73.5843
-69.6952
-65.9631
-62.3852
-58.9585
-55.6799
-52.5459
-49.5531
-46.6976
-43.9758
-41.3836
-38.9171
-36.5722
-34.3449
-32.2312
-30.2268
-28.3278
-26.53
-24.8296
-23.2225
-21.7049
-20.2729
-18.9227
-17.6508
-16.4534
-15.3272
-14.2687
-13.2745
-12.3416
-11.4667
-10.647
-9.87947
-9.16135
-8.48998
-7.86277
-7.27724
-6.73105
-6.22191
-5.74766
-5.30624
-4.89567
-4.51407
-4.15967
-3.83076
-3.52574
-3.24308
-2.98134
-2.73915
-2.51523
-2.30835
-2.11738
-1.94123
-1.77889
-1.6294
-1.49188
-1.36549
-1.24944
-1.14302
-1.04553
-0.956335
-0.87486
-0.800551
-0.732904
-0.671453
-0.615767
-0.565452
-0.520147
-0.479523
-0.443283
-0.411157
-0.382906
-0.358315
-0.337198
-0.319393
-0.304762
-0.293192
-0.284592
-0.278897
-0.27606
-206.711
-199.228
-191.831
-184.535
-177.351
-170.293
-163.368
-156.588
-149.961
-143.49
-137.183
-131.045
-125.081
-119.291
-113.677
-108.242
-102.986
-97.9103
-93.0138
-88.2954
-83.7535
-79.3858
-75.1902
-71.1638
-67.3038
-63.6069
-60.0698
-56.6888
-53.46
-50.3794
-47.4429
-44.6464
-41.9854
-39.4557
-37.0528
-34.7723
-32.6099
-30.5612
-28.6217
-26.7872
-25.0534
-23.4161
-21.8712
-20.4146
-19.0424
-17.7507
-16.5356
-15.3936
-14.3211
-13.3146
-12.3708
-11.4864
-10.6584
-9.88366
-9.15935
-8.48269
-7.851
-7.26174
-6.71246
-6.20082
-5.72459
-5.28165
-4.86997
-4.48763
-4.13279
-3.80372
-3.49877
-3.2164
-2.95511
-2.71354
-2.49035
-2.28432
-2.09428
-1.91914
-1.75787
-1.60951
-1.47315
-1.34795
-1.23314
-1.12796
-1.03174
-0.943836
-0.863669
-0.790689
-0.724392
-0.664316
-0.610033
-0.561156
-0.51733
-0.478232
-0.443574
-0.413095
-0.386566
-0.363784
-0.344574
-0.32879
-0.316308
-0.307031
-0.300886
-0.297825
-221.766
-213.739
-205.803
-197.975
-190.268
-182.696
-175.267
-167.993
-160.883
-153.941
-147.174
-140.59
-134.191
-127.979
-121.957
-116.126
-110.487
-105.042
-99.7884
-94.7263
-89.8536
-85.1678
-80.6666
-76.347
-72.2058
-68.2397
-64.4449
-60.8176
-57.3537
-54.0487
-50.8984
-47.8981
-45.0434
-42.3294
-39.7515
-37.3049
-34.985
-32.7871
-30.7064
-28.7382
-26.8782
-25.1216
-23.4642
-21.9015
-20.4293
-19.0435
-17.74
-16.5148
-15.3642
-14.2844
-13.2718
-12.323
-11.4347
-10.6035
-9.82646
-9.10051
-8.42282
-7.79064
-7.20135
-6.65245
-6.14154
-5.66634
-5.22467
-4.81448
-4.4338
-4.08076
-3.7536
-3.45066
-3.17035
-2.91117
-2.67173
-2.4507
-2.24681
-2.05892
-1.8859
-1.72673
-1.58044
-1.44613
-1.32295
-1.21011
-1.10688
-1.01258
-0.926573
-0.848278
-0.777153
-0.712701
-0.654465
-0.602028
-0.555009
-0.513064
-0.475882
-0.443183
-0.414721
-0.39028
-0.369671
-0.352737
-0.339346
-0.329393
-0.322801
-0.319517
-236.767
-228.197
-219.724
-211.367
-203.139
-195.054
-187.123
-179.357
-171.765
-164.354
-157.13
-150.1
-143.268
-136.636
-130.206
-123.981
-117.961
-112.147
-106.538
-101.134
-95.9315
-90.9288
-86.1231
-81.5113
-77.09
-72.8556
-68.8042
-64.9315
-61.2332
-57.7047
-54.3413
-51.1381
-48.0902
-45.1926
-42.4404
-39.8283
-37.3515
-35.0049
-32.7834
-30.6822
-28.6963
-26.8209
-25.0514
-23.383
-21.8112
-20.3317
-18.94
-17.6319
-16.4035
-15.2506
-14.1696
-13.1566
-12.2082
-11.3208
-10.4912
-9.7161
-8.99256
-8.31762
-7.68847
-7.10244
-6.55697
-6.04962
-5.57808
-5.14014
-4.73371
-4.35679
-4.00751
-3.68407
-3.3848
-3.10809
-2.85246
-2.61647
-2.3988
-2.19819
-2.01347
-1.84353
-1.68735
-1.54395
-1.41244
-1.29197
-1.18175
-1.08107
-0.989249
-0.905658
-0.829722
-0.76091
-0.698735
-0.642751
-0.592552
-0.54777
-0.508072
-0.473161
-0.442774
-0.416679
-0.394677
-0.376598
-0.362301
-0.351674
-0.344636
-0.341131
-251.71
-242.598
-233.591
-224.706
-215.959
-207.364
-198.932
-190.676
-182.606
-174.726
-167.046
-159.573
-152.31
-145.259
-138.424
-131.805
-125.405
-119.225
-113.262
-107.517
-101.986
-96.6674
-91.5583
-86.6554
-81.9551
-77.4535
-73.1464
-69.0293
-65.0977
-61.3465
-57.7708
-54.3654
-51.1252
-48.0448
-45.1188
-42.3419
-39.7088
-37.214
-34.8524
-32.6185
-30.5073
-28.5136
-26.6324
-24.8587
-23.1877
-21.6148
-20.1353
-18.7447
-17.4387
-16.2131
-15.0638
-13.9869
-12.9786
-12.0352
-11.1532
-10.3293
-9.56009
-8.84255
-8.17369
-7.55068
-6.97078
-6.43142
-5.93012
-5.46454
-5.03246
-4.63175
-4.26042
-3.91658
-3.59841
-3.30425
-3.03247
-2.78159
-2.55018
-2.33692
-2.14054
-1.95988
-1.79384
-1.64139
-1.50158
-1.3735
-1.25634
-1.1493
-1.05168
-0.962814
-0.882086
-0.808931
-0.742832
-0.683315
-0.629948
-0.58234
-0.540137
-0.503023
-0.470718
-0.442976
-0.419586
-0.400365
-0.385166
-0.373869
-0.366387
-0.36266
-266.59
-256.94
-247.4
-237.99
-228.726
-219.622
-210.692
-201.948
-193.401
-185.056
-176.921
-169.006
-161.314
-153.847
-146.607
-139.597
-132.819
-126.273
-119.958
-113.873
-108.015
-102.382
-96.971
-91.7783
-86.8001
-82.0323
-77.4706
-73.1101
-68.946
-64.9731
-61.186
-57.5794
-54.1476
-50.885
-47.7861
-44.8451
-42.0563
-39.414
-36.9127
-34.5468
-32.3108
-30.1992
-28.2068
-26.3283
-24.5585
-22.8926
-21.3256
-19.8528
-18.4696
-17.1716
-15.9543
-14.8138
-13.7459
-12.7467
-11.8126
-10.9399
-10.1253
-9.36529
-8.6569
-7.99705
-7.38287
-6.81162
-6.28069
-5.78759
-5.32996
-4.90557
-4.51229
-4.14811
-3.81114
-3.49958
-3.21175
-2.94603
-2.70094
-2.47507
-2.26708
-2.07574
-1.89989
-1.73843
-1.59035
-1.4547
-1.33061
-1.21724
-1.11385
-1.01973
-0.934232
-0.856753
-0.786747
-0.723711
-0.667189
-0.616766
-0.572068
-0.53276
-0.498546
-0.469164
-0.444391
-0.424034
-0.407936
-0.395971
-0.388047
-0.3841
-281.405
-271.218
-261.149
-251.215
-241.436
-231.827
-222.4
-213.17
-204.148
-195.339
-186.753
-178.398
-170.278
-162.396
-154.754
-147.355
-140.2
-133.29
-126.624
-120.201
-114.017
-108.071
-102.36
-96.8784
-91.6236
-86.5909
-81.7757
-77.1729
-72.7774
-68.5837
-64.5861
-60.7791
-57.1566
-53.7127
-50.4416
-47.3371
-44.3933
-41.6043
-38.964
-36.4666
-34.1063
-31.8774
-29.7743
-27.7913
-25.9233
-24.1648
-22.5107
-20.956
-19.496
-18.1258
-16.8409
-15.637
-14.5097
-13.4551
-12.469
-11.5479
-10.6879
-9.88573
-9.13797
-8.44145
-7.79314
-7.19015
-6.62971
-6.10921
-5.62615
-5.17817
-4.76304
-4.37863
-4.02293
-3.69406
-3.39023
-3.10975
-2.85104
-2.61261
-2.39306
-2.19109
-2.00546
-1.83503
-1.67872
-1.53554
-1.40455
-1.28489
-1.17575
-1.0764
-0.986148
-0.904364
-0.830467
-0.763929
-0.704266
-0.651041
-0.603859
-0.562366
-0.52625
-0.495236
-0.469086
-0.447598
-0.430606
-0.417976
-0.409611
-0.405445
-296.15
-285.43
-274.832
-264.379
-254.087
-243.974
-234.054
-224.34
-214.845
-205.575
-196.539
-187.746
-179.2
-170.905
-162.863
-155.076
-147.546
-140.274
-133.259
-126.499
-119.992
-113.734
-107.723
-101.955
-96.4245
-91.1281
-86.0606
-81.2166
-76.5908
-72.1773
-67.9703
-63.9638
-60.1515
-56.5272
-53.0846
-49.8175
-46.7195
-43.7843
-41.0056
-38.3774
-35.8935
-33.5478
-31.3344
-29.2476
-27.2816
-25.4309
-23.6902
-22.0541
-20.5175
-19.0756
-17.7234
-16.4564
-15.27
-14.1601
-13.1224
-12.1529
-11.2479
-10.4037
-9.61678
-8.88377
-8.20149
-7.5669
-6.9771
-6.42932
-5.92095
-5.4495
-5.01261
-4.60806
-4.23373
-3.88762
-3.56787
-3.27269
-3.00043
-2.74951
-2.51846
-2.3059
-2.11055
-1.93118
-1.76669
-1.616
-1.47815
-1.35221
-1.23736
-1.1328
-1.03782
-0.951751
-0.873982
-0.803957
-0.741168
-0.685154
-0.6355
-0.591834
-0.553825
-0.521186
-0.493666
-0.471052
-0.453169
-0.439878
-0.431074
-0.42669
-310.822
-299.571
-288.448
-277.477
-266.675
-256.061
-245.65
-235.455
-225.489
-215.759
-206.276
-197.047
-188.078
-179.372
-170.932
-162.759
-154.856
-147.224
-139.861
-132.766
-125.936
-119.369
-113.06
-107.006
-101.202
-95.6428
-90.3242
-85.2403
-80.3853
-75.7532
-71.3378
-67.1327
-63.1315
-59.3277
-55.7146
-52.2856
-49.0341
-45.9535
-43.0372
-40.2787
-37.6717
-35.2098
-32.8868
-30.6966
-28.6332
-26.6909
-24.8639
-23.1467
-21.534
-20.0206
-18.6014
-17.2716
-16.0265
-14.8616
-13.7725
-12.755
-11.8052
-10.9192
-10.0932
-9.3239
-8.60781
-7.94178
-7.32276
-6.74785
-6.21429
-5.71948
-5.26095
-4.83635
-4.44348
-4.08022
-3.74463
-3.43483
-3.14908
-2.88572
-2.64323
-2.42014
-2.21511
-2.02686
-1.85421
-1.69606
-1.55138
-1.41921
-1.29866
-1.18893
-1.08924
-0.998904
-0.917282
-0.843788
-0.777888
-0.719099
-0.666985
-0.621155
-0.581264
-0.547007
-0.518124
-0.494389
-0.47562
-0.461671
-0.452431
-0.447829
-325.417
-313.638
-301.993
-290.506
-279.197
-268.085
-257.185
-246.511
-236.077
-225.891
-215.962
-206.3
-196.91
-187.795
-178.958
-170.402
-162.128
-154.137
-146.428
-139
-131.85
-124.974
-118.369
-112.03
-105.954
-100.134
-94.5656
-89.243
-84.16
-79.3104
-74.6876
-70.2851
-66.096
-62.1136
-58.3308
-54.7408
-51.3366
-48.1113
-45.0581
-42.1701
-39.4407
-36.8632
-34.4311
-32.138
-29.9777
-27.9442
-26.0314
-24.2336
-22.5452
-20.9607
-19.4749
-18.0827
-16.7791
-15.5595
-14.4192
-13.354
-12.3595
-11.4319
-10.5672
-9.76172
-9.01202
-8.31471
-7.66662
-7.06471
-6.5061
-5.98805
-5.50799
-5.06346
-4.65213
-4.27182
-3.92047
-3.59612
-3.29695
-3.02123
-2.76735
-2.53379
-2.31913
-2.12204
-1.94128
-1.7757
-1.62423
-1.48585
-1.35964
-1.24475
-1.14039
-1.04581
-0.960356
-0.88341
-0.814416
-0.752866
-0.698305
-0.650323
-0.608559
-0.572694
-0.542454
-0.517605
-0.497955
-0.48335
-0.473677
-0.468859
-339.932
-327.627
-315.463
-303.464
-291.651
-280.043
-268.656
-257.506
-246.607
-235.967
-225.595
-215.502
-205.693
-196.172
-186.94
-178.002
-169.359
-161.012
-152.96
-145.2
-137.731
-130.549
-123.649
-117.028
-110.68
-104.6
-98.7837
-93.2236
-87.9139
-82.848
-78.019
-73.4201
-69.0442
-64.8841
-60.9326
-57.1825
-53.6264
-50.2573
-47.0679
-44.0511
-41.1999
-38.5074
-35.9668
-33.5715
-31.3149
-29.1906
-27.1925
-25.3145
-23.5508
-21.8957
-20.3436
-18.8892
-17.5275
-16.2535
-15.0624
-13.9496
-12.9108
-11.9418
-11.0385
-10.1971
-9.41399
-8.68558
-8.00858
-7.37982
-6.7963
-6.25515
-5.75367
-5.28931
-4.85964
-4.46236
-4.09534
-3.75652
-3.44401
-3.15599
-2.89079
-2.64681
-2.42257
-2.21669
-2.02787
-1.85491
-1.69667
-1.55212
-1.42029
-1.30028
-1.19125
-1.09246
-1.00319
-0.922815
-0.850743
-0.786448
-0.729453
-0.679331
-0.635704
-0.598239
-0.56665
-0.540693
-0.520166
-0.50491
-0.494805
-0.489772
-354.364
-341.536
-328.856
-316.347
-304.032
-291.932
-280.062
-268.438
-257.077
-245.984
-235.172
-224.651
-214.425
-204.5
-194.877
-185.559
-176.549
-167.848
-159.454
-151.365
-143.578
-136.091
-128.898
-121.996
-115.378
-109.041
-102.977
-97.1812
-91.6461
-86.3651
-81.3312
-76.537
-71.9753
-67.6386
-63.5194
-59.61
-55.903
-52.3909
-49.0661
-45.9212
-42.949
-40.1422
-37.4937
-34.9967
-32.6443
-30.4299
-28.3469
-26.3892
-24.5506
-22.8252
-21.2072
-19.6911
-18.2716
-16.9435
-15.7018
-14.5418
-13.4589
-12.4488
-11.5071
-10.63
-9.81365
-9.05431
-8.34857
-7.69312
-7.08482
-6.5207
-5.99794
-5.51386
-5.06594
-4.65181
-4.2692
-3.916
-3.59022
-3.28997
-3.01351
-2.75917
-2.52542
-2.3108
-2.11396
-1.93366
-1.7687
-1.61802
-1.48059
-1.35548
-1.24183
-1.13884
-1.04578
-0.961992
-0.88686
-0.819836
-0.760421
-0.708171
-0.662692
-0.623637
-0.590707
-0.563648
-0.542249
-0.526345
-0.515812
-0.510565
-368.707
-355.361
-342.167
-329.152
-316.339
-303.749
-291.398
-279.304
-267.483
-255.941
-244.691
-233.744
-223.105
-212.777
-202.765
-193.07
-183.696
-174.642
-165.908
-157.492
-149.39
-141.599
-134.116
-126.934
-120.049
-113.455
-107.146
-101.115
-95.3557
-89.8609
-84.6232
-79.635
-74.8887
-70.3765
-66.0905
-62.0229
-58.1659
-54.5115
-51.0521
-47.78
-44.6874
-41.767
-39.0114
-36.4133
-33.9657
-31.6616
-29.4943
-27.4574
-25.5444
-23.7491
-22.0656
-20.4882
-19.0112
-17.6293
-16.3374
-15.1304
-14.0037
-12.9527
-11.9729
-11.0603
-10.2109
-9.42081
-8.6865
-8.00452
-7.3716
-6.78464
-6.24072
-5.73705
-5.271
-4.8401
-4.44201
-4.07451
-3.73554
-3.42314
-3.13549
-2.87086
-2.62764
-2.40433
-2.19953
-2.01193
-1.8403
-1.68351
-1.54052
-1.41034
-1.29209
-1.18493
-1.08811
-1.00093
-0.922759
-0.853021
-0.791201
-0.736837
-0.689516
-0.64888
-0.614618
-0.586463
-0.564199
-0.547651
-0.536691
-0.531232
-382.96
-369.098
-355.394
-341.876
-328.567
-315.49
-302.662
-290.101
-277.822
-265.835
-254.15
-242.78
-231.729
-221.002
-210.603
-200.533
-190.797
-181.393
-172.321
-163.58
-155.165
-147.073
-139.3
-131.841
-124.689
-117.84
-111.287
-105.024
-99.0418
-93.3346
-87.8944
-82.7134
-77.7836
-73.0969
-68.6453
-64.4205
-60.4143
-56.6187
-53.0256
-49.627
-46.4149
-43.3816
-40.5194
-37.8209
-35.2786
-32.8855
-30.6345
-28.5188
-26.5318
-24.6672
-22.9186
-21.2802
-19.7461
-18.3108
-16.9689
-15.7153
-14.545
-13.4534
-12.4357
-11.4879
-10.6056
-9.78498
-9.02229
-8.31394
-7.65656
-7.04691
-6.48196
-5.95882
-5.47476
-5.0272
-4.61372
-4.23202
-3.87994
-3.55547
-3.2567
-2.98183
-2.72921
-2.49728
-2.28456
-2.0897
-1.91144
-1.74859
-1.60007
-1.46486
-1.34204
-1.23074
-1.13018
-1.03962
-0.958429
-0.885996
-0.821787
-0.76532
-0.716171
-0.673964
-0.638377
-0.609134
-0.586009
-0.568822
-0.557438
-0.551768
-397.118
-382.743
-368.533
-354.515
-340.715
-327.154
-313.852
-300.826
-288.094
-275.663
-263.546
-251.755
-240.296
-229.173
-218.389
-207.947
-197.85
-188.099
-178.692
-169.627
-160.901
-152.511
-144.45
-136.715
-129.299
-122.197
-115.402
-108.906
-102.703
-96.7853
-91.144
-85.7714
-80.6593
-75.7994
-71.1831
-66.8021
-62.6479
-58.712
-54.986
-51.4617
-48.1309
-44.9854
-42.0174
-39.2191
-36.5829
-34.1013
-31.7671
-29.5731
-27.5127
-25.5791
-23.7659
-22.0669
-20.4761
-18.9878
-17.5963
-16.2963
-15.0828
-13.9507
-12.8955
-11.9126
-10.9977
-10.1467
-9.35585
-8.62132
-7.93963
-7.30744
-6.7216
-6.17912
-5.67716
-5.21306
-4.78429
-4.38848
-4.02339
-3.68692
-3.3771
-3.09207
-2.83012
-2.5896
-2.36902
-2.16696
-1.9821
-1.81324
-1.65923
-1.51902
-1.39166
-1.27624
-1.17196
-1.07806
-0.993864
-0.918752
-0.852169
-0.793615
-0.742649
-0.698881
-0.661979
-0.631655
-0.607675
-0.589852
-0.578047
-0.572168
-411.179
-396.295
-381.581
-367.067
-352.778
-338.737
-324.964
-311.477
-298.294
-285.423
-272.877
-260.669
-248.804
-237.287
-226.121
-215.31
-204.856
-194.759
-185.019
-175.633
-166.598
-157.91
-149.564
-141.555
-133.877
-126.524
-119.488
-112.762
-106.34
-100.212
-94.371
-88.8082
-83.5151
-78.4831
-73.7034
-69.1673
-64.866
-60.7907
-56.9328
-53.2837
-49.835
-46.5782
-43.5051
-40.6077
-37.8782
-35.3087
-32.8918
-30.6202
-28.4868
-26.4848
-24.6074
-22.8482
-21.2011
-19.6601
-18.2193
-16.8733
-15.6168
-14.4447
-13.3521
-12.3344
-11.3871
-10.506
-9.6871
-8.92656
-8.22074
-7.56617
-6.95959
-6.3979
-5.87817
-5.39763
-4.95368
-4.54386
-4.16584
-3.81746
-3.49667
-3.20155
-2.93032
-2.68129
-2.4529
-2.24368
-2.05228
-1.87744
-1.71797
-1.5728
-1.44093
-1.32143
-1.21345
-1.11623
-1.02905
-0.951282
-0.882342
-0.821715
-0.768943
-0.723626
-0.685417
-0.654019
-0.62919
-0.610737
-0.598514
-0.592426
-425.138
-409.748
-394.535
-379.528
-364.754
-350.237
-335.996
-322.051
-308.421
-295.113
-282.141
-269.518
-257.251
-245.343
-233.798
-222.619
-211.81
-201.371
-191.3
-181.596
-172.254
-163.271
-154.642
-146.361
-138.422
-130.819
-123.544
-116.59
-109.95
-103.614
-97.5747
-91.8231
-86.3503
-81.1475
-76.2056
-71.5154
-67.0681
-62.8544
-58.8656
-55.0926
-51.5268
-48.1594
-44.982
-41.9863
-39.1641
-36.5074
-34.0084
-31.6597
-29.4539
-27.3839
-25.4428
-23.6239
-21.9209
-20.3275
-18.8378
-17.4461
-16.147
-14.9351
-13.8054
-12.7531
-11.7736
-10.8627
-10.016
-9.22961
-8.49982
-7.82303
-7.19586
-6.6151
-6.07772
-5.58088
-5.12185
-4.69811
-4.30727
-3.94706
-3.61538
-3.31024
-3.0298
-2.77232
-2.53617
-2.31985
-2.12196
-1.94117
-1.7763
-1.6262
-1.48985
-1.36629
-1.25465
-1.15413
-1.06399
-0.983577
-0.912296
-0.849611
-0.795048
-0.748193
-0.708686
-0.676223
-0.650551
-0.631471
-0.618833
-0.612539
-438.992
-423.101
-407.392
-391.896
-376.64
-361.65
-346.945
-332.546
-318.471
-304.729
-291.335
-278.301
-265.634
-253.338
-241.416
-229.874
-218.712
-207.933
-197.534
-187.513
-177.867
-168.592
-159.681
-151.13
-142.933
-135.082
-127.57
-120.39
-113.533
-106.991
-100.754
-94.8153
-89.1642
-83.7919
-78.6889
-73.8459
-69.2536
-64.9027
-60.7838
-56.8879
-53.2059
-49.7288
-46.4479
-43.3545
-40.4403
-37.697
-35.1167
-32.6914
-30.4137
-28.2762
-26.2719
-24.3937
-22.6352
-20.9899
-19.4517
-18.0147
-16.6732
-15.4217
-14.2552
-13.1687
-12.1573
-11.2166
-10.3424
-9.53037
-8.7768
-8.07796
-7.43035
-6.83067
-6.27578
-5.76274
-5.28876
-4.85121
-4.44763
-4.07568
-3.73319
-3.41811
-3.12853
-2.86266
-2.61882
-2.39545
-2.1911
-2.00443
-1.83418
-1.67919
-1.5384
-1.41081
-1.29554
-1.19174
-1.09866
-1.01563
-0.942026
-0.877298
-0.820957
-0.772575
-0.731781
-0.69826
-0.671751
-0.652049
-0.639
-0.6325
-452.737
-436.349
-420.148
-404.167
-388.434
-372.974
-357.809
-342.959
-328.443
-314.271
-300.458
-287.015
-273.951
-261.27
-248.976
-237.072
-225.561
-214.444
-203.719
-193.385
-183.437
-173.871
-164.681
-155.862
-147.408
-139.311
-131.564
-124.159
-117.088
-110.341
-103.909
-97.7842
-91.9561
-86.4155
-81.1528
-76.1582
-71.4221
-66.9349
-62.6871
-58.6692
-54.8719
-51.2859
-47.9022
-44.712
-41.7066
-38.8774
-36.2162
-33.715
-31.366
-29.1616
-27.0945
-25.1575
-23.344
-21.6471
-20.0608
-18.5787
-17.1952
-15.9046
-14.7016
-13.581
-12.538
-11.5679
-10.6662
-9.82879
-9.05162
-8.3309
-7.66301
-7.04455
-6.47229
-5.94318
-5.45436
-5.00311
-4.58689
-4.2033
-3.85008
-3.52514
-3.22649
-2.95229
-2.70082
-2.47046
-2.25971
-2.0672
-1.89161
-1.73177
-1.58657
-1.45499
-1.3361
-1.22905
-1.13306
-1.04743
-0.971523
-0.904768
-0.846663
-0.796766
-0.754695
-0.720124
-0.692785
-0.672467
-0.659009
-0.652305
-466.371
-449.489
-432.801
-416.338
-400.131
-384.206
-368.584
-353.287
-338.334
-323.735
-309.506
-295.659
-282.201
-269.138
-256.473
-244.211
-232.353
-220.901
-209.854
-199.208
-188.961
-179.107
-169.64
-160.556
-151.847
-143.507
-135.526
-127.898
-120.614
-113.663
-107.038
-100.729
-94.7254
-89.0179
-83.5966
-78.4516
-73.5729
-68.9506
-64.5749
-60.436
-56.5243
-52.8303
-49.3448
-46.0585
-42.9625
-40.0482
-37.3069
-34.7304
-32.3106
-30.0398
-27.9104
-25.9152
-24.0469
-22.299
-20.6649
-19.1382
-17.7131
-16.3836
-15.1443
-13.99
-12.9156
-11.9162
-10.9874
-10.1248
-9.32421
-8.58178
-7.89378
-7.25669
-6.6672
-6.12216
-5.61862
-5.15378
-4.72502
-4.32988
-3.96603
-3.6313
-3.32366
-3.0412
-2.78215
-2.54485
-2.32776
-2.12945
-1.94858
-1.78392
-1.63435
-1.49881
-1.37634
-1.26606
-1.16719
-1.07898
-1.00078
-0.932016
-0.872161
-0.820761