/*--------------------------------*- C++ -*----------------------------------*\
| =========                 |                                                 |
| \\      /  F ield         | OpenFOAM: The Open Source CFD Toolbox           |
|  \\    /   O peration     | Version:  2406                                  |
|   \\  /    A nd           | Website:  www.openfoam.com                      |
|    \\/     M anipulation  |                                                 |
\*---------------------------------------------------------------------------*/
FoamFile
{
    version     2.0;
    format      ascii;
    arch        "LSB;label=32;scalar=64";
    class       volScalarField;
    location    "60";
    object      gradTy;
}
// * * * * * * * * * * * * * * * * * * * * * * * * * * * * * * * * * * * * * //

dimensions      [0 -1 0 1 0 0 0];

internalField   nonuniform List<scalar> 
20000
(
314.406
299.881
285.772
272.095
258.853
246.047
233.682
221.757
210.27
199.219
188.6
178.407
168.634
159.274
150.318
141.76
133.588
125.794
118.367
111.297
104.574
98.1846
92.1196
86.3674
80.9168
75.7564
70.8751
66.2618
61.9056
57.7955
53.9209
50.2714
46.8367
43.6068
40.5719
37.7226
35.0496
32.544
30.1972
28.0008
25.9468
24.0274
22.2351
20.5629
19.0038
17.5513
16.1992
14.9414
13.7721
12.6861
11.6781
10.7431
9.87654
9.07398
8.33122
7.64429
7.00946
6.42319
5.88215
5.3832
4.92339
4.49995
4.11026
3.75189
3.42255
3.12008
2.84248
2.58787
2.35451
2.14076
1.94508
1.76608
1.60241
1.45286
1.31627
1.1916
1.07785
0.974111
0.879535
0.793337
0.714789
0.643217
0.577997
0.51855
0.464341
0.414871
0.369682
0.328343
0.290458
0.255655
0.223588
0.193933
0.166384
0.140654
0.116472
0.0935772
0.0717213
0.0506645
0.0301737
0.0100204
314.327
299.806
285.704
272.028
258.789
245.986
233.624
221.702
210.218
199.17
188.553
178.363
168.592
159.234
150.281
141.725
133.555
125.763
118.338
111.27
104.548
98.1605
92.097
86.3462
80.8969
75.7378
70.8577
66.2456
61.8904
57.7813
53.9077
50.2591
46.8252
43.5961
40.562
37.7133
35.041
32.536
30.1898
27.994
25.9404
24.0215
22.2297
20.5579
18.9992
17.547
16.1952
14.9377
13.7688
12.683
11.6752
10.7405
9.87412
9.07176
8.32918
7.64242
7.00774
6.42162
5.88071
5.38188
4.92219
4.49885
4.10926
3.75098
3.42171
3.11931
2.84178
2.58724
2.35394
2.14023
1.94461
1.76565
1.60202
1.4525
1.31595
1.19131
1.07759
0.973874
0.879321
0.793144
0.714615
0.64306
0.577856
0.518424
0.464227
0.41477
0.369592
0.328263
0.290387
0.255593
0.223534
0.193885
0.166343
0.14062
0.116444
0.0935543
0.0717037
0.050652
0.0301663
0.0100181
314.173
299.656
285.562
271.894
258.661
245.865
233.509
221.593
210.115
199.072
188.46
178.275
168.509
159.156
150.207
141.655
133.49
125.701
118.28
111.215
104.496
98.112
92.0516
86.3036
80.857
75.7004
70.8227
66.2129
61.8598
57.7528
53.8811
50.2343
46.8021
43.5746
40.5419
37.6947
35.0237
32.52
30.1749
27.9801
25.9276
24.0096
22.2187
20.5477
18.9898
17.5384
16.1872
14.9303
13.762
12.6767
11.6694
10.7352
9.86925
9.06728
8.32507
7.63865
7.00429
6.41845
5.87781
5.37923
4.91976
4.49663
4.10723
3.74912
3.42002
3.11778
2.84038
2.58596
2.35277
2.13918
1.94365
1.76477
1.60123
1.45179
1.3153
1.19072
1.07706
0.973393
0.878887
0.792753
0.714262
0.642743
0.577571
0.518168
0.463999
0.414566
0.369409
0.328102
0.290244
0.255467
0.223424
0.19379
0.166261
0.140551
0.116386
0.0935083
0.0716685
0.0506271
0.0301512
0.0100132
313.942
299.435
285.35
271.692
258.469
245.683
233.336
221.428
209.959
198.924
188.321
178.143
168.384
159.038
150.096
141.55
133.391
125.608
118.192
111.133
104.419
98.0392
91.9832
86.2396
80.797
75.6442
70.7702
66.1637
61.8139
57.7099
53.8411
50.197
46.7673
43.5422
40.5118
37.6667
34.9977
32.4958
30.1525
27.9593
25.9084
23.9918
22.2022
20.5324
18.9757
17.5253
16.1752
14.9192
13.7517
12.6673
11.6608
10.7272
9.86191
9.06054
8.31888
7.63297
6.99908
6.41368
5.87344
5.37523
4.9161
4.49328
4.10418
3.74634
3.41748
3.11546
2.83827
2.58404
2.35102
2.13759
1.9422
1.76346
1.60004
1.45071
1.31433
1.18984
1.07626
0.972669
0.878234
0.792163
0.713731
0.642265
0.577142
0.517783
0.463654
0.414258
0.369135
0.327858
0.290029
0.255277
0.223258
0.193646
0.166138
0.140447
0.1163
0.0934391
0.0716156
0.05059
0.0301289
0.0100058
313.632
299.14
285.068
271.424
258.214
245.44
233.106
221.21
209.751
198.728
188.135
177.967
168.218
158.881
149.948
141.41
133.259
125.484
118.076
111.023
104.316
97.9425
91.8925
86.1545
80.7172
75.5696
70.7003
66.0984
61.7529
57.653
53.788
50.1474
46.7212
43.4993
40.4719
37.6296
34.9632
32.4638
30.1228
27.9318
25.8828
23.9681
22.1803
20.5122
18.957
17.5081
16.1592
14.9045
13.7382
12.6548
11.6493
10.7166
9.85219
9.05161
8.31068
7.62545
6.99218
6.40736
5.86765
5.36993
4.91126
4.48886
4.10013
3.74265
3.41411
3.11239
2.83547
2.5815
2.34871
2.13548
1.94029
1.76172
1.59846
1.44928
1.31303
1.18866
1.0752
0.971712
0.877369
0.791383
0.713029
0.641633
0.576574
0.517273
0.463197
0.41385
0.368772
0.327535
0.289743
0.255026
0.223038
0.193455
0.165974
0.140308
0.116185
0.093347
0.071545
0.0505402
0.0300993
0.00999593
313.244
298.77
284.716
271.089
257.895
245.137
232.818
220.937
209.492
198.482
187.902
177.747
168.01
158.685
149.763
141.236
133.094
125.329
117.93
110.886
104.187
97.8214
91.7789
86.048
80.6175
75.4762
70.613
66.0168
61.6766
57.5817
53.7215
50.0855
46.6635
43.4455
40.4219
37.5831
34.92
32.4237
30.0855
27.8973
25.8508
23.9385
22.1529
20.4868
18.9335
17.4864
16.1393
14.8861
13.7212
12.6392
11.6349
10.7034
9.84002
9.04042
8.30041
7.61602
6.98354
6.39944
5.8604
5.3633
4.90519
4.48331
4.09507
3.73802
3.40989
3.10854
2.83197
2.57831
2.34581
2.13284
1.93789
1.75955
1.59649
1.44749
1.31141
1.1872
1.07387
0.970512
0.876285
0.790406
0.712148
0.640841
0.575862
0.516635
0.462625
0.413339
0.368317
0.327131
0.289386
0.254711
0.222763
0.193217
0.16577
0.140135
0.116042
0.0932319
0.0714568
0.0504778
0.0300622
0.0099836
312.779
298.327
284.294
270.687
257.512
244.773
232.472
220.609
209.181
198.188
187.623
177.483
167.761
158.449
149.54
141.026
132.897
125.143
117.755
110.721
104.032
97.6762
91.6427
85.9203
80.4978
75.3641
70.5081
65.9187
61.585
57.4962
53.6417
50.0111
46.5942
43.381
40.3618
37.5273
34.8681
32.3755
30.0409
27.8558
25.8124
23.903
22.12
20.4564
18.9054
17.4605
16.1153
14.864
13.7008
12.6204
11.6176
10.6875
9.8254
9.027
8.28808
7.60471
6.97317
6.38994
5.8517
5.35533
4.8979
4.47665
4.08899
3.73247
3.40483
3.10393
2.82776
2.57448
2.34232
2.12968
1.93502
1.75694
1.59412
1.44534
1.30946
1.18543
1.07227
0.969071
0.874985
0.789233
0.711091
0.63989
0.575007
0.515868
0.461939
0.412726
0.36777
0.326646
0.288956
0.254334
0.222432
0.19293
0.165524
0.139928
0.11587
0.0930937
0.0713509
0.050403
0.0300176
0.0099688
312.237
297.81
283.801
270.218
257.066
244.349
232.069
220.226
208.819
197.844
187.298
177.176
167.47
158.175
149.281
140.782
132.667
124.926
117.551
110.529
103.852
97.507
91.4839
85.7714
80.3583
75.2336
70.386
65.8045
61.4783
57.3966
53.5488
49.9245
46.5134
43.3058
40.2919
37.4622
34.8077
32.3194
29.9888
27.8076
25.7677
23.8615
22.0817
20.421
18.8727
17.4302
16.0874
14.8382
13.6771
12.5985
11.5975
10.6689
9.80838
9.01136
8.27372
7.59154
6.96109
6.37886
5.84156
5.34605
4.88942
4.4689
4.0819
3.726
3.39893
3.09855
2.82287
2.57002
2.33827
2.12599
1.93167
1.75389
1.59136
1.44284
1.30719
1.18338
1.07042
0.967393
0.873469
0.787866
0.70986
0.638782
0.574011
0.514975
0.461139
0.412011
0.367133
0.32608
0.288456
0.253893
0.222047
0.192596
0.165237
0.139686
0.11567
0.0929325
0.0712274
0.0503158
0.0299657
0.00995155
311.618
297.22
283.238
269.682
256.556
243.865
231.609
219.79
208.405
197.452
186.927
176.825
167.138
157.861
148.985
140.503
132.404
124.679
117.318
110.31
103.646
97.3137
91.3025
85.6013
80.199
75.0844
70.2464
65.6741
61.3564
57.2828
53.4426
49.8255
46.4212
43.22
40.212
37.388
34.7387
32.2553
29.9293
27.7524
25.7166
23.8142
22.0379
20.3805
18.8352
17.3957
16.0555
14.8088
13.65
12.5736
11.5745
10.6478
9.78894
8.99349
8.25732
7.57649
6.94729
6.36622
5.82998
5.33546
4.87973
4.46004
4.07381
3.71862
3.39219
3.09241
2.81727
2.56492
2.33363
2.12177
1.92784
1.75042
1.5882
1.43998
1.3046
1.18104
1.0683
0.965476
0.871739
0.786305
0.708453
0.637516
0.572874
0.513954
0.460225
0.411195
0.366406
0.325434
0.287885
0.25339
0.221607
0.192215
0.16491
0.139409
0.115441
0.0927485
0.0710863
0.0502162
0.0299064
0.00993185
310.922
296.556
282.606
269.08
255.983
243.32
231.092
219.299
207.94
197.011
186.51
176.43
166.765
157.509
148.653
140.189
132.108
124.4
117.056
110.064
103.414
97.0963
91.0986
85.4101
80.0199
74.9167
70.0895
65.5274
61.2194
57.1549
53.3232
49.7142
46.3175
43.1234
40.1222
37.3045
34.6611
32.1833
29.8625
27.6904
25.6592
23.761
21.9887
20.335
18.7932
17.3568
16.0196
14.7757
13.6195
12.5455
11.5486
10.624
9.76707
8.9734
8.23888
7.55957
6.93177
6.352
5.81696
5.32354
4.86883
4.45008
4.06471
3.71031
3.38462
3.0855
2.81098
2.5592
2.32842
2.11704
1.92353
1.74651
1.58466
1.43676
1.30169
1.1784
1.06591
0.96332
0.869792
0.784549
0.706872
0.636093
0.571595
0.512807
0.459198
0.410277
0.365588
0.324708
0.287242
0.252825
0.221113
0.191786
0.164542
0.139098
0.115183
0.0925416
0.0709278
0.0501042
0.0298397
0.0099097
310.149
295.819
281.903
268.411
255.347
242.716
230.518
218.754
207.423
196.522
186.046
175.991
166.351
157.117
148.283
139.84
131.779
124.091
116.765
109.79
103.157
96.855
90.8722
85.1979
79.821
74.7305
69.9153
65.3645
61.0672
57.0128
53.1907
49.5906
46.2024
43.0162
40.0225
37.2117
34.575
32.1033
29.7883
27.6216
25.5954
23.702
21.934
20.2844
18.7465
17.3137
15.9798
14.739
13.5856
12.5143
11.5199
10.5976
9.74279
8.9511
8.2184
7.54078
6.91454
6.33621
5.8025
5.31031
4.85673
4.43902
4.05461
3.70109
3.37621
3.07783
2.80399
2.55284
2.32263
2.11177
1.91875
1.74217
1.58072
1.43319
1.29846
1.17547
1.06326
0.960927
0.867631
0.7826
0.705116
0.634513
0.570175
0.511533
0.458057
0.409258
0.36468
0.323901
0.286529
0.252197
0.220564
0.19131
0.164134
0.138752
0.114897
0.0923119
0.0707517
0.0499798
0.0297656
0.0098851
309.3
295.009
281.132
267.676
254.648
242.051
229.887
218.155
206.855
195.984
185.537
175.509
165.895
156.687
147.877
139.458
131.419
123.751
116.445
109.49
102.875
96.5898
90.6233
84.9646
79.6024
74.5259
69.7239
65.1855
60.9
56.8567
53.0451
49.4548
46.0759
42.8985
39.9129
37.1098
34.4803
32.0154
29.7067
27.546
25.5253
23.6371
21.8739
20.2289
18.6951
17.2662
15.9361
14.6987
13.5484
12.48
11.4884
10.5686
9.71612
8.92659
8.1959
7.52013
6.89561
6.31886
5.78661
5.29577
4.84343
4.42686
4.04351
3.69096
3.36696
3.06941
2.79632
2.54585
2.31628
2.10599
1.9135
1.7374
1.57639
1.42927
1.2949
1.17225
1.06035
0.958296
0.865256
0.780458
0.703185
0.632776
0.568615
0.510133
0.456804
0.408138
0.363682
0.323015
0.285745
0.251507
0.21996
0.190786
0.163685
0.138373
0.114583
0.0920593
0.0705581
0.0498431
0.0296841
0.00985806
308.375
294.126
280.291
266.875
253.886
241.327
229.199
217.503
206.236
195.398
184.982
174.984
165.399
156.218
147.435
139.04
131.025
123.381
116.097
109.162
102.567
96.3008
90.3522
84.7103
79.3642
74.3029
69.5152
64.9905
60.7178
56.6866
52.8863
49.3068
45.938
42.7701
39.7934
36.9988
34.3771
31.9196
29.6178
27.4636
25.4489
23.5663
21.8085
20.1683
18.6392
17.2146
15.8884
14.6547
13.5079
12.4427
11.454
10.537
9.68704
8.89988
8.17137
7.49763
6.87498
6.29996
5.7693
5.27992
4.82894
4.41362
4.03141
3.67992
3.35689
3.06022
2.78795
2.53823
2.30935
2.09969
1.90777
1.7322
1.57167
1.42499
1.29103
1.16875
1.05718
0.95543
0.862668
0.778123
0.701082
0.630883
0.566914
0.508607
0.455437
0.406917
0.362594
0.322049
0.28489
0.250755
0.219302
0.190216
0.163195
0.137959
0.11424
0.091784
0.0703471
0.049694
0.0295954
0.00982857
307.374
293.171
279.38
266.009
253.062
240.543
228.455
216.796
205.567
194.763
184.381
174.416
164.862
155.711
146.956
138.589
130.6
122.98
115.719
108.808
102.234
95.988
90.0587
84.4352
79.1065
74.0615
69.2894
64.7794
60.5206
56.5024
52.7146
49.1467
45.7888
42.6312
39.6642
36.8786
34.2654
31.8159
29.5216
27.3744
25.3663
23.4898
21.7377
20.1028
18.5786
17.1587
15.8368
14.6071
13.464
12.4023
11.4168
10.5027
9.65558
8.87097
8.14483
7.47328
6.85265
6.27949
5.75056
5.26277
4.81325
4.39928
4.01832
3.66796
3.34599
3.05028
2.7789
2.52999
2.30185
2.09287
1.90158
1.72658
1.56657
1.42036
1.28684
1.16495
1.05375
0.952328
0.859867
0.775597
0.698806
0.628835
0.565073
0.506956
0.453959
0.405596
0.361417
0.321003
0.283965
0.24994
0.21859
0.189598
0.162665
0.137511
0.113869
0.091486
0.0701188
0.0495327
0.0294993
0.00979667
306.296
292.144
278.401
265.077
252.175
239.7
227.654
216.037
204.846
194.08
183.735
173.805
164.284
155.165
146.441
138.103
130.142
122.549
115.314
108.426
101.876
95.6515
89.743
84.1392
78.8292
73.8019
69.0466
64.5523
60.3084
56.3044
52.5298
48.9744
45.6283
42.4817
39.5252
36.7494
34.1453
31.7044
29.4181
27.2784
25.2774
23.4075
21.6615
20.0324
18.5135
17.0985
15.7812
14.5559
13.4168
12.3588
11.3768
10.4659
9.62174
8.83988
8.11628
7.44708
6.82863
6.25748
5.7304
5.24433
4.79638
4.38386
4.00423
3.65511
3.33426
3.03959
2.76916
2.52112
2.29378
2.08554
1.89492
1.72053
1.56108
1.41539
1.28233
1.16087
1.05005
0.948991
0.856854
0.772879
0.696357
0.626631
0.563093
0.50518
0.452368
0.404175
0.360151
0.319878
0.28297
0.249065
0.217825
0.188934
0.162095
0.137029
0.11347
0.0911655
0.0698731
0.0493591
0.029396
0.00976235
305.144
291.044
277.353
264.079
251.226
238.798
226.797
215.223
204.075
193.35
183.043
173.151
163.665
154.581
145.89
137.583
129.652
122.088
114.88
108.018
101.492
95.2915
89.4052
83.8225
78.5324
73.5241
68.7866
64.3093
60.0814
56.0924
52.332
48.7901
45.4565
42.3218
39.3764
36.611
34.0168
31.585
29.3074
27.1757
25.1822
23.3194
21.5799
19.957
18.4438
17.0342
15.7218
14.5011
13.3663
12.3123
11.3339
10.4265
9.58552
8.80661
8.08573
7.41905
6.80293
6.23393
5.70883
5.22459
4.77833
4.36736
3.98916
3.64135
3.32171
3.02815
2.75874
2.51163
2.28515
2.07769
1.88778
1.71405
1.55521
1.41006
1.2775
1.1565
1.0461
0.94542
0.85363
0.769971
0.693737
0.624274
0.560975
0.503279
0.450666
0.402654
0.358796
0.318675
0.281906
0.248128
0.217005
0.188223
0.161485
0.136514
0.113043
0.0908226
0.0696103
0.0491735
0.0292854
0.00972562
303.915
289.873
276.237
263.016
250.215
237.837
225.884
214.357
203.254
192.572
182.307
172.454
163.007
153.959
145.302
137.029
129.13
121.596
114.417
107.583
101.084
94.9079
89.0453
83.4851
78.2163
73.2281
68.5098
64.0504
59.8396
55.8666
52.1214
48.5937
45.2736
42.1515
39.2179
36.4636
33.8799
31.4579
29.1894
27.0663
25.0808
23.2255
21.4931
19.8766
18.3696
16.9656
15.6586
14.4427
13.3125
12.2627
11.2883
10.3846
9.54694
8.77116
8.05319
7.38919
6.77555
6.20884
5.68586
5.20356
4.7591
4.34979
3.97311
3.6267
3.30834
3.01597
2.74763
2.50153
2.27595
2.06933
1.88019
1.70715
1.54895
1.40439
1.27236
1.15185
1.04189
0.941616
0.850196
0.766874
0.690947
0.621763
0.558718
0.501255
0.448854
0.401035
0.357352
0.317393
0.280772
0.24713
0.216132
0.187466
0.160836
0.135965
0.112589
0.0904573
0.0693303
0.0489757
0.0291676
0.00968651
302.612
288.63
275.053
261.888
249.142
236.817
224.916
213.438
202.382
191.746
181.525
171.714
162.308
153.299
144.679
136.442
128.577
121.075
113.927
107.122
100.65
94.5009
88.6635
83.1271
77.8809
72.9141
68.216
63.7758
59.5829
55.6271
51.8979
48.3853
45.0794
41.9707
39.0497
36.3073
33.7346
31.323
29.0643
26.9503
24.9733
23.1259
21.4009
19.7914
18.2908
16.8928
15.5914
14.3808
13.2554
12.2101
11.2399
10.34
9.506
8.73355
8.01866
7.35751
6.7465
6.18222
5.66148
5.18125
4.7387
4.33114
3.95608
3.61115
3.29416
3.00304
2.73585
2.4908
2.2662
2.06046
1.87213
1.69984
1.54231
1.39837
1.26691
1.14691
1.03743
0.937581
0.846552
0.763587
0.687986
0.619098
0.556324
0.499107
0.44693
0.399316
0.355821
0.316033
0.279569
0.246071
0.215206
0.186663
0.160147
0.135382
0.112106
0.0900697
0.0690332
0.0487659
0.0290426
0.00964501
301.234
287.316
273.8
260.696
248.007
235.739
223.892
212.466
201.461
190.873
180.698
170.932
161.568
152.6
144.02
135.82
127.991
120.524
113.408
106.634
100.192
94.0706
88.2597
82.7486
77.5263
72.5821
67.9054
63.4854
59.3116
55.3738
51.6616
48.165
44.8742
41.7796
38.8719
36.142
33.581
31.1804
28.9319
26.8276
24.8596
23.0206
21.3035
19.7013
18.2076
16.8159
15.5204
14.3153
13.1951
12.1546
11.1888
10.293
9.46273
8.69379
7.98216
7.32401
6.71578
6.15408
5.63571
5.15767
4.71712
4.31142
3.93807
3.59471
3.27917
2.98937
2.7234
2.47946
2.25588
2.05108
1.86361
1.6921
1.53529
1.392
1.26114
1.14169
1.03271
0.933314
0.8427
0.760113
0.684855
0.616281
0.553793
0.496836
0.444897
0.397499
0.354202
0.314595
0.278297
0.244951
0.214227
0.185813
0.159418
0.134766
0.111596
0.08966
0.0687192
0.048544
0.0289105
0.00960113
299.782
285.93
272.48
259.439
246.812
234.602
222.812
211.442
200.489
189.952
179.827
170.108
160.79
151.865
143.326
135.166
127.374
119.943
112.861
106.12
99.7088
93.6171
87.8343
82.3496
77.1525
72.2322
67.578
63.1793
59.0257
55.1068
51.4125
47.9328
44.6578
41.5782
38.6845
35.9677
33.4191
31.0301
28.7924
26.6982
24.7398
22.9096
21.2008
19.6063
18.1198
16.7349
15.4456
14.2463
13.1315
12.096
11.1348
10.2434
9.41712
8.65189
7.94368
7.28871
6.68341
6.12442
5.60855
5.13281
4.69439
4.29064
3.91909
3.57739
3.26336
2.97496
2.71028
2.46752
2.24501
2.0412
1.85463
1.68395
1.52789
1.3853
1.25507
1.13619
1.02773
0.928817
0.83864
0.75645
0.681555
0.613312
0.551125
0.494442
0.442753
0.395585
0.352496
0.31308
0.276956
0.243772
0.213195
0.184918
0.15865
0.134117
0.111059
0.0892281
0.0683882
0.0483102
0.0287713
0.00955489
298.256
284.475
271.093
258.118
245.555
233.408
221.678
210.365
199.469
188.985
178.912
169.242
159.971
151.092
142.596
134.477
126.726
119.332
112.287
105.58
99.2012
93.1405
87.3871
81.9304
76.7597
71.8645
67.234
62.8577
58.7252
54.8263
51.1508
47.6888
44.4305
41.3665
38.4876
35.7846
33.249
30.8721
28.6459
26.5623
24.6138
22.793
21.0928
19.5065
18.0275
16.6497
15.367
14.1738
13.0646
12.0344
11.0781
10.1912
9.36918
8.60785
7.90325
7.25161
6.6494
6.09324
5.58
5.10668
4.6705
4.26881
3.89914
3.55918
3.24675
2.95982
2.69648
2.45496
2.23358
2.03081
1.84519
1.67538
1.52012
1.37825
1.24868
1.13041
1.0225
0.924091
0.834372
0.752601
0.678088
0.610191
0.548321
0.491927
0.440501
0.393572
0.350703
0.311487
0.275547
0.242531
0.212111
0.183978
0.157843
0.133435
0.110494
0.0887743
0.0680404
0.0480645
0.0286249
0.00950629
296.656
282.949
269.639
256.733
244.238
232.156
220.489
209.237
198.399
187.972
177.952
168.334
159.113
150.281
141.832
133.756
126.046
118.692
111.684
105.013
98.6691
92.6409
86.9184
81.491
76.348
71.479
66.8733
62.5205
58.4102
54.5322
50.8764
47.433
44.1922
41.1447
38.2811
35.5927
33.0706
30.7065
28.4922
26.4199
24.4818
22.6708
20.9797
19.4019
17.9309
16.5604
15.2846
14.0978
12.9946
11.9699
11.0187
10.1366
9.31893
8.56169
7.86086
7.21272
6.61374
6.06057
5.55008
5.0793
4.64545
4.24592
3.87823
3.5401
3.22934
2.94395
2.68202
2.44179
2.22161
2.01992
1.8353
1.66639
1.51197
1.37086
1.24198
1.12435
1.01702
0.919137
0.829899
0.748567
0.674452
0.60692
0.545381
0.48929
0.43814
0.391462
0.348823
0.309818
0.27407
0.241232
0.210974
0.182992
0.156997
0.13272
0.109902
0.0882985
0.0676757
0.0478069
0.0284715
0.00945534
294.983
281.353
268.118
255.286
242.861
230.847
219.245
208.057
197.28
186.912
176.948
167.385
158.216
149.434
141.032
133.002
125.335
118.022
111.054
104.421
98.1127
92.1185
86.4282
81.0314
75.9175
71.0759
66.4962
62.168
58.0809
54.2247
50.5895
47.1655
43.943
40.9126
38.0653
35.392
32.8842
30.5334
28.3316
26.2709
24.3437
22.5429
20.8614
19.2925
17.8297
16.467
15.1984
14.0183
12.9213
11.9024
10.9566
10.0794
9.26639
8.51341
7.81654
7.17206
6.57645
6.0264
5.51878
5.05066
4.61926
4.22198
3.85637
3.52014
3.21114
2.92735
2.6669
2.42803
2.20908
2.00853
1.82495
1.657
1.50344
1.36313
1.23498
1.11801
1.01129
0.913956
0.825221
0.744347
0.670651
0.603499
0.542307
0.486532
0.43567
0.389256
0.346857
0.308072
0.272526
0.239872
0.209785
0.18196
0.156113
0.131972
0.109282
0.0878009
0.0672943
0.0475375
0.0283111
0.00940206
293.237
279.688
266.532
253.775
241.423
229.48
217.948
206.826
196.112
185.805
175.901
166.394
157.279
148.549
140.197
132.215
124.593
117.324
110.397
103.803
97.532
91.5733
85.9167
80.5518
75.4682
70.6553
66.1027
61.8001
57.7371
53.9038
50.2901
46.8864
43.6829
40.6705
37.84
35.1825
32.6896
30.3527
28.1639
26.1154
24.1997
22.4095
20.738
19.1783
17.7242
16.3696
15.1085
13.9353
12.8448
11.8319
10.8918
10.0198
9.21156
8.46304
7.77029
7.12962
6.53753
5.99074
5.48613
5.02078
4.59193
4.19699
3.83355
3.49931
3.19214
2.91003
2.65112
2.41366
2.19601
1.99665
1.81415
1.6472
1.49455
1.35506
1.22768
1.1114
1.0053
0.908549
0.82034
0.739944
0.666684
0.599929
0.539099
0.483654
0.433093
0.386954
0.344805
0.306249
0.270914
0.238453
0.208544
0.180884
0.155189
0.131191
0.108636
0.0872816
0.0668963
0.0472563
0.0281436
0.00934645
291.419
277.954
264.879
252.201
239.927
228.058
216.597
205.543
194.896
184.653
174.811
165.363
156.304
147.628
139.328
131.395
123.821
116.597
109.713
103.16
96.9273
91.0055
85.384
80.0524
75.0003
70.2172
65.6929
61.4169
57.3792
53.5696
49.9783
46.5957
43.4121
40.4184
37.6054
34.9644
32.4869
30.1645
27.9893
25.9535
24.0497
22.2706
20.6094
19.0594
17.6144
16.2681
15.0148
13.8489
12.7652
11.7586
10.8242
9.95764
9.15445
8.41057
7.72212
7.08542
6.497
5.9536
5.45212
4.98965
4.56346
4.17098
3.80978
3.47762
3.17235
2.89199
2.63469
2.3987
2.1824
1.98427
1.80291
1.63699
1.48528
1.34666
1.22007
1.10451
0.999073
0.902918
0.815255
0.735358
0.662552
0.596211
0.535758
0.480657
0.430409
0.384556
0.342669
0.304352
0.269235
0.236976
0.207252
0.179763
0.154228
0.130378
0.107963
0.0867408
0.0664818
0.0469635
0.0279692
0.00928854
289.529
276.151
263.161
250.566
238.37
226.579
215.192
204.21
193.632
183.456
173.677
164.29
155.29
146.671
138.424
130.543
123.018
115.84
109.001
102.491
96.2987
90.4153
84.8303
79.5333
74.5139
69.7618
65.2668
61.0186
57.007
53.2222
49.6542
46.2935
43.1306
40.1562
37.3615
34.7377
32.2762
29.9689
27.8078
25.7852
23.8937
22.1262
20.4757
18.9358
17.5001
16.1626
14.9174
13.7591
12.6824
11.6823
10.754
9.89307
9.09509
8.35603
7.67204
7.03947
6.45487
5.91499
5.41676
4.9573
4.53387
4.14393
3.78508
3.45507
3.15178
2.87324
2.61761
2.38315
2.16825
1.97141
1.79122
1.62637
1.47565
1.33793
1.21216
1.09735
0.992596
0.897064
0.80997
0.73059
0.658256
0.592346
0.532285
0.47754
0.427619
0.382063
0.340447
0.302379
0.26749
0.235439
0.205908
0.178598
0.153228
0.129533
0.107263
0.0861785
0.0660509
0.0466591
0.0277879
0.00922833
287.568
274.281
261.378
248.868
236.756
225.044
213.734
202.827
192.321
182.213
172.5
163.177
154.238
145.677
137.487
129.658
122.184
115.056
108.263
101.796
95.6463
89.8028
84.2556
78.9945
74.0091
69.2892
64.8247
60.6052
56.6208
52.8616
49.3178
45.9799
42.8384
39.8842
37.1084
34.5023
32.0575
29.7659
27.6194
25.6105
23.7318
21.9763
20.337
18.8076
17.3816
16.0531
14.8164
13.6659
12.5965
11.6032
10.6812
9.82605
9.03348
8.29943
7.62007
6.99179
6.41115
5.87493
5.38007
4.92372
4.50316
4.11586
3.75944
3.43166
3.13043
2.85378
2.59988
2.36701
2.15356
1.95805
1.77908
1.61536
1.46566
1.32887
1.20395
1.08991
0.985873
0.890988
0.804484
0.725642
0.653798
0.588334
0.52868
0.474306
0.424723
0.379475
0.338142
0.300331
0.265678
0.233845
0.204514
0.177389
0.15219
0.128656
0.106537
0.0855949
0.0656036
0.0463431
0.0275998
0.00916584
285.535
272.342
259.531
247.109
235.082
223.453
212.223
201.393
190.961
180.925
171.281
162.024
153.148
144.648
136.515
128.742
121.321
114.242
107.498
101.077
94.9704
89.1681
83.6601
78.4362
73.486
68.7995
64.3665
60.1769
56.2207
52.488
48.9693
45.6549
42.5356
39.6023
36.8462
34.2585
31.831
29.5555
27.4242
25.4295
23.5641
21.821
20.1933
18.6746
17.2587
15.9396
14.7117
13.5693
12.5075
11.5212
10.6057
9.75661
8.96964
8.24078
7.56622
6.94238
6.36584
5.83341
5.34205
4.88892
4.47134
4.08678
3.73288
3.40741
3.10831
2.83361
2.58151
2.35028
2.13835
1.94422
1.76651
1.60394
1.4553
1.31948
1.19544
1.08221
0.978907
0.884693
0.7988
0.720515
0.649179
0.584178
0.524945
0.470955
0.421722
0.376794
0.335753
0.298209
0.263801
0.232193
0.203069
0.176135
0.151115
0.127747
0.105784
0.0849903
0.0651401
0.0460157
0.0274048
0.00910109
283.433
270.336
257.62
245.29
233.351
221.807
210.661
199.91
189.555
179.593
170.02
160.831
152.02
143.582
135.509
127.794
120.427
113.401
106.706
100.332
94.2709
88.5115
83.044
77.8585
72.9448
68.2929
63.8925
59.7337
55.8066
52.1015
48.6087
45.3187
42.2224
39.3107
36.5748
34.0062
31.5966
29.3378
27.2222
25.2422
23.3906
21.6603
20.0446
18.5371
17.1316
15.8223
14.6033
13.4694
12.4154
11.4363
10.5276
9.68476
8.90358
8.18009
7.5105
6.89125
6.31897
5.79045
5.30271
4.85292
4.43841
4.05668
3.70539
3.38232
3.08542
2.81275
2.5625
2.33297
2.1226
1.9299
1.75351
1.59213
1.44459
1.30977
1.18664
1.07424
0.971699
0.878179
0.792918
0.71521
0.644399
0.579876
0.52108
0.467488
0.418617
0.37402
0.333281
0.296013
0.261859
0.230483
0.201574
0.174839
0.150003
0.126807
0.105005
0.0843646
0.0646606
0.045677
0.027203
0.00903409
281.26
268.264
255.645
243.409
231.562
220.107
209.046
198.378
188.102
178.216
168.716
159.598
150.855
142.482
134.471
126.814
119.504
112.532
105.888
99.5634
93.5483
87.8329
82.4074
77.2617
72.3857
67.7693
63.4027
59.2758
55.3788
51.7021
48.236
44.9713
41.8987
39.0093
36.2944
33.7455
31.3544
29.113
27.0136
25.0487
23.2113
21.4942
19.8909
18.395
17.0003
15.701
14.4914
13.3662
12.3202
11.3487
10.4469
9.61052
8.83533
8.11739
7.45293
6.83843
6.27053
5.74607
5.26207
4.81572
4.40439
4.02559
3.67699
3.3564
3.06177
2.79119
2.54286
2.31509
2.10633
1.91511
1.74007
1.57993
1.43352
1.29973
1.17754
1.06601
0.964252
0.871448
0.786841
0.709729
0.63946
0.575432
0.517086
0.463905
0.415409
0.371154
0.330727
0.293745
0.259852
0.228717
0.200029
0.173499
0.148853
0.125835
0.104201
0.0837181
0.0641651
0.0453269
0.0269946
0.00896486
279.018
266.125
253.607
241.469
229.716
218.352
207.379
196.796
186.602
176.795
167.371
158.326
149.653
141.346
133.399
125.803
118.552
111.635
105.044
98.7696
92.8025
87.1327
81.7505
76.6457
71.8086
67.2291
62.8973
58.8033
54.9374
51.2899
47.8515
44.6128
41.5647
38.6984
36.0051
33.4765
31.1044
28.8809
26.7982
24.8491
23.0262
21.3229
19.7324
18.2484
16.8648
15.5758
14.3759
13.2596
12.222
11.2582
10.3636
9.53392
8.7649
8.05268
7.39352
6.78392
6.22054
5.70026
5.22012
4.77733
4.36928
3.9935
3.64768
3.32964
3.03737
2.76894
2.52259
2.29664
2.08954
1.89984
1.7262
1.56734
1.42209
1.28937
1.16816
1.05751
0.956566
0.864502
0.78057
0.704072
0.634364
0.570846
0.512965
0.460208
0.412098
0.368196
0.328091
0.291404
0.257781
0.226894
0.198435
0.172116
0.147667
0.124832
0.10337
0.0830509
0.0636537
0.0449657
0.0267794
0.00889341
276.707
263.921
251.506
239.469
227.814
216.544
205.662
195.166
185.057
175.331
165.985
157.014
148.413
140.175
132.294
124.761
117.57
110.71
104.174
97.9516
92.0339
86.4111
81.0734
76.0109
71.2138
66.6723
62.3763
58.3162
54.4823
50.8651
47.4552
44.2433
41.2204
38.3778
35.7069
33.1992
30.8468
28.6417
26.5763
24.6432
22.8355
21.1463
19.5689
18.0972
16.7251
15.4468
14.2568
13.1498
12.1208
11.165
10.2778
9.45495
8.69231
7.98599
7.33229
6.72773
6.16903
5.65305
5.17689
4.73777
4.33309
3.96043
3.61747
3.30207
3.01221
2.74601
2.50169
2.27762
2.07224
1.88411
1.7119
1.55436
1.41031
1.27869
1.15848
1.04876
0.948645
0.857343
0.774106
0.698242
0.62911
0.566119
0.508717
0.456397
0.408686
0.365147
0.325374
0.288991
0.255647
0.225016
0.196792
0.170691
0.146444
0.123798
0.102514
0.0823632
0.0631266
0.0445934
0.0265577
0.00881977
274.327
261.652
249.344
237.41
225.855
214.682
203.893
193.488
183.466
173.823
164.558
155.664
147.137
138.97
131.156
123.689
116.559
109.758
103.278
97.1093
91.2425
85.668
80.3762
75.3573
70.6015
66.099
61.84
57.8148
54.0139
50.4278
47.0471
43.8629
40.866
38.0478
35.3999
32.9138
30.5816
28.3954
26.3478
24.4314
22.6392
20.9645
19.4007
17.9416
16.5813
15.314
14.1342
13.0367
12.0166
11.069
10.1894
9.37366
8.61757
7.91732
7.26924
6.66989
6.11598
5.60445
5.13238
4.69703
4.29584
3.92637
3.58636
3.27368
2.98631
2.7224
2.48019
2.25804
2.05442
1.86791
1.69718
1.54099
1.39819
1.2677
1.14852
1.03974
0.940489
0.849972
0.76745
0.692239
0.623702
0.561252
0.504344
0.452473
0.405172
0.362007
0.322577
0.286506
0.253449
0.223081
0.1951
0.169224
0.145185
0.122734
0.101633
0.0816551
0.062584
0.04421
0.0263294
0.00874396
271.88
259.318
247.12
235.292
223.84
212.767
202.074
191.762
181.829
172.273
163.09
154.276
145.824
137.73
129.986
122.585
115.519
108.779
102.357
96.2431
90.4286
84.9039
79.6593
74.6852
69.9718
65.5094
61.2884
57.2991
53.5321
49.9779
46.6275
43.4716
40.5015
37.7085
35.0841
32.6202
30.3088
28.1421
26.1127
24.2134
22.4372
20.7775
19.2276
17.7816
16.4334
15.1774
14.0081
12.9204
11.9094
10.9702
10.0985
9.29005
8.54071
7.8467
7.20441
6.6104
6.06143
5.55446
5.0866
4.65514
4.25752
3.89135
3.55438
3.24448
2.95968
2.69812
2.45806
2.2379
2.0361
1.85125
1.68205
1.52725
1.38572
1.25639
1.13828
1.03047
0.932101
0.842392
0.760606
0.686065
0.618139
0.556246
0.499846
0.448438
0.401559
0.358779
0.3197
0.283951
0.251189
0.221092
0.19336
0.167714
0.14389
0.12164
0.100727
0.080927
0.0620259
0.0438158
0.0260946
0.00866598
269.366
256.92
244.834
233.116
221.77
210.8
200.206
189.989
180.148
170.68
161.582
152.849
144.476
136.457
128.784
121.452
114.451
107.773
101.41
95.3532
89.5925
84.1188
78.9227
73.9946
69.3247
64.9036
60.7216
56.7693
53.0371
49.5158
46.1963
43.0696
40.127
37.3598
34.7597
32.3186
30.0285
27.8819
25.8713
23.9895
22.2298
20.5853
19.0498
17.6172
16.2815
15.0371
13.8786
12.801
11.7993
10.8688
10.0052
9.20415
8.46174
7.77415
7.13779
6.54927
6.00539
5.5031
5.03957
4.6121
4.21816
3.85537
3.52151
3.21448
2.93231
2.67317
2.43534
2.2172
2.01727
1.83414
1.66649
1.51313
1.3729
1.24477
1.12775
1.02094
0.923483
0.834603
0.753574
0.679722
0.612424
0.551103
0.495224
0.444292
0.397846
0.355462
0.316744
0.281326
0.248867
0.219048
0.191573
0.166164
0.14256
0.120515
0.0997955
0.0801788
0.0614524
0.0434107
0.0258534
0.00858586
266.786
254.459
242.489
230.883
219.646
208.78
198.288
188.169
178.422
169.045
160.034
151.385
143.092
135.149
127.551
120.288
113.354
106.741
100.439
94.4397
88.7342
83.3129
78.1666
73.2857
68.6606
64.2819
60.1399
56.2254
52.529
49.0415
45.7538
42.657
39.7426
37.0019
34.4267
32.009
29.7408
27.6148
25.6234
23.7597
22.0168
20.3881
18.8673
17.4484
16.1255
14.893
13.7457
12.6783
11.6862
10.7647
9.90932
9.11597
8.38068
7.69967
7.06941
6.48653
5.94786
5.45038
4.99129
4.56791