/*--------------------------------*- C++ -*----------------------------------*\
| =========                 |                                                 |
| \\      /  F ield         | OpenFOAM: The Open Source CFD Toolbox           |
|  \\    /   O peration     | Version:  2406                                  |
|   \\  /    A nd           | Website:  www.openfoam.com                      |
|    \\/     M anipulation  |                                                 |
\*---------------------------------------------------------------------------*/
FoamFile
{
    version     2.0;
    format      ascii;
    arch        "LSB;label=32;scalar=64";
    class       volVectorField;
    location    "85";
    object      flux;
}
// * * * * * * * * * * * * * * * * * * * * * * * * * * * * * * * * * * * * * //

dimensions      [0 1 -1 1 0 0 0];

internalField   nonuniform List<vector> 
20000
(
(-0.000997647 0.09464 0)
(-0.00102711 0.092613 0)
(-0.0010518 0.0905317 0)
(-0.00107207 0.088406 0)
(-0.00108808 0.0862439 0)
(-0.00110024 0.0840538 0)
(-0.00110914 0.081843 0)
(-0.0011144 0.0796178 0)
(-0.00111629 0.0773859 0)
(-0.00111562 0.0751527 0)
(-0.00111246 0.0729235 0)
(-0.00110673 0.0707032 0)
(-0.00109863 0.0684969 0)
(-0.00108851 0.066309 0)
(-0.00107662 0.0641431 0)
(-0.0010631 0.0620028 0)
(-0.00104808 0.059891 0)
(-0.00103168 0.0578107 0)
(-0.00101405 0.0557645 0)
(-0.000995341 0.0537547 0)
(-0.000975696 0.0517834 0)
(-0.000955251 0.0498522 0)
(-0.000934125 0.0479626 0)
(-0.000912426 0.0461159 0)
(-0.000890255 0.0443132 0)
(-0.000867703 0.0425551 0)
(-0.000844857 0.0408426 0)
(-0.000821799 0.0391759 0)
(-0.000798604 0.0375556 0)
(-0.000775343 0.0359817 0)
(-0.000752082 0.0344544 0)
(-0.000728879 0.0329736 0)
(-0.000705792 0.031539 0)
(-0.000682869 0.0301506 0)
(-0.000660158 0.0288077 0)
(-0.000637701 0.0275101 0)
(-0.000615533 0.0262571 0)
(-0.000593691 0.0250481 0)
(-0.000572204 0.0238825 0)
(-0.000551098 0.0227594 0)
(-0.000530397 0.0216782 0)
(-0.000510123 0.020638 0)
(-0.000490292 0.0196379 0)
(-0.00047092 0.0186769 0)
(-0.000452019 0.0177543 0)
(-0.0004336 0.016869 0)
(-0.000415671 0.01602 0)
(-0.000398239 0.0152064 0)
(-0.000381307 0.0144271 0)
(-0.000364878 0.0136813 0)
(-0.000348954 0.0129677 0)
(-0.000333534 0.0122855 0)
(-0.000318616 0.0116337 0)
(-0.000304197 0.0110111 0)
(-0.000290275 0.0104169 0)
(-0.000276842 0.00985011 0)
(-0.000263895 0.00930965 0)
(-0.000251426 0.00879459 0)
(-0.000239428 0.008304 0)
(-0.000227893 0.00783694 0)
(-0.000216813 0.00739249 0)
(-0.000206179 0.00696974 0)
(-0.000195981 0.00656782 0)
(-0.00018621 0.00618587 0)
(-0.000176856 0.00582303 0)
(-0.000167909 0.00547848 0)
(-0.000159359 0.00515143 0)
(-0.000151196 0.00484108 0)
(-0.000143409 0.00454668 0)
(-0.000135987 0.00426749 0)
(-0.000128921 0.00400277 0)
(-0.000122201 0.00375183 0)
(-0.000115815 0.00351399 0)
(-0.000109755 0.0032886 0)
(-0.00010401 0.003075 0)
(-9.85711e-05 0.00287258 0)
(-9.34283e-05 0.00268074 0)
(-8.85726e-05 0.00249889 0)
(-8.39953e-05 0.00232647 0)
(-7.96876e-05 0.00216293 0)
(-7.56413e-05 0.00200774 0)
(-7.18484e-05 0.00186039 0)
(-6.83012e-05 0.00172037 0)
(-6.49925e-05 0.0015872 0)
(-6.19152e-05 0.00146041 0)
(-5.90628e-05 0.00133955 0)
(-5.64291e-05 0.00122417 0)
(-5.40082e-05 0.00111385 0)
(-5.17947e-05 0.00100816 0)
(-4.97836e-05 0.000906683 0)
(-4.79702e-05 0.000809033 0)
(-4.63502e-05 0.000714814 0)
(-4.492e-05 0.000623644 0)
(-4.36759e-05 0.000535146 0)
(-4.26152e-05 0.000448951 0)
(-4.17352e-05 0.000364695 0)
(-4.10337e-05 0.00028202 0)
(-4.05091e-05 0.00020057 0)
(-4.01601e-05 0.000119994 0)
(-3.99858e-05 3.99398e-05 0)
(-0.00299267 0.0946165 0)
(-0.00308113 0.0925902 0)
(-0.00315516 0.0905095 0)
(-0.00321579 0.0883843 0)
(-0.00326415 0.0862227 0)
(-0.00330069 0.0840329 0)
(-0.00332685 0.0818226 0)
(-0.00334269 0.0795984 0)
(-0.00334878 0.0773669 0)
(-0.00334678 0.0751341 0)
(-0.00333708 0.0729053 0)
(-0.00331979 0.0706857 0)
(-0.00329557 0.0684801 0)
(-0.00326529 0.0662927 0)
(-0.00322963 0.0641273 0)
(-0.00318907 0.0619874 0)
(-0.00314398 0.0598762 0)
(-0.00309478 0.0577964 0)
(-0.00304189 0.0557507 0)
(-0.00298577 0.0537415 0)
(-0.00292684 0.0517706 0)
(-0.00286552 0.0498399 0)
(-0.00280215 0.0479508 0)
(-0.00273706 0.0461046 0)
(-0.00267055 0.0443022 0)
(-0.0026029 0.0425446 0)
(-0.00253436 0.0408325 0)
(-0.0024652 0.0391662 0)
(-0.00239562 0.0375463 0)
(-0.00232584 0.0359728 0)
(-0.00225606 0.0344459 0)
(-0.00218646 0.0329654 0)
(-0.0021172 0.0315313 0)
(-0.00204844 0.0301431 0)
(-0.00198031 0.0288006 0)
(-0.00191294 0.0275033 0)
(-0.00184645 0.0262506 0)
(-0.00178093 0.0250419 0)
(-0.00171647 0.0238766 0)
(-0.00165316 0.0227538 0)
(-0.00159106 0.0216729 0)
(-0.00153024 0.0206329 0)
(-0.00147075 0.019633 0)
(-0.00141264 0.0186723 0)
(-0.00135595 0.0177499 0)
(-0.00130069 0.0168648 0)
(-0.00124691 0.016016 0)
(-0.00119462 0.0152026 0)
(-0.00114383 0.0144236 0)
(-0.00109454 0.0136779 0)
(-0.00104678 0.0129645 0)
(-0.00100052 0.0122825 0)
(-0.000955769 0.0116308 0)
(-0.000912517 0.0110084 0)
(-0.000870752 0.0104144 0)
(-0.000830459 0.00984768 0)
(-0.000791621 0.00930735 0)
(-0.000754217 0.00879243 0)
(-0.000718226 0.00830196 0)
(-0.000683624 0.00783501 0)
(-0.000650386 0.00739066 0)
(-0.000618486 0.00696802 0)
(-0.000587895 0.0065662 0)
(-0.000558585 0.00618434 0)
(-0.000530525 0.00582159 0)
(-0.000503687 0.00547713 0)
(-0.000478039 0.00515016 0)
(-0.000453551 0.00483989 0)
(-0.000430191 0.00454556 0)
(-0.000407929 0.00426643 0)
(-0.000386733 0.00400178 0)
(-0.000366572 0.00375091 0)
(-0.000347418 0.00351313 0)
(-0.000329238 0.00328779 0)
(-0.000312005 0.00307424 0)
(-0.000295689 0.00287187 0)
(-0.000280262 0.00268008 0)
(-0.000265696 0.00249828 0)
(-0.000251965 0.0023259 0)
(-0.000239043 0.0021624 0)
(-0.000226905 0.00200725 0)
(-0.000215527 0.00185993 0)
(-0.000204887 0.00171994 0)
(-0.000194961 0.00158681 0)
(-0.00018573 0.00146005 0)
(-0.000177174 0.00133922 0)
(-0.000169273 0.00122387 0)
(-0.000162011 0.00111357 0)
(-0.000155371 0.00100791 0)
(-0.000149338 0.000906459 0)
(-0.000143899 0.000808834 0)
(-0.000139039 0.000714638 0)
(-0.000134749 0.00062349 0)
(-0.000131017 0.000535014 0)
(-0.000127835 0.00044884 0)
(-0.000125195 0.000364605 0)
(-0.000123091 0.000281951 0)
(-0.000121517 0.000200521 0)
(-0.00012047 0.000119964 0)
(-0.000119948 3.993e-05 0)
(-0.00498679 0.0945697 0)
(-0.00513414 0.0925444 0)
(-0.00525779 0.090465 0)
(-0.00535883 0.0883406 0)
(-0.00543945 0.0861802 0)
(-0.0055004 0.0839914 0)
(-0.00554364 0.0817822 0)
(-0.00557007 0.0795591 0)
(-0.00558055 0.0773287 0)
(-0.00557721 0.075097 0)
(-0.00556083 0.0728693 0)
(-0.00553194 0.0706509 0)
(-0.00549166 0.0684464 0)
(-0.00544128 0.06626 0)
(-0.0053819 0.0640957 0)
(-0.00531428 0.0619568 0)
(-0.00523912 0.0598466 0)
(-0.0051571 0.0577678 0)
(-0.00506896 0.0557232 0)
(-0.00497544 0.053715 0)
(-0.00487726 0.0517451 0)
(-0.00477507 0.0498153 0)
(-0.00466948 0.0479272 0)
(-0.00456101 0.0460818 0)
(-0.00445018 0.0442804 0)
(-0.00433745 0.0425236 0)
(-0.00422325 0.0408123 0)
(-0.00410798 0.0391469 0)
(-0.00399204 0.0375278 0)
(-0.00387576 0.0359551 0)
(-0.00375948 0.0344289 0)
(-0.0036435 0.0329491 0)
(-0.00352809 0.0315157 0)
(-0.0034135 0.0301282 0)
(-0.00329998 0.0287864 0)
(-0.00318772 0.0274897 0)
(-0.00307691 0.0262377 0)
(-0.00296772 0.0250296 0)
(-0.00286031 0.0238648 0)
(-0.00275481 0.0227426 0)
(-0.00265133 0.0216622 0)
(-0.00254998 0.0206227 0)
(-0.00245085 0.0196233 0)
(-0.00235402 0.0186631 0)
(-0.00225954 0.0177411 0)
(-0.00216747 0.0168565 0)
(-0.00207784 0.0160081 0)
(-0.0019907 0.0151951 0)
(-0.00190606 0.0144165 0)
(-0.00182394 0.0136711 0)
(-0.00174434 0.0129581 0)
(-0.00166726 0.0122764 0)
(-0.00159269 0.0116251 0)
(-0.00152061 0.011003 0)
(-0.00145101 0.0104092 0)
(-0.00138387 0.00984282 0)
(-0.00131915 0.00930276 0)
(-0.00125682 0.00878809 0)
(-0.00119685 0.00829786 0)
(-0.00113919 0.00783114 0)
(-0.0010838 0.00738701 0)
(-0.00103064 0.00696458 0)
(-0.000979664 0.00656296 0)
(-0.000930821 0.00618129 0)
(-0.000884063 0.00581872 0)
(-0.00083934 0.00547443 0)
(-0.000796601 0.00514762 0)
(-0.000755794 0.0048375 0)
(-0.000716867 0.00454332 0)
(-0.000679769 0.00426433 0)
(-0.000644448 0.00399981 0)
(-0.000610854 0.00374905 0)
(-0.000578934 0.00351139 0)
(-0.000548641 0.00328616 0)
(-0.000519923 0.00307273 0)
(-0.000492734 0.00287046 0)
(-0.000467026 0.00267876 0)
(-0.000442754 0.00249704 0)
(-0.000419873 0.00232475 0)
(-0.00039834 0.00216133 0)
(-0.000378113 0.00200626 0)
(-0.000359153 0.00185901 0)
(-0.000341422 0.00171909 0)
(-0.000324882 0.00158602 0)
(-0.0003095 0.00145933 0)
(-0.000295241 0.00133856 0)
(-0.000282076 0.00122327 0)
(-0.000269974 0.00111302 0)
(-0.00025891 0.00100741 0)
(-0.000248856 0.000906012 0)
(-0.000239792 0.000808435 0)
(-0.000231694 0.000714285 0)
(-0.000224544 0.000623182 0)
(-0.000218326 0.00053475 0)
(-0.000213023 0.000448619 0)
(-0.000208624 0.000364425 0)
(-0.000205118 0.000281812 0)
(-0.000202496 0.000200422 0)
(-0.000200751 0.000119905 0)
(-0.00019988 3.99103e-05 0)
(-0.00697983 0.0944998 0)
(-0.00718584 0.0924756 0)
(-0.00735896 0.0903979 0)
(-0.00750057 0.0882751 0)
(-0.00761329 0.0861163 0)
(-0.00769867 0.0839293 0)
(-0.00775915 0.0817217 0)
(-0.00779615 0.0795002 0)
(-0.00781097 0.0772714 0)
(-0.00780624 0.0750413 0)
(-0.00778317 0.0728153 0)
(-0.00774271 0.0705986 0)
(-0.00768639 0.0683957 0)
(-0.00761596 0.066211 0)
(-0.00753286 0.0640482 0)
(-0.0074382 0.0619109 0)
(-0.00733296 0.0598022 0)
(-0.00721814 0.057725 0)
(-0.00709476 0.0556819 0)
(-0.00696388 0.0536752 0)
(-0.00682647 0.0517068 0)
(-0.00668345 0.0497785 0)
(-0.00653566 0.0478917 0)
(-0.00638385 0.0460477 0)
(-0.00622873 0.0442476 0)
(-0.00607094 0.0424922 0)
(-0.00591109 0.0407821 0)
(-0.00574976 0.0391179 0)
(-0.00558747 0.0375 0)
(-0.00542473 0.0359284 0)
(-0.00526197 0.0344034 0)
(-0.00509964 0.0329247 0)
(-0.0049381 0.0314924 0)
(-0.00477773 0.0301059 0)
(-0.00461883 0.0287651 0)
(-0.0044617 0.0274694 0)
(-0.00430661 0.0262182 0)
(-0.00415379 0.025011 0)
(-0.00400345 0.0238471 0)
(-0.00385578 0.0227257 0)
(-0.00371095 0.0216461 0)
(-0.0035691 0.0206074 0)
(-0.00343035 0.0196088 0)
(-0.00329481 0.0186493 0)
(-0.00316257 0.017728 0)
(-0.0030337 0.016844 0)
(-0.00290826 0.0159963 0)
(-0.0027863 0.0151839 0)
(-0.00266783 0.0144058 0)
(-0.00255289 0.013661 0)
(-0.00244147 0.0129485 0)
(-0.00233358 0.0122673 0)
(-0.00222921 0.0116164 0)
(-0.00212833 0.0109948 0)
(-0.00203092 0.0104015 0)
(-0.00193694 0.00983553 0)
(-0.00184636 0.00929587 0)
(-0.00175912 0.00878158 0)
(-0.00167517 0.00829171 0)
(-0.00159447 0.00782534 0)
(-0.00151694 0.00738154 0)
(-0.00144254 0.00695942 0)
(-0.00137119 0.0065581 0)
(-0.00130283 0.00617671 0)
(-0.00123738 0.00581441 0)
(-0.00117479 0.00547037 0)
(-0.00111497 0.00514381 0)
(-0.00105785 0.00483392 0)
(-0.00100337 0.00453995 0)
(-0.000951442 0.00426117 0)
(-0.000902005 0.00399684 0)
(-0.000854984 0.00374628 0)
(-0.000810308 0.00350879 0)
(-0.000767907 0.00328373 0)
(-0.000727713 0.00307045 0)
(-0.000689657 0.00286833 0)
(-0.000653675 0.00267677 0)
(-0.000619703 0.00249519 0)
(-0.000587677 0.00232303 0)
(-0.000557538 0.00215973 0)
(-0.000529228 0.00200477 0)
(-0.000502691 0.00185763 0)
(-0.000477873 0.00171782 0)
(-0.000454723 0.00158485 0)
(-0.000433193 0.00145825 0)
(-0.000413236 0.00133757 0)
(-0.000394809 0.00122236 0)
(-0.000377871 0.0011122 0)
(-0.000362384 0.00100666 0)
(-0.000348313 0.000905342 0)
(-0.000335625 0.000807836 0)
(-0.000324292 0.000713757 0)
(-0.000314285 0.000622721 0)
(-0.000305581 0.000534354 0)
(-0.000298159 0.000448286 0)
(-0.000292002 0.000364156 0)
(-0.000287094 0.000281603 0)
(-0.000283424 0.000200274 0)
(-0.000280982 0.000119816 0)
(-0.000279763 3.98807e-05 0)
(-0.00897137 0.0944067 0)
(-0.00923604 0.0923843 0)
(-0.00945827 0.0903085 0)
(-0.00964039 0.088188 0)
(-0.00978525 0.0860313 0)
(-0.00989505 0.0838464 0)
(-0.00997277 0.0816409 0)
(-0.0100203 0.0794216 0)
(-0.0100394 0.0771951 0)
(-0.0100333 0.0749672 0)
(-0.0100036 0.0727434 0)
(-0.00995156 0.0705289 0)
(-0.00987924 0.0683282 0)
(-0.00978878 0.0661456 0)
(-0.00968198 0.0639849 0)
(-0.00956029 0.0618497 0)
(-0.00942499 0.0597431 0)
(-0.00927739 0.057668 0)
(-0.00911881 0.0556269 0)
(-0.00895059 0.0536222 0)
(-0.00877399 0.0516557 0)
(-0.00859018 0.0497293 0)
(-0.00840023 0.0478444 0)
(-0.00820511 0.0460022 0)
(-0.00800573 0.0442039 0)
(-0.00780293 0.0424502 0)
(-0.00759748 0.0407418 0)
(-0.00739012 0.0390793 0)
(-0.00718153 0.0374629 0)
(-0.00697235 0.0358929 0)
(-0.00676317 0.0343694 0)
(-0.00655452 0.0328922 0)
(-0.0063469 0.0314612 0)
(-0.00614077 0.0300762 0)
(-0.00593654 0.0287367 0)
(-0.00573459 0.0274422 0)
(-0.00553525 0.0261923 0)
(-0.00533883 0.0249863 0)
(-0.0051456 0.0238236 0)
(-0.0049558 0.0227033 0)
(-0.00476965 0.0216247 0)
(-0.00458733 0.0205871 0)
(-0.004409 0.0195894 0)
(-0.00423479 0.0186309 0)
(-0.00406483 0.0177105 0)
(-0.00389919 0.0168274 0)
(-0.00373797 0.0159805 0)
(-0.0035812 0.0151689 0)
(-0.00342894 0.0143916 0)
(-0.0032812 0.0136475 0)
(-0.003138 0.0129357 0)
(-0.00299933 0.0122552 0)
(-0.00286518 0.011605 0)
(-0.00273552 0.010984 0)
(-0.00261032 0.0103913 0)
(-0.00248953 0.00982582 0)
(-0.0023731 0.00928669 0)
(-0.00226098 0.0087729 0)
(-0.00215308 0.00828352 0)
(-0.00204935 0.00781761 0)
(-0.00194972 0.00737425 0)
(-0.00185408 0.00695255 0)
(-0.00176238 0.00655162 0)
(-0.00167451 0.00617061 0)
(-0.0015904 0.00580867 0)
(-0.00150994 0.00546497 0)
(-0.00143306 0.00513873 0)
(-0.00135965 0.00482915 0)
(-0.00128962 0.00453547 0)
(-0.00122288 0.00425696 0)
(-0.00115934 0.0039929 0)
(-0.0010989 0.00374258 0)
(-0.00104148 0.00350533 0)
(-0.000986984 0.00328049 0)
(-0.000935323 0.00306742 0)
(-0.000886411 0.0028655 0)
(-0.000840163 0.00267413 0)
(-0.000796498 0.00249273 0)
(-0.000755336 0.00232073 0)
(-0.000716599 0.0021576 0)
(-0.000680212 0.00200279 0)
(-0.000646104 0.0018558 0)
(-0.000614206 0.00171612 0)
(-0.000584451 0.00158328 0)
(-0.000556779 0.00145681 0)
(-0.000531128 0.00133625 0)
(-0.000507444 0.00122116 0)
(-0.000485674 0.0011111 0)
(-0.000465769 0.00100567 0)
(-0.000447684 0.000904448 0)
(-0.000431376 0.000807038 0)
(-0.000416809 0.000713052 0)
(-0.000403947 0.000622106 0)
(-0.00039276 0.000533826 0)
(-0.000383222 0.000447844 0)
(-0.000375308 0.000363796 0)
(-0.000369 0.000281325 0)
(-0.000364283 0.000200076 0)
(-0.000361144 0.000119698 0)
(-0.000359577 3.98414e-05 0)
(-0.0109607 0.0942901 0)
(-0.011284 0.0922703 0)
(-0.0115553 0.090197 0)
(-0.0117778 0.088079 0)
(-0.0119548 0.085925 0)
(-0.012089 0.0837428 0)
(-0.0121839 0.0815401 0)
(-0.012242 0.0793235 0)
(-0.0122654 0.0770997 0)
(-0.0122579 0.0748746 0)
(-0.0122215 0.0726536 0)
(-0.012158 0.0704417 0)
(-0.0120697 0.0682438 0)
(-0.0119592 0.0660639 0)
(-0.0118287 0.0639059 0)
(-0.01168 0.0617733 0)
(-0.0115147 0.0596693 0)
(-0.0113343 0.0575968 0)
(-0.0111406 0.0555582 0)
(-0.0109351 0.0535559 0)
(-0.0107193 0.0515919 0)
(-0.0104948 0.0496679 0)
(-0.0102627 0.0477853 0)
(-0.0100244 0.0459454 0)
(-0.00978077 0.0441493 0)
(-0.00953299 0.0423977 0)
(-0.00928199 0.0406915 0)
(-0.00902866 0.039031 0)
(-0.00877382 0.0374166 0)
(-0.00851826 0.0358486 0)
(-0.0082627 0.0343269 0)
(-0.00800778 0.0328516 0)
(-0.00775413 0.0314224 0)
(-0.0075023 0.030039 0)
(-0.00725279 0.0287012 0)
(-0.00700605 0.0274083 0)
(-0.00676252 0.02616 0)
(-0.00652255 0.0249555 0)
(-0.00628648 0.0237941 0)
(-0.0060546 0.0226752 0)
(-0.00582717 0.021598 0)
(-0.00560443 0.0205616 0)
(-0.00538656 0.0195652 0)
(-0.00517373 0.0186078 0)
(-0.00496608 0.0176886 0)
(-0.00476372 0.0168066 0)
(-0.00456675 0.0159607 0)
(-0.00437522 0.0151501 0)
(-0.0041892 0.0143738 0)
(-0.00400871 0.0136306 0)
(-0.00383376 0.0129197 0)
(-0.00366435 0.0122401 0)
(-0.00350045 0.0115906 0)
(-0.00334204 0.0109704 0)
(-0.00318908 0.0103784 0)
(-0.00304151 0.00981368 0)
(-0.00289927 0.00927521 0)
(-0.00276228 0.00876206 0)
(-0.00263046 0.00827329 0)
(-0.00250374 0.00780795 0)
(-0.002382 0.00736514 0)
(-0.00226517 0.00694396 0)
(-0.00215313 0.00654353 0)
(-0.00204579 0.00616298 0)
(-0.00194302 0.00580149 0)
(-0.00184473 0.00545822 0)
(-0.00175079 0.00513238 0)
(-0.00166111 0.00482318 0)
(-0.00157555 0.00452987 0)
(-0.00149402 0.0042517 0)
(-0.00141639 0.00398796 0)
(-0.00134255 0.00373795 0)
(-0.0012724 0.003501 0)
(-0.00120582 0.00327643 0)
(-0.0011427 0.00306363 0)
(-0.00108295 0.00286196 0)
(-0.00102644 0.00267083 0)
(-0.000973098 0.00248965 0)
(-0.000922809 0.00231787 0)
(-0.000875483 0.00215493 0)
(-0.000831028 0.00200032 0)
(-0.000789358 0.00185351 0)
(-0.000750387 0.001714 0)
(-0.000714036 0.00158133 0)
(-0.000680227 0.00145501 0)
(-0.00064889 0.0013346 0)
(-0.000619955 0.00121965 0)
(-0.000593358 0.00110973 0)
(-0.000569039 0.00100443 0)
(-0.000546944 0.00090333 0)
(-0.000527021 0.000806042 0)
(-0.000509224 0.000712171 0)
(-0.00049351 0.000621338 0)
(-0.000479843 0.000533167 0)
(-0.000468189 0.000447291 0)
(-0.000458521 0.000363347 0)
(-0.000450815 0.000280978 0)
(-0.000445051 0.000199829 0)
(-0.000441217 0.00011955 0)
(-0.000439302 3.97922e-05 0)
(-0.0129472 0.0941501 0)
(-0.0133291 0.0921334 0)
(-0.0136496 0.0900632 0)
(-0.0139124 0.0879483 0)
(-0.0141214 0.0857975 0)
(-0.01428 0.0836186 0)
(-0.0143921 0.0814191 0)
(-0.0144607 0.0792058 0)
(-0.0144884 0.0769853 0)
(-0.0144794 0.0747635 0)
(-0.0144364 0.0725458 0)
(-0.0143614 0.0703372 0)
(-0.0142571 0.0681425 0)
(-0.0141267 0.0659658 0)
(-0.0139725 0.063811 0)
(-0.0137968 0.0616816 0)
(-0.0136015 0.0595808 0)
(-0.0133885 0.0575113 0)
(-0.0131596 0.0554758 0)
(-0.0129169 0.0534765 0)
(-0.0126621 0.0515154 0)
(-0.0123968 0.0495942 0)
(-0.0121227 0.0477144 0)
(-0.0118411 0.0458772 0)
(-0.0115534 0.0440838 0)
(-0.0112607 0.0423348 0)
(-0.0109642 0.0406311 0)
(-0.010665 0.0389731 0)
(-0.0103639 0.0373611 0)
(-0.0100621 0.0357954 0)
(-0.00976018 0.034276 0)
(-0.00945907 0.0328028 0)
(-0.00915945 0.0313758 0)
(-0.00886198 0.0299945 0)
(-0.00856724 0.0286586 0)
(-0.00827579 0.0273677 0)
(-0.00798812 0.0261211 0)
(-0.00770466 0.0249184 0)
(-0.0074258 0.0237588 0)
(-0.0071519 0.0226416 0)
(-0.00688326 0.021566 0)
(-0.00662015 0.0205311 0)
(-0.00636279 0.0195362 0)
(-0.00611139 0.0185802 0)
(-0.0058661 0.0176624 0)
(-0.00562707 0.0167816 0)
(-0.0053944 0.0159371 0)
(-0.00516817 0.0151277 0)
(-0.00494843 0.0143524 0)
(-0.00473523 0.0136104 0)
(-0.00452857 0.0129006 0)
(-0.00432845 0.0122219 0)
(-0.00413485 0.0115734 0)
(-0.00394774 0.0109541 0)
(-0.00376705 0.010363 0)
(-0.00359274 0.00979911 0)
(-0.00342472 0.00926145 0)
(-0.0032629 0.00874906 0)
(-0.00310719 0.00826101 0)
(-0.0029575 0.00779637 0)
(-0.00281371 0.00735421 0)
(-0.0026757 0.00693366 0)
(-0.00254336 0.00653382 0)
(-0.00241655 0.00615384 0)
(-0.00229516 0.00579288 0)
(-0.00217905 0.00545012 0)
(-0.0020681 0.00512476 0)
(-0.00196216 0.00481602 0)
(-0.0018611 0.00452315 0)
(-0.00176478 0.00424539 0)
(-0.00167309 0.00398205 0)
(-0.00158587 0.00373241 0)
(-0.001503 0.0034958 0)
(-0.00142435 0.00327157 0)
(-0.0013498 0.00305908 0)
(-0.00127921 0.00285771 0)
(-0.00121247 0.00266686 0)
(-0.00114946 0.00248596 0)
(-0.00109005 0.00231443 0)
(-0.00103415 0.00215174 0)
(-0.000981639 0.00199735 0)
(-0.000932417 0.00185076 0)
(-0.000886383 0.00171146 0)
(-0.000843444 0.00157898 0)
(-0.000803508 0.00145285 0)
(-0.000766491 0.00133262 0)
(-0.000732312 0.00121784 0)
(-0.000700895 0.00110808 0)
(-0.000672169 0.00100294 0)
(-0.000646069 0.00090199 0)
(-0.000622536 0.000804846 0)
(-0.000601513 0.000711115 0)
(-0.000582952 0.000620416 0)
(-0.000566807 0.000532376 0)
(-0.000553042 0.000446627 0)
(-0.000541621 0.000362808 0)
(-0.000532518 0.000280561 0)
(-0.00052571 0.000199532 0)
(-0.000521181 0.000119373 0)
(-0.000518919 3.97331e-05 0)
(-0.0149304 0.0939869 0)
(-0.0153709 0.0919738 0)
(-0.0157404 0.0899071 0)
(-0.0160435 0.0877959 0)
(-0.0162846 0.0856488 0)
(-0.0164674 0.0834737 0)
(-0.0165967 0.081278 0)
(-0.0166757 0.0790686 0)
(-0.0167077 0.0768519 0)
(-0.0166974 0.074634 0)
(-0.0166478 0.0724201 0)
(-0.0165613 0.0702154 0)
(-0.0164411 0.0680244 0)
(-0.0162906 0.0658515 0)
(-0.0161129 0.0637005 0)
(-0.0159103 0.0615748 0)
(-0.015685 0.0594775 0)
(-0.0154393 0.0574117 0)
(-0.0151754 0.0553797 0)
(-0.0148955 0.0533838 0)
(-0.0146016 0.0514261 0)
(-0.0142958 0.0495083 0)
(-0.0139797 0.0476317 0)
(-0.013655 0.0457977 0)
(-0.0133232 0.0440074 0)
(-0.0129856 0.0422615 0)
(-0.0126437 0.0405607 0)
(-0.0122986 0.0389056 0)
(-0.0119515 0.0372964 0)
(-0.0116034 0.0357334 0)
(-0.0112553 0.0342166 0)
(-0.010908 0.032746 0)
(-0.0105625 0.0313214 0)
(-0.0102195 0.0299425 0)
(-0.00987959 0.0286089 0)
(-0.00954349 0.0273202 0)
(-0.00921175 0.0260759 0)
(-0.00888487 0.0248752 0)
(-0.0085633 0.0237177 0)
(-0.00824744 0.0226024 0)
(-0.00793765 0.0215286 0)
(-0.00763423 0.0204956 0)
(-0.00733745 0.0195023 0)
(-0.00704754 0.018548 0)
(-0.00676468 0.0176318 0)
(-0.00648903 0.0167526 0)
(-0.00622072 0.0159094 0)
(-0.00595983 0.0151014 0)
(-0.00570644 0.0143276 0)
(-0.00546058 0.0135868 0)
(-0.00522226 0.0128782 0)
(-0.00499149 0.0122007 0)
(-0.00476824 0.0115534 0)
(-0.00455246 0.0109351 0)
(-0.0043441 0.0103451 0)
(-0.00414308 0.00978214 0)
(-0.00394932 0.0092454 0)
(-0.00376271 0.0087339 0)
(-0.00358316 0.0082467 0)
(-0.00341053 0.00778286 0)
(-0.00324471 0.00734147 0)
(-0.00308557 0.00692164 0)
(-0.00293295 0.0065225 0)
(-0.00278672 0.00614318 0)
(-0.00264674 0.00578284 0)
(-0.00251285 0.00544068 0)
(-0.00238489 0.00511588 0)
(-0.00226272 0.00480768 0)
(-0.00214618 0.00451531 0)
(-0.00203512 0.00423804 0)
(-0.00192937 0.00397515 0)
(-0.00182879 0.00372594 0)
(-0.00173323 0.00348975 0)
(-0.00164254 0.00326591 0)
(-0.00155656 0.00305378 0)
(-0.00147516 0.00285276 0)
(-0.0013982 0.00266224 0)
(-0.00132553 0.00248165 0)
(-0.00125703 0.00231042 0)
(-0.00119256 0.00214801 0)
(-0.00113201 0.00199389 0)
(-0.00107525 0.00184755 0)
(-0.00102216 0.0017085 0)
(-0.000972644 0.00157625 0)
(-0.000926591 0.00145034 0)
(-0.000883904 0.00133031 0)
(-0.000844489 0.00121573 0)
(-0.000808259 0.00110616 0)
(-0.000775133 0.0010012 0)
(-0.000745035 0.000900428 0)
(-0.000717897 0.000803452 0)
(-0.000693654 0.000709883 0)
(-0.000672249 0.000619341 0)
(-0.000653632 0.000531454 0)
(-0.000637757 0.000445854 0)
(-0.000624588 0.000362179 0)
(-0.00061409 0.000280075 0)
(-0.000606239 0.000199187 0)
(-0.000601016 0.000119166 0)
(-0.000598408 3.96643e-05 0)
(-0.01691 0.0938005 0)
(-0.0174089 0.0917915 0)
(-0.0178274 0.0897289 0)
(-0.0181707 0.0876219 0)
(-0.0184437 0.085479 0)
(-0.0186508 0.0833082 0)
(-0.0187972 0.0811169 0)
(-0.0188867 0.0789118 0)
(-0.018923 0.0766996 0)
(-0.0189113 0.074486 0)
(-0.018855 0.0722765 0)
(-0.0187571 0.0700761 0)
(-0.018621 0.0678895 0)
(-0.0184506 0.065721 0)
(-0.0182493 0.0635742 0)
(-0.0180198 0.0614527 0)
(-0.0177646 0.0593596 0)
(-0.0174863 0.0572979 0)
(-0.0171875 0.0552699 0)
(-0.0168704 0.053278 0)
(-0.0165376 0.0513242 0)
(-0.0161912 0.0494101 0)
(-0.0158332 0.0475373 0)
(-0.0154655 0.045707 0)
(-0.0150897 0.0439201 0)
(-0.0147074 0.0421777 0)
(-0.0143201 0.0404803 0)
(-0.0139293 0.0388284 0)
(-0.0135361 0.0372224 0)
(-0.0131419 0.0356625 0)
(-0.0127476 0.0341488 0)
(-0.0123543 0.0326811 0)
(-0.011963 0.0312593 0)
(-0.0115744 0.0298831 0)
(-0.0111895 0.0285522 0)
(-0.0108088 0.0272661 0)
(-0.0104331 0.0260242 0)
(-0.0100629 0.0248259 0)
(-0.00969868 0.0236706 0)
(-0.00934094 0.0225576 0)
(-0.00899008 0.0214859 0)
(-0.00864643 0.0204549 0)
(-0.0083103 0.0194637 0)
(-0.00798195 0.0185113 0)
(-0.00766159 0.0175968 0)
(-0.0073494 0.0167193 0)
(-0.00704551 0.0158779 0)
(-0.00675003 0.0150715 0)
(-0.00646304 0.0142992 0)
(-0.00618458 0.0135599 0)
(-0.00591467 0.0128527 0)
(-0.0056533 0.0121766 0)
(-0.00540044 0.0115305 0)
(-0.00515606 0.0109135 0)
(-0.00492007 0.0103246 0)
(-0.0046924 0.00976274 0)
(-0.00447295 0.00922707 0)
(-0.0042616 0.00871659 0)
(-0.00405824 0.00823035 0)
(-0.00386273 0.00776743 0)
(-0.00367492 0.00732692 0)
(-0.00349467 0.00690792 0)
(-0.00332182 0.00650957 0)
(-0.00315621 0.006131 0)
(-0.00299766 0.00577138 0)
(-0.00284602 0.00542989 0)
(-0.0027011 0.00510574 0)
(-0.00256273 0.00479815 0)
(-0.00243074 0.00450636 0)
(-0.00230495 0.00422964 0)
(-0.00218518 0.00396727 0)
(-0.00207127 0.00371856 0)
(-0.00196304 0.00348283 0)
(-0.00186032 0.00325943 0)
(-0.00176294 0.00304773 0)
(-0.00167075 0.00284711 0)
(-0.00158358 0.00265697 0)
(-0.00150128 0.00247673 0)
(-0.0014237 0.00230584 0)
(-0.00135068 0.00214375 0)
(-0.0012821 0.00198994 0)
(-0.00121781 0.00184389 0)
(-0.00115769 0.00170511 0)
(-0.0011016 0.00157312 0)
(-0.00104945 0.00144746 0)
(-0.0010011 0.00132767 0)
(-0.000956457 0.00121332 0)
(-0.000915424 0.00110397 0)
(-0.000877906 0.000999215 0)
(-0.000843817 0.000898643 0)
(-0.000813081 0.000801859 0)
(-0.000785623 0.000708476 0)
(-0.000761381 0.000618114 0)
(-0.000740295 0.0005304 0)
(-0.000722316 0.00044497 0)
(-0.0007074 0.000361462 0)
(-0.000695511 0.00027952 0)
(-0.000686619 0.000198792 0)
(-0.000680703 0.00011893 0)
(-0.000677749 3.95857e-05 0)
(-0.0188854 0.0935911 0)
(-0.0194426 0.0915865 0)
(-0.01991 0.0895285 0)
(-0.0202934 0.0874262 0)
(-0.0205983 0.0852881 0)
(-0.0208296 0.0831222 0)
(-0.0209931 0.0809357 0)
(-0.021093 0.0787356 0)
(-0.0211335 0.0765283 0)
(-0.0211205 0.0743197 0)
(-0.0210576 0.0721151 0)
(-0.0209482 0.0699196 0)
(-0.0207963 0.0677379 0)
(-0.020606 0.0655742 0)
(-0.0203812 0.0634322 0)
(-0.0201248 0.0613155 0)
(-0.0198398 0.0592271 0)
(-0.0195291 0.0571699 0)
(-0.0191953 0.0551465 0)
(-0.0188412 0.053159 0)
(-0.0184695 0.0512096 0)
(-0.0180827 0.0492998 0)
(-0.0176828 0.0474311 0)
(-0.0172721 0.0456049 0)
(-0.0168524 0.0438221 0)
(-0.0164255 0.0420835 0)
(-0.015993 0.0403899 0)
(-0.0155565 0.0387417 0)
(-0.0151174 0.0371393 0)
(-0.0146771 0.0355829 0)
(-0.0142367 0.0340725 0)
(-0.0137975 0.0326081 0)
(-0.0133605 0.0311895 0)
(-0.0129265 0.0298164 0)
(-0.0124966 0.0284884 0)
(-0.0120715 0.0272052 0)
(-0.0116519 0.0259661 0)
(-0.0112384 0.0247705 0)
(-0.0108317 0.0236178 0)
(-0.0104321 0.0225072 0)
(-0.0100403 0.0214379 0)
(-0.00965649 0.0204092 0)
(-0.0092811 0.0194202 0)
(-0.00891439 0.0184699 0)
(-0.00855661 0.0175575 0)
(-0.00820794 0.016682 0)
(-0.00786856 0.0158424 0)
(-0.00753856 0.0150378 0)
(-0.00721805 0.0142672 0)
(-0.00690705 0.0135296 0)
(-0.00660561 0.012824 0)
(-0.00631371 0.0121494 0)
(-0.00603132 0.0115047 0)
(-0.00575838 0.0108891 0)
(-0.00549483 0.0103015 0)
(-0.00524056 0.00974094 0)
(-0.00499547 0.00920647 0)
(-0.00475944 0.00869712 0)
(-0.00453232 0.00821197 0)
(-0.00431397 0.00775008 0)
(-0.00410422 0.00731056 0)
(-0.00390292 0.0068925 0)
(-0.00370987 0.00649503 0)
(-0.00352491 0.00611731 0)
(-0.00334785 0.00575849 0)
(-0.00317849 0.00541777 0)
(-0.00301664 0.00509434 0)
(-0.0028621 0.00478743 0)
(-0.00271469 0.0044963 0)
(-0.00257421 0.00422019 0)
(-0.00244045 0.00395841 0)
(-0.00231323 0.00371025 0)
(-0.00219236 0.00347505 0)
(-0.00207764 0.00325215 0)
(-0.00196889 0.00304092 0)
(-0.00186593 0.00284075 0)
(-0.00176857 0.00265103 0)
(-0.00167666 0.0024712 0)
(-0.00159001 0.00230069 0)
(-0.00150847 0.00213896 0)
(-0.00143187 0.00198549 0)
(-0.00136007 0.00183977 0)
(-0.00129293 0.0017013 0)
(-0.00123029 0.00156961 0)
(-0.00117204 0.00144423 0)
(-0.00111805 0.00132471 0)
(-0.00106819 0.00121061 0)
(-0.00102236 0.00110151 0)
(-0.000980462 0.000996984 0)
(-0.000942391 0.000896637 0)
(-0.000908064 0.000800069 0)
(-0.000877399 0.000706894 0)
(-0.000850324 0.000616734 0)
(-0.000826776 0.000529216 0)
(-0.000806696 0.000443976 0)
(-0.000790038 0.000360655 0)
(-0.00077676 0.000278896 0)
(-0.000766829 0.000198348 0)
(-0.000760223 0.000118664 0)
(-0.000756923 3.94973e-05 0)
(-0.0208562 0.0933585 0)
(-0.0214715 0.0913589 0)
(-0.0219877 0.089306 0)
(-0.022411 0.087209 0)
(-0.0227478 0.0850762 0)
(-0.0230032 0.0829156 0)
(-0.0231837 0.0807346 0)
(-0.0232941 0.07854 0)
(-0.0233389 0.0763382 0)
(-0.0233245 0.074135 0)
(-0.0232551 0.0719359 0)
(-0.0231342 0.0697459 0)
(-0.0229664 0.0675696 0)
(-0.0227563 0.0654112 0)
(-0.022508 0.0632746 0)
(-0.0222249 0.0611631 0)
(-0.0219102 0.0590799 0)
(-0.0215669 0.0570279 0)
(-0.0211983 0.0550095 0)
(-0.0208073 0.053027 0)
(-0.0203969 0.0510823 0)
(-0.0199697 0.0491773 0)
(-0.0195281 0.0473133 0)
(-0.0190745 0.0454916 0)
(-0.018611 0.0437132 0)
(-0.0181395 0.0419789 0)
(-0.0176619 0.0402895 0)
(-0.0171799 0.0386455 0)
(-0.016695 0.037047 0)
(-0.0162087 0.0354945 0)
(-0.0157224 0.0339878 0)
(-0.0152373 0.0325271 0)
(-0.0147547 0.031112 0)
(-0.0142755 0.0297423 0)
(-0.0138007 0.0284177 0)
(-0.0133312 0.0271376 0)
(-0.0128678 0.0259015 0)
(-0.0124112 0.0247089 0)
(-0.011962 0.0235591 0)
(-0.0115208 0.0224513 0)
(-0.011088 0.0213847 0)
(-0.0106642 0.0203585 0)
(-0.0102496 0.0193719 0)
(-0.00984463 0.018424 0)
(-0.00944951 0.0175139 0)
(-0.00906447 0.0166406 0)
(-0.00868966 0.0158031 0)
(-0.00832523 0.0150005 0)
(-0.00797127 0.0142318 0)
(-0.00762783 0.013496 0)
(-0.00729493 0.0127921 0)
(-0.00697256 0.0121192 0)
(-0.0066607 0.0114761 0)
(-0.00635928 0.010862 0)
(-0.00606823 0.0102759 0)
(-0.00578743 0.00971674 0)
(-0.00551676 0.00918359 0)
(-0.0052561 0.00867551 0)
(-0.00500528 0.00819157 0)
(-0.00476414 0.00773083 0)
(-0.00453251 0.00729239 0)
(-0.0043102 0.00687537 0)
(-0.00409701 0.00647889 0)
(-0.00389275 0.00610211 0)
(-0.0036972 0.00574418 0)
(-0.00351017 0.00540431 0)
(-0.00333143 0.00508168 0)
(-0.00316077 0.00477554 0)
(-0.00299798 0.00448512 0)
(-0.00284283 0.00420971 0)
(-0.00269512 0.00394857 0)
(-0.00255463 0.00370103 0)
(-0.00242114 0.00346642 0)
(-0.00229445 0.00324407 0)
(-0.00217435 0.00303337 0)
(-0.00206064 0.00283369 0)
(-0.00195313 0.00264445 0)
(-0.00185162 0.00246506 0)
(-0.00175593 0.00229497 0)
(-0.00166588 0.00213365 0)
(-0.00158129 0.00198056 0)
(-0.001502 0.0018352 0)
(-0.00142785 0.00169707 0)
(-0.00135868 0.00156571 0)
(-0.00129435 0.00144064 0)
(-0.00123472 0.00132142 0)
(-0.00117966 0.0012076 0)
(-0.00112905 0.00109877 0)
(-0.00108278 0.000994507 0)
(-0.00104073 0.000894409 0)
(-0.00100282 0.000798081 0)
(-0.000968958 0.000705138 0)
(-0.000939058 0.000615202 0)
(-0.000913052 0.000527902 0)
(-0.000890878 0.000442873 0)
(-0.000872481 0.000359759 0)
(-0.000857817 0.000278203 0)
(-0.00084685 0.000197856 0)
(-0.000839554 0.000118369 0)
(-0.000835911 3.93992e-05 0)