/*--------------------------------*- C++ -*----------------------------------*\
| =========                 |                                                 |
| \\      /  F ield         | OpenFOAM: The Open Source CFD Toolbox           |
|  \\    /   O peration     | Version:  2406                                  |
|   \\  /    A nd           | Website:  www.openfoam.com                      |
|    \\/     M anipulation  |                                                 |
\*---------------------------------------------------------------------------*/
FoamFile
{
    version     2.0;
    format      ascii;
    arch        "LSB;label=32;scalar=64";
    class       volScalarField;
    location    "85";
    object      gradTx;
}
// * * * * * * * * * * * * * * * * * * * * * * * * * * * * * * * * * * * * * //

dimensions      [0 -1 0 1 0 0 0];

internalField   nonuniform List<scalar> 
20000
(
-3.62344
-3.73045
-3.82012
-3.89374
-3.95188
-3.99605
-4.02838
-4.0475
-4.05436
-4.05194
-4.04044
-4.01962
-3.99023
-3.95347
-3.91026
-3.86117
-3.80662
-3.74706
-3.68302
-3.61507
-3.54372
-3.46946
-3.39273
-3.31392
-3.2334
-3.15149
-3.06851
-2.98477
-2.90052
-2.81604
-2.73155
-2.64728
-2.56343
-2.48018
-2.39769
-2.31612
-2.23561
-2.15628
-2.07824
-2.00158
-1.9264
-1.85276
-1.78073
-1.71038
-1.64173
-1.57483
-1.50971
-1.4464
-1.3849
-1.32523
-1.2674
-1.21139
-1.15721
-1.10484
-1.05427
-1.00549
-0.958465
-0.913178
-0.869601
-0.827707
-0.787464
-0.74884
-0.711801
-0.676314
-0.64234
-0.609846
-0.578792
-0.549143
-0.520859
-0.493905
-0.468242
-0.443832
-0.420641
-0.39863
-0.377764
-0.358009
-0.339331
-0.321695
-0.30507
-0.289425
-0.274729
-0.260953
-0.248069
-0.236052
-0.224875
-0.214516
-0.20495
-0.196157
-0.188118
-0.180813
-0.174227
-0.168344
-0.163149
-0.158631
-0.154778
-0.151582
-0.149034
-0.147129
-0.145861
-0.145228
-10.8694
-11.1907
-11.4595
-11.6797
-11.8554
-11.9881
-12.0831
-12.1406
-12.1627
-12.1555
-12.1202
-12.0574
-11.9695
-11.8595
-11.73
-11.5827
-11.4189
-11.2402
-11.0481
-10.8443
-10.6303
-10.4075
-10.1774
-9.94096
-9.6994
-9.4537
-9.20479
-8.95357
-8.70086
-8.44742
-8.19399
-7.94119
-7.68965
-7.43991
-7.19248
-6.9478
-6.70628
-6.46831
-6.2342
-6.00425
-5.77872
-5.55782
-5.34177
-5.13071
-4.92478
-4.72411
-4.52877
-4.33884
-4.15437
-3.97538
-3.80188
-3.63387
-3.47134
-3.31425
-3.16256
-3.01622
-2.87516
-2.73931
-2.60859
-2.48292
-2.3622
-2.24634
-2.13523
-2.02877
-1.92686
-1.82939
-1.73623
-1.64729
-1.56245
-1.48159
-1.40461
-1.33139
-1.26182
-1.19579
-1.1332
-1.07394
-1.01791
-0.965006
-0.915135
-0.868203
-0.824118
-0.782794
-0.744147
-0.708098
-0.674571
-0.643494
-0.614799
-0.588424
-0.564307
-0.542396
-0.522639
-0.504989
-0.489406
-0.475853
-0.464296
-0.454708
-0.447066
-0.44135
-0.437548
-0.435648
-18.112
-18.6472
-19.0962
-19.4632
-19.756
-19.9774
-20.1345
-20.2304
-20.2685
-20.2564
-20.1969
-20.092
-19.9456
-19.7627
-19.547
-19.3014
-19.0284
-18.7305
-18.4104
-18.0708
-17.7142
-17.343
-16.9595
-16.5656
-16.163
-15.7536
-15.3388
-14.9202
-14.499
-14.0767
-13.6544
-13.2331
-12.814
-12.3978
-11.9855
-11.5778
-11.1753
-10.7787
-10.3886
-10.0054
-9.62961
-9.26152
-8.90148
-8.54977
-8.20662
-7.87222
-7.54671
-7.23022
-6.92281
-6.62454
-6.33542
-6.05546
-5.78462
-5.52285
-5.27007
-5.02621
-4.79114
-4.56476
-4.34693
-4.13751
-3.93635
-3.74328
-3.55813
-3.38073
-3.21091
-3.04848
-2.89325
-2.74504
-2.60365
-2.46891
-2.34063
-2.21861
-2.10268
-1.99266
-1.88836
-1.78961
-1.69623
-1.60808
-1.52497
-1.44677
-1.3733
-1.30444
-1.24004
-1.17997
-1.1241
-1.07231
-1.0245
-0.980545
-0.940358
-0.903844
-0.870921
-0.84151
-0.815543
-0.792958
-0.773699
-0.757722
-0.744987
-0.735463
-0.729126
-0.725962
-25.3507
-26.0989
-26.7277
-27.242
-27.6514
-27.9615
-28.1811
-28.3155
-28.3694
-28.3522
-28.2684
-28.1214
-27.9169
-27.6611
-27.3593
-27.0155
-26.6333
-26.2162
-25.7681
-25.2927
-24.7937
-24.2742
-23.7375
-23.1861
-22.6227
-22.0496
-21.469
-20.8831
-20.2937
-19.7026
-19.1114
-18.5218
-17.9351
-17.3527
-16.7755
-16.2049
-15.6416
-15.0865
-14.5405
-14.0042
-13.4781
-12.9629
-12.459
-11.9667
-11.4864
-11.0184
-10.5628
-10.1198
-9.68954
-9.27206
-8.8674
-8.47555
-8.09647
-7.73008
-7.37628
-7.03495
-6.70594
-6.38909
-6.08421
-5.79109
-5.50953
-5.23929
-4.98015
-4.73186
-4.49416
-4.26681
-4.04955
-3.8421
-3.64422
-3.45563
-3.27607
-3.10529
-2.94303
-2.78903
-2.64305
-2.50483
-2.37414
-2.25075
-2.13444
-2.02497
-1.92215
-1.82577
-1.73563
-1.65155
-1.57335
-1.50087
-1.43394
-1.37242
-1.31618
-1.26507
-1.21899
-1.17782
-1.14148
-1.10987
-1.08291
-1.06055
-1.04272
-1.02939
-1.02052
-1.0161
-32.5839
-33.5452
-34.3524
-35.0138
-35.5399
-35.9387
-36.221
-36.3937
-36.4632
-36.4409
-36.3329
-36.144
-35.8813
-35.5527
-35.1648
-34.7229
-34.2315
-33.6954
-33.1194
-32.5085
-31.8671
-31.1995
-30.5096
-29.8009
-29.0767
-28.3402
-27.594
-26.8408
-26.0833
-25.3235
-24.5638
-23.806
-23.0519
-22.3032
-21.5615
-20.828
-20.104
-19.3906
-18.6888
-17.9994
-17.3233
-16.6611
-16.0134
-15.3807
-14.7634
-14.1618
-13.5763
-13.0069
-12.4539
-11.9173
-11.3972
-10.8936
-10.4063
-9.9354
-9.48067
-9.04196
-8.61909
-8.21184
-7.81998
-7.44324
-7.08135
-6.73402
-6.40094
-6.08182
-5.77631
-5.4841
-5.20485
-4.93822
-4.68388
-4.44149
-4.21071
-3.99121
-3.78265
-3.58472
-3.39708
-3.21944
-3.05147
-2.89287
-2.74337
-2.60268
-2.47052
-2.34664
-2.23079
-2.12272
-2.02222
-1.92905
-1.84303
-1.76396
-1.69167
-1.62598
-1.56676
-1.51385
-1.46713
-1.4265
-1.39186
-1.36311
-1.3402
-1.32307
-1.31167
-1.30598
-39.809
-40.9834
-41.9688
-42.777
-43.4198
-43.9072
-44.252
-44.4629
-44.5479
-44.5205
-44.3884
-44.1576
-43.8369
-43.4357
-42.9618
-42.4217
-41.8212
-41.1662
-40.4625
-39.7161
-38.9326
-38.117
-37.2742
-36.4084
-35.5237
-34.6237
-33.7121
-32.792
-31.8664
-30.9382
-30.01
-29.0842
-28.1629
-27.2483
-26.3421
-25.4459
-24.5614
-23.6898
-22.8324
-21.9902
-21.1642
-20.3552
-19.5639
-18.7909
-18.0367
-17.3018
-16.5864
-15.8908
-15.2151
-14.5596
-13.9242
-13.3089
-12.7136
-12.1383
-11.5827
-11.0467
-10.5301
-10.0326
-9.55382
-9.09355
-8.65142
-8.22708
-7.82016
-7.43027
-7.05703
-6.70003
-6.35886
-6.03312
-5.72239
-5.42625
-5.1443
-4.87614
-4.62134
-4.37952
-4.15028
-3.93325
-3.72803
-3.53428
-3.35163
-3.17974
-3.01829
-2.86694
-2.7254
-2.59337
-2.47058
-2.35676
-2.25167
-2.15507
-2.06675
-1.9865
-1.91414
-1.8495
-1.79242
-1.74279
-1.70046
-1.66534
-1.63735
-1.61642
-1.6025
-1.59554
-47.024
-48.4112
-49.5751
-50.5297
-51.2889
-51.8647
-52.272
-52.521
-52.6216
-52.5892
-52.4329
-52.1604
-51.7818
-51.3079
-50.7481
-50.11
-49.4006
-48.6268
-47.7957
-46.914
-45.9885
-45.0251
-44.0295
-43.0069
-41.9618
-40.8988
-39.8219
-38.7351
-37.6417
-36.5453
-35.4489
-34.3553
-33.267
-32.1866
-31.1161
-30.0576
-29.0128
-27.9833
-26.9705
-25.9756
-24.9999
-24.0443
-23.1096
-22.1965
-21.3056
-20.4375
-19.5924
-18.7707
-17.9727
-17.1983
-16.4477
-15.7209
-15.0178
-14.3381
-13.6819
-13.0488
-12.4385
-11.8508
-11.2853
-10.7416
-10.2194
-9.71811
-9.23744
-8.7769
-8.33601
-7.91431
-7.51131
-7.12653
-6.75948
-6.40968
-6.07663
-5.75986
-5.45889
-5.17324
-4.90246
-4.64609
-4.40368
-4.17482
-3.95906
-3.75602
-3.56531
-3.38653
-3.21934
-3.06338
-2.91833
-2.78389
-2.65975
-2.54564
-2.44131
-2.34652
-2.26104
-2.18469
-2.11727
-2.05864
-2.00864
-1.96716
-1.9341
-1.90937
-1.89292
-1.88471
-54.2272
-55.827
-57.1691
-58.2699
-59.1455
-59.8095
-60.279
-60.5662
-60.6823
-60.6449
-60.4646
-60.1503
-59.7139
-59.1675
-58.5219
-57.786
-56.9678
-56.0755
-55.117
-54.1003
-53.033
-51.9222
-50.7741
-49.5948
-48.3896
-47.1638
-45.9219
-44.6686
-43.4078
-42.1434
-40.879
-39.6179
-38.3629
-37.117
-35.8826
-34.6619
-33.457
-32.2698
-31.1018
-29.9546
-28.8295
-27.7274
-26.6495
-25.5966
-24.5693
-23.5681
-22.5936
-21.6461
-20.7257
-19.8328
-18.9672
-18.129
-17.3182
-16.5345
-15.7777
-15.0476
-14.3439
-13.6661
-13.014
-12.387
-11.7848
-11.2067
-10.6524
-10.1214
-9.61293
-9.12663
-8.6619
-8.21818
-7.79491
-7.39152
-7.00746
-6.64216
-6.29509
-5.96569
-5.65343
-5.35778
-5.07825
-4.81432
-4.56552
-4.33138
-4.11144
-3.90528
-3.71248
-3.53263
-3.36537
-3.21033
-3.06717
-2.93559
-2.81528
-2.70596
-2.60739
-2.51934
-2.4416
-2.37398
-2.31633
-2.2685
-2.23037
-2.20186
-2.18289
-2.17341
-61.4171
-63.2289
-64.749
-65.9958
-66.9874
-67.7395
-68.2712
-68.5964
-68.728
-68.6856
-68.4813
-68.1255
-67.6312
-67.0124
-66.2812
-65.4476
-64.5209
-63.5102
-62.4247
-61.2733
-60.0645
-58.8064
-57.5061
-56.1704
-54.8055
-53.4171
-52.0106
-50.591
-49.1631
-47.7311
-46.299
-44.8707
-43.4494
-42.0382
-40.6401
-39.2576
-37.893
-36.5483
-35.2255
-33.9262
-32.6519
-31.4037
-30.1829
-28.9904
-27.8268
-26.6929
-25.5892
-24.5161
-23.4737
-22.4623
-21.482
-20.5327
-19.6144
-18.7267
-17.8696
-17.0427
-16.2457
-15.4781
-14.7395
-14.0294
-13.3473
-12.6926
-12.0648
-11.4633
-10.8875
-10.3367
-9.81036
-9.30781
-8.82841
-8.37154
-7.93656
-7.52283
-7.12974
-6.75666
-6.403
-6.06816
-5.75156
-5.45264
-5.17085
-4.90566
-4.65657
-4.42307
-4.20471
-4.00102
-3.81157
-3.63598
-3.47384
-3.32481
-3.18854
-3.06474
-2.9531
-2.85338
-2.76533
-2.68874
-2.62344
-2.56927
-2.52609
-2.49379
-2.47231
-2.46158
-68.5917
-70.6153
-72.313
-73.7053
-74.8128
-75.6528
-76.2466
-76.6097
-76.7568
-76.7095
-76.4812
-76.0838
-75.5319
-74.8409
-74.0242
-73.0931
-72.0581
-70.9293
-69.717
-68.4311
-67.0812
-65.6761
-64.2239
-62.7322
-61.2078
-59.6572
-58.0864
-56.501
-54.9063
-53.307
-51.7077
-50.1124
-48.5251
-46.9491
-45.3877
-43.8436
-42.3196
-40.8179
-39.3405
-37.8894
-36.4662
-35.0723
-33.7089
-32.377
-31.0775
-29.8112
-28.5785
-27.38
-26.2159
-25.0864
-23.9915
-22.9313
-21.9057
-20.9144
-19.9572
-19.0337
-18.1435
-17.2862
-16.4613
-15.6683
-14.9065
-14.1754
-13.4742
-12.8024
-12.1593
-11.5442
-10.9564
-10.3951
-9.85974
-9.3495
-8.8637
-8.40164
-7.96262
-7.54596
-7.15099
-6.77703
-6.42345
-6.08961
-5.7749
-5.47874
-5.20054
-4.93977
-4.69589
-4.46841
-4.25684
-4.06073
-3.87965
-3.71321
-3.56103
-3.42276
-3.29808
-3.18671
-3.08837
-3.00284
-2.92991
-2.86941
-2.82118
-2.78512
-2.76112
-2.74914
-75.7495
-77.9842
-79.859
-81.3967
-82.6197
-83.5474
-84.2031
-84.6041
-84.7667
-84.7144
-84.4622
-84.0233
-83.4139
-82.6508
-81.7489
-80.7206
-79.5775
-78.3309
-76.9921
-75.5721
-74.0813
-72.5296
-70.9259
-69.2785
-67.5951
-65.8827
-64.148
-62.3971
-60.6359
-58.8697
-57.1035
-55.3418
-53.5888
-51.8484
-50.124
-48.4188
-46.7358
-45.0773
-43.4458
-41.8433
-40.2716
-38.7322
-37.2265
-35.7556
-34.3206
-32.9221
-31.5608
-30.2372
-28.9516
-27.7042
-26.4951
-25.3243
-24.1916
-23.0969
-22.0397
-21.0199
-20.0368
-19.0901
-18.1791
-17.3033
-16.462
-15.6546
-14.8803
-14.1384
-13.4282
-12.7489
-12.0997
-11.4799
-10.8886
-10.3251
-9.78865
-9.27837
-8.79355
-8.33341
-7.89721
-7.48423
-7.09375
-6.72508
-6.37753
-6.05046
-5.74324
-5.45525
-5.18593
-4.9347
-4.70105
-4.48448
-4.28451
-4.1007
-3.93263
-3.77993
-3.64224
-3.51925
-3.41065
-3.3162
-3.23566
-3.16884
-3.11558
-3.07575
-3.04925
-3.03602
-82.8886
-85.3339
-87.3854
-89.068
-90.4062
-91.4214
-92.1389
-92.5776
-92.7557
-92.6984
-92.4223
-91.9421
-91.2754
-90.4404
-89.4534
-88.3282
-87.0773
-85.7132
-84.2482
-82.6944
-81.0632
-79.3652
-77.6104
-75.8078
-73.9657
-72.0919
-70.1936
-68.2778
-66.3506
-64.418
-62.4853
-60.5575
-58.6393
-56.7349
-54.848
-52.9821
-51.1404
-49.3257
-47.5404
-45.7869
-44.067
-42.3825
-40.7349
-39.1254
-37.5551
-36.0248
-34.5352
-33.0869
-31.6801
-30.3152
-28.9922
-27.711
-26.4716
-25.2736
-24.1169
-23.0009
-21.9252
-20.8893
-19.8924
-18.9341
-18.0135
-17.13
-16.2827
-15.4709
-14.6938
-13.9504
-13.2401
-12.5618
-11.9148
-11.2982
-10.7112
-10.1528
-9.6223
-9.1188
-8.64149
-8.18959
-7.76231
-7.35889
-6.97859
-6.62069
-6.28451
-5.96939
-5.67468
-5.39978
-5.14411
-4.90712
-4.6883
-4.48717
-4.30327
-4.13618
-3.98551
-3.85092
-3.73209
-3.62874
-3.54061
-3.46749
-3.40921
-3.36563
-3.33663
-3.32215
-90.0072
-92.6625
-94.8902
-96.7173
-98.1704
-99.2729
-100.052
-100.528
-100.722
-100.659
-100.36
-99.8383
-99.1143
-98.2076
-97.1358
-95.9139
-94.5556
-93.0743
-91.4835
-89.7963
-88.025
-86.1813
-84.2758
-82.3183
-80.318
-78.2833
-76.222
-74.1416
-72.0489
-69.9503
-67.8516
-65.7583
-63.6754
-61.6074
-59.5584
-57.5323
-55.5324
-53.5618
-51.6233
-49.7191
-47.8516
-46.0224
-44.2333
-42.4856
-40.7804
-39.1187
-37.5012
-35.9285
-34.4009
-32.9187
-31.482
-30.0909
-28.745
-27.4442
-26.1881
-24.9763
-23.8082
-22.6833
-21.6008
-20.5602
-19.5605
-18.6011
-17.6811
-16.7996
-15.9557
-15.1485
-14.3772
-13.6407
-12.9381
-12.2686
-11.6311
-11.0248
-10.4487
-9.90193
-9.38364
-8.89293
-8.42895
-7.99088
-7.57792
-7.18929
-6.82424
-6.48205
-6.16203
-5.86352
-5.58589
-5.32855
-5.09094
-4.87254
-4.67284
-4.4914
-4.32779
-4.18165
-4.05261
-3.94038
-3.84468
-3.76529
-3.702
-3.65468
-3.62319
-3.60747
-97.1036
-99.9682
-102.372
-104.343
-105.91
-107.1
-107.94
-108.454
-108.663
-108.596
-108.272
-107.71
-106.929
-105.951
-104.794
-103.476
-102.011
-100.412
-98.6963
-96.876
-94.9651
-92.9761
-90.9203
-88.8085
-86.6505
-84.4553
-82.2316
-79.9871
-77.7295
-75.4654
-73.2012
-70.9429
-68.6957
-66.4646
-64.2542
-62.0683
-59.9107
-57.7848
-55.6934
-53.6391
-51.6243
-49.6509
-47.7208
-45.8353
-43.9956
-42.2029
-40.4579
-38.7611
-37.1131
-35.5141
-33.9642
-32.4633
-31.0113
-29.608
-28.2528
-26.9455
-25.6853
-24.4717
-23.3039
-22.1812
-21.1027
-20.0677
-19.0751
-18.1241
-17.2137
-16.3429
-15.5107
-14.7161
-13.9582
-13.2358
-12.5481
-11.894
-11.2725
-10.6826
-10.1235
-9.59407
-9.09351
-8.6209
-8.17538
-7.75611
-7.36228
-6.99311
-6.64786
-6.32581
-6.0263
-5.74867
-5.49233
-5.2567
-5.04126
-4.84551
-4.66901
-4.51134
-4.37213
-4.25105
-4.14781
-4.06215
-3.99388
-3.94282
-3.90885
-3.89189
-104.176
-107.249
-109.828
-111.942
-113.624
-114.9
-115.802
-116.353
-116.577
-116.505
-116.158
-115.555
-114.717
-113.667
-112.427
-111.013
-109.44
-107.726
-105.885
-103.932
-101.882
-99.7479
-97.5425
-95.2769
-92.9616
-90.6066
-88.2208
-85.8129
-83.3908
-80.9618
-78.5328
-76.1099
-73.6991
-71.3055
-68.934
-66.589
-64.2743
-61.9935
-59.7497
-57.5459
-55.3843
-53.2672
-51.1965
-49.1736
-47.2
-45.2767
-43.4046
-41.5843
-39.8162
-38.1007
-36.4379
-34.8277
-33.27
-31.7644
-30.3106
-28.908
-27.5561
-26.254
-25.0012
-23.7967
-22.6397
-21.5293
-20.4644
-19.4441
-18.4674
-17.5332
-16.6404
-15.788
-14.9748
-14.1999
-13.462
-12.7603
-12.0935
-11.4607
-10.8608
-10.2928
-9.75583
-9.2488
-8.77083
-8.32102
-7.8985
-7.50245
-7.13205
-6.78655
-6.46522
-6.16737
-5.89236
-5.63957
-5.40843
-5.19843
-5.00907
-4.83992
-4.69057
-4.56067
-4.44991
-4.35802
-4.28477
-4.23
-4.19355
-4.17535
-111.223
-114.504
-117.257
-119.515
-121.31
-122.673
-123.635
-124.224
-124.463
-124.386
-124.015
-123.371
-122.477
-121.356
-120.032
-118.522
-116.843
-115.013
-113.047
-110.962
-108.773
-106.495
-104.141
-101.722
-99.2498
-96.7355
-94.1884
-91.6176
-89.0316
-86.4383
-83.8449
-81.2582
-78.6843
-76.1288
-73.5969
-71.0932
-68.622
-66.1869
-63.7914
-61.4384
-59.1306
-56.8704
-54.6595
-52.4999
-50.3927
-48.3394
-46.3406
-44.3971
-42.5095
-40.678
-38.9027
-37.1836
-35.5205
-33.913
-32.3609
-30.8634
-29.42
-28.0299
-26.6924
-25.4064
-24.1711
-22.9856
-21.8487
-20.7594
-19.7166
-18.7192
-17.766
-16.8559
-15.9877
-15.1604
-14.3726
-13.6234
-12.9115
-12.2359
-11.5955
-10.9891
-10.4157
-9.87441
-9.36411
-8.88388
-8.43278
-8.00993
-7.61448
-7.24561
-6.90255
-6.58455
-6.29093
-6.02104
-5.77428
-5.55007
-5.3479
-5.16731
-5.00785
-4.86917
-4.75091
-4.65281
-4.57461
-4.51612
-4.47722
-4.45778
-118.242
-121.73
-124.657
-127.057
-128.966
-130.414
-131.438
-132.064
-132.318
-132.236
-131.842
-131.157
-130.206
-129.015
-127.607
-126.002
-124.217
-122.271
-120.181
-117.965
-115.638
-113.216
-110.713
-108.141
-105.514
-102.841
-100.133
-97.3996
-94.6504
-91.8934
-89.1364
-86.3864
-83.6501
-80.9333
-78.2416
-75.5799
-72.9527
-70.364
-67.8173
-65.3158
-62.8624
-60.4595
-58.1091
-55.8131
-53.573
-51.3901
-49.2651
-47.1991
-45.1923
-43.2452
-41.3578
-39.5302
-37.7622
-36.0533
-34.4032
-32.8112
-31.2767
-29.7989
-28.3769
-27.0098
-25.6966
-24.4362
-23.2276
-22.0695
-20.9609
-19.9005
-18.8872
-17.9197
-16.9967
-16.1172
-15.2797
-14.4832
-13.7264
-13.0081
-12.3273
-11.6826
-11.0731
-10.4976
-9.95508
-9.44454
-8.96497
-8.51544
-8.09503
-7.70288
-7.33817
-7.0001
-6.68796
-6.40103
-6.13869
-5.90033
-5.68541
-5.49342
-5.3239
-5.17646
-5.05075
-4.94645
-4.86331
-4.80114
-4.75978
-4.73912
-125.232
-128.927
-132.026
-134.568
-136.59
-138.124
-139.208
-139.871
-140.14
-140.054
-139.636
-138.911
-137.903
-136.642
-135.151
-133.45
-131.56
-129.499
-127.286
-124.939
-122.474
-119.909
-117.258
-114.534
-111.751
-108.92
-106.052
-103.158
-100.246
-97.3259
-94.4059
-91.4933
-88.5952
-85.7179
-82.8671
-80.048
-77.2655
-74.5237
-71.8264
-69.1771
-66.5786
-64.0336
-61.5443
-59.1126
-56.7401
-54.4281
-52.1776
-49.9893
-47.8639
-45.8017
-43.8028
-41.8671
-39.9945
-38.1847
-36.437
-34.7509
-33.1257
-31.5605
-30.0545
-28.6065
-27.2157
-25.8808
-24.6007
-23.3742
-22.2001
-21.077
-20.0038
-18.979
-18.0015
-17.07
-16.183
-15.3394
-14.5379
-13.7771
-13.056
-12.3732
-11.7277
-11.1182
-10.5436
-10.0029
-9.49496
-9.01885
-8.57359
-8.15826
-7.77198
-7.41393
-7.08333
-6.77944
-6.50159
-6.24915
-6.02152
-5.81817
-5.63864
-5.48248
-5.34933
-5.23887
-5.15082
-5.08497
-5.04116
-5.01928
-132.191
-136.091
-139.363
-142.046
-144.181
-145.8
-146.944
-147.643
-147.928
-147.836
-147.396
-146.63
-145.567
-144.235
-142.661
-140.866
-138.871
-136.696
-134.359
-131.882
-129.28
-126.573
-123.774
-120.899
-117.961
-114.973
-111.946
-108.89
-105.817
-102.734
-99.6521
-96.5777
-93.5185
-90.4813
-87.472
-84.4963
-81.5591
-78.665
-75.8179
-73.0213
-70.2784
-67.592
-64.9644
-62.3976
-59.8932
-57.4527
-55.0771
-52.7673
-50.5237
-48.3469
-46.2369
-44.1937
-42.2171
-40.3066
-38.4618
-36.682
-34.9665
-33.3144
-31.7246
-30.1962
-28.7281
-27.319
-25.9678
-24.6731
-23.4337
-22.2483
-21.1154
-20.0337
-19.0019
-18.0185
-17.0823
-16.1918
-15.3457
-14.5427
-13.7815
-13.0608
-12.3794
-11.736
-11.1295
-10.5587
-10.0226
-9.52003
-9.05003
-8.61162
-8.20387
-7.82593
-7.47695
-7.15618
-6.86289
-6.59642
-6.35614
-6.14149
-5.95198
-5.78715
-5.6466
-5.53
-5.43705
-5.36755
-5.3213
-5.29821
-139.118
-143.222
-146.665
-149.489
-151.735
-153.44
-154.643
-155.38
-155.679
-155.583
-155.119
-154.313
-153.194
-151.793
-150.136
-148.247
-146.148
-143.858
-141.4
-138.792
-136.054
-133.205
-130.26
-127.234
-124.142
-120.997
-117.811
-114.596
-111.361
-108.117
-104.874
-101.638
-98.4187
-95.2223
-92.0554
-88.9238
-85.8327
-82.7869
-79.7906
-76.8475
-73.9609
-71.1337
-68.3684
-65.6671
-63.0315
-60.4631
-57.963
-55.5322
-53.1711
-50.8802
-48.6597
-46.5094
-44.4292
-42.4186
-40.4772
-38.6041
-36.7987
-35.06
-33.3869
-31.7785
-30.2334
-28.7505
-27.3285
-25.966
-24.6616
-23.414
-22.2218
-21.0834
-19.9976
-18.9627
-17.9774
-17.0402
-16.1498
-15.3048
-14.5037
-13.7452
-13.0281
-12.351
-11.7127
-11.112
-10.5478
-10.0189
-9.52424
-9.06285
-8.63374
-8.23599
-7.86874
-7.53116
-7.2225
-6.94206
-6.68919
-6.4633
-6.26385
-6.09039
-5.94247
-5.81976
-5.72195
-5.6488
-5.60013
-5.57583
-146.01
-150.318
-153.932
-156.896
-159.253
-161.041
-162.305
-163.078
-163.392
-163.291
-162.804
-161.958
-160.784
-159.313
-157.575
-155.592
-153.388
-150.985
-148.405
-145.668
-142.795
-139.804
-136.713
-133.538
-130.293
-126.992
-123.648
-120.273
-116.878
-113.474
-110.069
-106.674
-103.295
-99.9399
-96.6161
-93.3293
-90.0851
-86.8884
-83.7436
-80.6547
-77.6251
-74.6579
-71.7556
-68.9204
-66.1543
-63.4586
-60.8347
-58.2834
-55.8053
-53.401
-51.0704
-48.8136
-46.6303
-44.5201
-42.4825
-40.5167
-38.6218
-36.7969
-35.041
-33.3528
-31.7312
-30.1749
-28.6824
-27.2524
-25.8834
-24.574
-23.3227
-22.128
-20.9883
-19.9021
-18.868
-17.8845
-16.9499
-16.063
-15.2222
-14.4262
-13.6735
-12.9629
-12.293
-11.6625
-11.0703
-10.5152
-9.99609
-9.51185
-9.06148
-8.64403
-8.25858
-7.90427
-7.58032
-7.28599
-7.02059
-6.78351
-6.57418
-6.39212
-6.23688
-6.10809
-6.00543
-5.92866
-5.87758
-5.85207
-152.867
-157.376
-161.16
-164.263
-166.731
-168.603
-169.926
-170.735
-171.064
-170.958
-170.449
-169.563
-168.334
-166.794
-164.974
-162.898
-160.591
-158.075
-155.374
-152.508
-149.5
-146.369
-143.133
-139.808
-136.411
-132.955
-129.454
-125.921
-122.367
-118.802
-115.238
-111.683
-108.145
-104.633
-101.153
-97.7118
-94.3152
-90.9684
-87.676
-84.442
-81.2702
-78.1636
-75.125
-72.1567
-69.2607
-66.4385
-63.6913
-61.0202
-58.4258
-55.9085
-53.4685
-51.1057
-48.8199
-46.6107
-44.4774
-42.4192
-40.4354
-38.5248
-36.6864
-34.919
-33.2212
-31.5918
-30.0292
-28.5321
-27.0988
-25.728
-24.4179
-23.167
-21.9738
-20.8367
-19.754
-18.7243
-17.7459
-16.8173
-15.937
-15.1036
-14.3156
-13.5716
-12.8702
-12.2102
-11.5902
-11.009
-10.4655
-9.9585
-9.48699
-9.04993
-8.64638
-8.27544
-7.93627
-7.62812
-7.35026
-7.10205
-6.88289
-6.69228
-6.52975
-6.39491
-6.28743
-6.20705
-6.15358
-6.12687
-159.685
-164.396
-168.348
-171.59
-174.168
-176.124
-177.506
-178.351
-178.695
-178.584
-178.051
-177.126
-175.842
-174.234
-172.332
-170.164
-167.754
-165.126
-162.304
-159.311
-156.169
-152.898
-149.517
-146.044
-142.496
-138.886
-135.229
-131.538
-127.825
-124.101
-120.378
-116.664
-112.969
-109.3
-105.665
-102.07
-98.5221
-95.026
-91.5867
-88.2085
-84.8952
-81.6501
-78.4759
-75.3752
-72.35
-69.4019
-66.5322
-63.742
-61.0319
-58.4023
-55.8534
-53.3853
-50.9975
-48.6897
-46.4612
-44.3113
-42.239
-40.2432
-38.3228
-36.4766
-34.7031
-33.0009
-31.3687
-29.8047
-28.3076
-26.8755
-25.507
-24.2004
-22.954
-21.7661
-20.6351
-19.5594
-18.5374
-17.5674
-16.6479
-15.7773
-14.9541
-14.1769
-13.4443
-12.7548
-12.1071
-11.5001
-10.9323
-10.4027
-9.91015
-9.4536
-9.03205
-8.64456
-8.29027
-7.96837
-7.67812
-7.41883
-7.1899
-6.99079
-6.82101
-6.68015
-6.56788
-6.48392
-6.42806
-6.40016
-166.464
-171.375
-175.495
-178.874
-181.562
-183.601
-185.041
-185.922
-186.281
-186.165
-185.61
-184.646
-183.308
-181.631
-179.649
-177.388
-174.876
-172.136
-169.194
-166.074
-162.798
-159.389
-155.865
-152.245
-148.545
-144.782
-140.969
-137.122
-133.251
-129.37
-125.489
-121.617
-117.765
-113.94
-110.151
-106.403
-102.705
-99.0602
-95.4749
-91.9533
-88.4993
-85.1164
-81.8075
-78.5752
-75.4215
-72.3482
-69.3567
-66.448
-63.6228
-60.8816
-58.2246
-55.6517
-53.1625
-50.7568
-48.4337
-46.1925
-44.0322
-41.9517
-39.9497
-38.0251
-36.1763
-34.4019
-32.7004
-31.07
-29.5093
-28.0165
-26.5899
-25.2278
-23.9284
-22.6901
-21.5112
-20.3898
-19.3244
-18.3132
-17.3546
-16.4471
-15.589
-14.7788
-14.015
-13.2963
-12.6211
-11.9883
-11.3964
-10.8443
-10.3309
-9.85494
-9.41549
-9.01155
-8.64222
-8.30665
-8.00408
-7.73379
-7.49514
-7.28757
-7.11058
-6.96375
-6.84671
-6.75918
-6.70095
-6.67187
-173.202
-178.312
-182.599
-186.115
-188.911
-191.033
-192.531
-193.448
-193.821
-193.701
-193.123
-192.12
-190.727
-188.983
-186.92
-184.568
-181.954
-179.104
-176.043
-172.796
-169.388
-165.84
-162.174
-158.407
-154.558
-150.642
-146.676
-142.672
-138.645
-134.607
-130.568
-126.54
-122.532
-118.552
-114.609
-110.71
-106.862
-103.07
-99.3395
-95.6753
-92.0815
-88.5617
-85.1188
-81.7557
-78.4744
-75.2767
-72.1641
-69.1377
-66.1981
-63.346
-60.5814
-57.9043
-55.3144
-52.8113
-50.3941
-48.0622
-45.8145
-43.6498
-41.5668
-39.5643
-37.6406
-35.7944
-34.024
-32.3277
-30.7038
-29.1505
-27.6662
-26.2489
-24.897
-23.6086
-22.3819
-21.2151
-20.1066
-19.0545
-18.0571
-17.1128
-16.22
-15.377
-14.5823
-13.8345
-13.132
-12.4735
-11.8577
-11.2833
-10.749
-10.2538
-9.7966
-9.37632
-8.99204
-8.64289
-8.32807
-8.04683
-7.79853
-7.58256
-7.39841
-7.24563
-7.12385
-7.03278
-6.97219
-6.94193
-179.898
-185.205
-189.657
-193.309
-196.213
-198.417
-199.974
-200.926
-201.314
-201.189
-200.589
-199.547
-198.1
-196.288
-194.146
-191.703
-188.988
-186.027
-182.848
-179.476
-175.936
-172.251
-168.443
-164.53
-160.532
-156.465
-152.345
-148.187
-144.005
-139.81
-135.615
-131.431
-127.268
-123.135
-119.04
-114.99
-110.993
-107.054
-103.18
-99.3737
-95.641
-91.9851
-88.4092
-84.916
-81.5079
-78.1866
-74.9537
-71.8103
-68.7571
-65.7947
-62.9232
-60.1426
-57.4527
-54.8527
-52.3422
-49.9201
-47.5855
-45.3371
-43.1736
-41.0937
-39.0957
-37.1781
-35.3392
-33.5773
-31.8907
-30.2774
-28.7357
-27.2636
-25.8594
-24.5212
-23.2471
-22.0352
-20.8838
-19.791
-18.7551
-17.7743
-16.847
-15.9714
-15.146
-14.3693
-13.6396
-12.9557
-12.3161
-11.7194
-11.1646
-10.6502
-10.1753
-9.73877
-9.33964
-8.97699
-8.65
-8.35789
-8.09999
-7.87567
-7.6844
-7.52572
-7.39923
-7.30464
-7.24171
-7.21028
-186.549
-192.052
-196.669
-200.456
-203.468
-205.753
-207.367
-208.354
-208.756
-208.627
-208.005
-206.924
-205.424
-203.545
-201.324
-198.791
-195.975
-192.905
-189.608
-186.111
-182.441
-178.62
-174.67
-170.613
-166.467
-162.25
-157.978
-153.666
-149.328
-144.979
-140.629
-136.29
-131.973
-127.687
-123.441
-119.241
-115.096
-111.012
-106.994
-103.048
-99.1769
-95.3859
-91.6778
-88.0554
-84.5213
-81.0772
-77.7248
-74.4651
-71.2991
-68.2272
-65.2495
-62.3662
-59.5767
-56.8807
-54.2773
-51.7657
-49.3447
-47.0132
-44.7698
-42.6129
-40.5411
-38.5526
-36.6457
-34.8187
-33.0697
-31.3968
-29.798
-28.2716
-26.8155
-25.4278
-24.1065
-22.8499
-21.6559
-20.5227
-19.4485
-18.4315
-17.4698
-16.5619
-15.706
-14.9005
-14.1439
-13.4347
-12.7714
-12.1527
-11.5773
-11.044
-10.5515
-10.0988
-9.68493
-9.30888
-8.9698
-8.66689
-8.39945
-8.16684
-7.9685
-7.80395
-7.67279
-7.5747
-7.50944
-7.47685
-193.153
-198.852
-203.632
-207.553
-210.671
-213.038
-214.709
-215.731
-216.147
-216.013
-215.369
-214.25
-212.697
-210.752
-208.452
-205.829
-202.913
-199.735
-196.321
-192.701
-188.9
-184.944
-180.855
-176.654
-172.361
-167.995
-163.571
-159.107
-154.616
-150.112
-145.608
-141.116
-136.646
-132.208
-127.811
-123.463
-119.171
-114.943
-110.782
-106.696
-102.688
-98.7631
-94.9237
-91.1731
-87.5138
-83.9478
-80.4767
-77.1016
-73.8235
-70.6428
-67.5597
-64.5743
-61.6861
-58.8946
-56.199
-53.5985
-51.0918
-48.6778
-46.3549
-44.1217
-41.9765
-39.9176
-37.9432
-36.0515
-34.2405
-32.5084
-30.8531
-29.2726
-27.7649
-26.3281
-24.9601
-23.6589
-22.4227
-21.2493
-20.1371
-19.084
-18.0884
-17.1483
-16.2621
-15.4281
-14.6447
-13.9104
-13.2236
-12.583
-11.9872
-11.435
-10.9251
-10.4564
-10.0278
-9.63847
-9.28738
-8.97375
-8.69684
-8.456
-8.25064
-8.08026
-7.94446
-7.84289
-7.77532
-7.74158
-199.711
-205.602
-210.545
-214.599
-217.823
-220.27
-221.998
-223.055
-223.485
-223.347
-222.68
-221.524
-219.918
-217.907
-215.528
-212.816
-209.802
-206.515
-202.986
-199.243
-195.313
-191.222
-186.994
-182.651
-178.213
-173.698
-169.124
-164.508
-159.865
-155.208
-150.551
-145.907
-141.285
-136.696
-132.15
-127.654
-123.217
-118.845
-114.543
-110.318
-106.174
-102.116
-98.1462
-94.2683
-90.4848
-86.7977
-83.2087
-79.7191
-76.3297
-73.041
-69.8533
-66.7665
-63.7802
-60.894
-58.1069
-55.4181
-52.8263
-50.3303
-47.9286
-45.6195
-43.4015
-41.2727
-39.2313
-37.2754
-35.403
-33.612
-31.9005
-30.2663
-28.7075
-27.2219
-25.8074
-24.4621
-23.1839
-21.9707
-20.8207
-19.7319
-18.7024
-17.7304
-16.8141
-15.9518
-15.1419
-14.3826
-13.6725
-13.0102
-12.3942
-11.8232
-11.296
-10.8114
-10.3683
-9.96568
-9.60268
-9.2784
-8.99209
-8.74307
-8.53073
-8.35457
-8.21416
-8.10915
-8.03929
-8.0044
-206.219
-212.302
-217.406
-221.593
-224.922
-227.448
-229.232
-230.324
-230.768
-230.625
-229.937
-228.742
-227.085
-225.008
-222.552
-219.751
-216.639
-213.245
-209.601
-205.735
-201.678
-197.454
-193.088
-188.603
-184.02
-179.358
-174.635
-169.869
-165.074
-160.266
-155.457
-150.661
-145.889
-141.151
-136.456
-131.814
-127.232
-122.717
-118.276
-113.913
-109.634
-105.444
-101.344
-97.3402
-93.4334
-89.6262
-85.9203
-82.3169
-78.817
-75.4212
-72.1296
-68.9422
-65.8586
-62.8783
-60.0004
-57.224
-54.5478
-51.9704
-49.4904
-47.1061
-44.8158
-42.6177
-40.5098
-38.4901
-36.5566
-34.7073
-32.94
-31.2526
-29.643
-28.1089
-26.6484
-25.2592
-23.9394
-22.6867
-21.4992
-20.3749
-19.3119
-18.3082
-17.3621
-16.4717
-15.6353
-14.8513
-14.1181
-13.4341
-12.7981
-12.2085
-11.6641
-11.1637
-10.7061
-10.2904
-9.9156
-9.58076
-9.28512
-9.02798
-8.80873
-8.62683
-8.48184
-8.37341
-8.30127
-8.26524
-212.676
-218.95
-224.214
-228.531
-231.964
-234.57
-236.41
-237.535
-237.994
-237.846
-237.137
-235.905
-234.195
-232.053
-229.52
-226.632
-223.422
-219.922
-216.164
-212.177
-207.992
-203.636
-199.134
-194.509
-189.782
-184.974
-180.104
-175.188
-170.243
-165.284
-160.325
-155.379
-150.457
-145.571
-140.729
-135.942
-131.216
-126.56
-121.979
-117.48
-113.067
-108.745
-104.518
-100.388
-96.359
-92.4326
-88.6106
-84.8944
-81.285
-77.7828
-74.3881
-71.1009
-67.9208
-64.8472
-61.8792
-59.0158
-56.2558
-53.5977
-51.04
-48.5811
-46.2191
-43.9521
-41.7782
-39.6953
-37.7013
-35.7941
-33.9714
-32.2312
-30.5711
-28.9891
-27.4828
-26.0502
-24.6889
-23.3971
-22.1724
-21.0129
-19.9166
-18.8815
-17.9057
-16.9874
-16.1249
-15.3163
-14.5601
-13.8548
-13.1988
-12.5907
-12.0293
-11.5132
-11.0414
-10.6127
-10.2261
-9.88075
-9.57586
-9.31067
-9.08455
-8.89695
-8.74742
-8.6356
-8.5612
-8.52404
-219.08
-225.544
-230.966
-235.413
-238.95
-241.634
-243.529
-244.689
-245.161
-245.009
-244.278
-243.009
-241.248
-239.041
-236.432
-233.457
-230.15
-226.545
-222.673
-218.567
-214.256
-209.769
-205.131
-200.366
-195.497
-190.545
-185.527
-180.463
-175.37
-170.261
-165.153
-160.058
-154.988
-149.954
-144.967
-140.035
-135.168
-130.371
-125.653
-121.018
-116.472
-112.02
-107.665
-103.411
-99.2608
-95.2161
-91.2791
-87.451
-83.7328
-80.1252
-76.6283
-73.2421
-69.9662
-66.8
-63.7426
-60.793
-57.9499
-55.2118
-52.5771
-50.0441
-47.611
-45.2757
-43.0363
-40.8907
-38.8366
-36.872
-34.9945
-33.2018
-31.4918
-29.8621
-28.3104
-26.8346
-25.4324
-24.1016
-22.8401
-21.6457
-20.5164
-19.4501
-18.4449
-17.499
-16.6104
-15.7775
-14.9986
-14.272
-13.5963
-12.9699
-12.3916
-11.86
-11.3739
-10.9323
-10.534
-10.1783
-9.86423
-9.59106
-9.35813
-9.16488
-9.01085
-8.89566
-8.81902
-8.78074
-225.431
-232.082
-237.661
-242.237
-245.876
-248.638
-250.589
-251.781
-252.268
-252.111
-251.359
-250.053
-248.241
-245.971
-243.286
-240.225
-236.822
-233.112
-229.128
-224.903
-220.467
-215.849
-211.077
-206.174
-201.164
-196.068
-190.905
-185.695
-180.453
-175.197
-169.94
-164.698
-159.481
-154.301
-149.169
-144.095
-139.086
-134.15
-129.295
-124.526
-119.848
-115.267
-110.786
-106.409
-102.138
-97.9762
-93.925
-89.9859
-86.16
-82.4478
-78.8495
-75.3652
-71.9943
-68.7363
-65.5904
-62.5552
-59.6297
-56.8122
-54.1012
-51.4948
-48.9911
-46.5881
-44.2838
-42.076