/*--------------------------------*- C++ -*----------------------------------*\
| =========                 |                                                 |
| \\      /  F ield         | OpenFOAM: The Open Source CFD Toolbox           |
|  \\    /   O peration     | Version:  2406                                  |
|   \\  /    A nd           | Website:  www.openfoam.com                      |
|    \\/     M anipulation  |                                                 |
\*---------------------------------------------------------------------------*/
FoamFile
{
    version     2.0;
    format      ascii;
    arch        "LSB;label=32;scalar=64";
    class       volScalarField;
    location    "90";
    object      gradTx;
}
// * * * * * * * * * * * * * * * * * * * * * * * * * * * * * * * * * * * * * //

dimensions      [0 -1 0 1 0 0 0];

internalField   nonuniform List<scalar> 
20000
(
-2.50814
-2.66165
-2.79884
-2.92058
-3.02758
-3.12006
-3.19887
-3.26677
-3.32294
-3.36671
-3.40054
-3.42562
-3.44178
-3.44916
-3.44851
-3.44075
-3.42654
-3.40632
-3.38048
-3.34938
-3.31347
-3.2732
-3.22903
-3.18137
-3.1306
-3.07705
-3.02105
-2.96289
-2.90287
-2.84125
-2.77829
-2.71421
-2.64926
-2.58364
-2.51755
-2.45117
-2.38468
-2.31823
-2.25197
-2.18603
-2.12055
-2.05563
-1.99138
-1.9279
-1.86526
-1.80356
-1.74285
-1.6832
-1.62467
-1.56731
-1.51115
-1.45624
-1.40261
-1.35028
-1.29927
-1.24961
-1.2013
-1.15435
-1.10877
-1.06456
-1.02173
-0.98026
-0.940153
-0.901399
-0.863989
-0.827912
-0.793152
-0.759697
-0.727529
-0.696632
-0.666988
-0.638578
-0.611383
-0.585384
-0.56056
-0.536892
-0.51436
-0.492943
-0.472622
-0.453377
-0.435188
-0.418038
-0.401907
-0.386778
-0.372633
-0.359457
-0.347233
-0.335947
-0.325585
-0.316134
-0.307582
-0.299917
-0.293129
-0.28721
-0.282152
-0.277947
-0.27459
-0.272076
-0.270402
-0.269566
-7.52385
-7.98428
-8.39595
-8.76099
-9.08104
-9.35952
-9.59731
-9.79942
-9.96682
-10.0992
-10.2014
-10.2763
-10.3243
-10.3463
-10.3446
-10.3215
-10.2789
-10.2182
-10.1406
-10.0473
-9.93954
-9.81877
-9.68629
-9.54334
-9.39102
-9.23039
-9.0624
-8.88796
-8.70791
-8.52306
-8.33417
-8.14197
-7.94712
-7.75028
-7.55202
-7.3529
-7.15344
-6.95411
-6.75535
-6.55756
-6.36113
-6.16639
-5.97366
-5.78322
-5.59533
-5.41023
-5.22812
-5.0492
-4.87362
-4.70154
-4.53309
-4.36837
-4.20749
-4.05051
-3.8975
-3.74852
-3.6036
-3.46276
-3.32604
-3.19343
-3.06493
-2.94054
-2.82023
-2.70397
-2.59176
-2.48353
-2.37926
-2.2789
-2.18241
-2.08972
-2.0008
-1.91558
-1.834
-1.75601
-1.68154
-1.61054
-1.54295
-1.47871
-1.41775
-1.36002
-1.30546
-1.25401
-1.20562
-1.16024
-1.11781
-1.07828
-1.04161
-1.00776
-0.976676
-0.948324
-0.922669
-0.899676
-0.879315
-0.86156
-0.846385
-0.833772
-0.823702
-0.816161
-0.81114
-0.808631
-12.5384
-13.3057
-13.9906
-14.5988
-15.1321
-15.5965
-15.9937
-16.3296
-16.6078
-16.8292
-17.0002
-17.1247
-17.2041
-17.2407
-17.238
-17.1997
-17.1288
-17.0277
-16.8983
-16.7427
-16.5631
-16.3619
-16.1411
-15.9029
-15.6491
-15.3815
-15.1015
-14.8108
-14.5108
-14.2028
-13.888
-13.5677
-13.243
-12.915
-12.5846
-12.2528
-11.9204
-11.5883
-11.2571
-10.9275
-10.6001
-10.2756
-9.95446
-9.63711
-9.32402
-9.01556
-8.7121
-8.41394
-8.12137
-7.83462
-7.55391
-7.27942
-7.01132
-6.74973
-6.49476
-6.2465
-6.005
-5.77032
-5.54249
-5.32151
-5.10738
-4.90009
-4.6996
-4.50588
-4.31888
-4.13854
-3.96478
-3.79755
-3.63675
-3.4823
-3.33411
-3.1921
-3.05616
-2.9262
-2.80211
-2.6838
-2.57116
-2.46411
-2.36253
-2.26632
-2.1754
-2.08967
-2.00904
-1.93341
-1.86271
-1.79684
-1.73574
-1.67932
-1.62752
-1.58028
-1.53753
-1.49921
-1.46528
-1.4357
-1.41041
-1.38939
-1.37261
-1.36004
-1.35168
-1.3475
-17.5493
-18.6242
-19.5825
-20.4333
-21.18
-21.8295
-22.3857
-22.8557
-23.2448
-23.5554
-23.7949
-23.9688
-24.0795
-24.1307
-24.1271
-24.0738
-23.9747
-23.833
-23.6517
-23.4339
-23.1825
-22.9009
-22.592
-22.2586
-21.9034
-21.5288
-21.137
-20.7301
-20.3101
-19.879
-19.4384
-18.9901
-18.5357
-18.0765
-17.6141
-17.1497
-16.6845
-16.2196
-15.756
-15.2947
-14.8365
-14.3823
-13.9328
-13.4886
-13.0504
-12.6187
-12.1939
-11.7766
-11.3671
-10.9658
-10.5729
-10.1887
-9.81343
-9.44729
-9.09042
-8.74294
-8.40493
-8.07646
-7.75757
-7.44827
-7.14857
-6.85843
-6.57782
-6.30668
-6.04494
-5.79252
-5.54933
-5.31525
-5.09019
-4.87402
-4.66661
-4.46784
-4.27757
-4.09566
-3.92198
-3.75639
-3.59874
-3.4489
-3.30672
-3.17207
-3.04481
-2.92482
-2.81196
-2.70611
-2.60714
-2.51496
-2.42943
-2.35047
-2.27797
-2.21185
-2.15201
-2.09838
-2.05089
-2.00948
-1.97409
-1.94467
-1.92118
-1.90359
-1.89188
-1.88603
-22.555
-23.9371
-25.1699
-26.2628
-27.2225
-28.0571
-28.772
-29.3762
-29.8763
-30.2757
-30.5836
-30.8068
-30.949
-31.0148
-31.0104
-30.942
-30.8146
-30.6324
-30.3994
-30.1193
-29.7962
-29.4343
-29.0372
-28.6088
-28.1523
-27.6708
-27.1672
-26.6442
-26.1044
-25.5503
-24.984
-24.4078
-23.8237
-23.2336
-22.6393
-22.0424
-21.4444
-20.8469
-20.251
-19.6581
-19.0693
-18.4855
-17.9077
-17.3368
-16.7736
-16.2187
-15.6728
-15.1364
-14.61
-14.0942
-13.5892
-13.0954
-12.6131
-12.1425
-11.6838
-11.2372
-10.8028
-10.3806
-9.97074
-9.5732
-9.18799
-8.81508
-8.45441
-8.10592
-7.76951
-7.44508
-7.1325
-6.83165
-6.54237
-6.26453
-5.99795
-5.74247
-5.49792
-5.26412
-5.04089
-4.82805
-4.62543
-4.43284
-4.2501
-4.07703
-3.91347
-3.75925
-3.61419
-3.47814
-3.35094
-3.23245
-3.12253
-3.02104
-2.92786
-2.84287
-2.76596
-2.69703
-2.63599
-2.58277
-2.53728
-2.49946
-2.46928
-2.44667
-2.43162
-2.4241
-27.5551
-29.2438
-30.7507
-32.0859
-33.2583
-34.2778
-35.1514
-35.8895
-36.5003
-36.9885
-37.3648
-37.6372
-37.8107
-37.8912
-37.8861
-37.8026
-37.6469
-37.4243
-37.1395
-36.7972
-36.4025
-35.9603
-35.4753
-34.9519
-34.3942
-33.8059
-33.1907
-32.5518
-31.8923
-31.2153
-30.5235
-29.8195
-29.1059
-28.385
-27.6589
-26.9296
-26.1991
-25.469
-24.7411
-24.0167
-23.2973
-22.5841
-21.8782
-21.1807
-20.4926
-19.8147
-19.1477
-18.4924
-17.8494
-17.2191
-16.6022
-15.9989
-15.4097
-14.8348
-14.2744
-13.7287
-13.198
-12.6822
-12.1814
-11.6958
-11.2251
-10.7696
-10.3289
-9.90316
-9.49216
-9.0958
-8.71391
-8.34636
-7.99295
-7.6535
-7.32781
-7.01569
-6.71692
-6.43128
-6.15855
-5.89853
-5.65098
-5.41568
-5.19243
-4.98099
-4.78117
-4.59274
-4.41552
-4.24931
-4.09391
-3.94915
-3.81485
-3.69086
-3.57702
-3.47319
-3.37922
-3.29501
-3.22044
-3.15542
-3.09984
-3.05364
-3.01676
-2.98915
-2.97076
-2.96157
-32.5488
-34.5435
-36.3237
-37.9009
-39.2859
-40.4901
-41.5221
-42.394
-43.1154
-43.6922
-44.1366
-44.4582
-44.6632
-44.7584
-44.7524
-44.6539
-44.47
-44.2069
-43.8704
-43.4661
-42.9999
-42.4775
-41.9047
-41.2864
-40.6276
-39.9328
-39.206
-38.4513
-37.6723
-36.8726
-36.0554
-35.2239
-34.3809
-33.5293
-32.6716
-31.8102
-30.9473
-30.0849
-29.225
-28.3694
-27.5196
-26.6771
-25.8433
-25.0194
-24.2066
-23.4058
-22.6179
-21.8439
-21.0843
-20.3399
-19.6111
-18.8985
-18.2025
-17.5233
-16.8614
-16.2169
-15.5899
-14.9806
-14.3891
-13.8154
-13.2595
-12.7214
-12.2009
-11.698
-11.2125
-10.7443
-10.2932
-9.85901
-9.44155
-9.04058
-8.65587
-8.28718
-7.93425
-7.59685
-7.2747
-6.96755
-6.67513
-6.39719
-6.13347
-5.88372
-5.64768
-5.42511
-5.21577
-5.01943
-4.83587
-4.66487
-4.50624
-4.35978
-4.2253
-4.10265
-3.99166
-3.89219
-3.8041
-3.72729
-3.66164
-3.60707
-3.56351
-3.53089
-3.50916
-3.49831
-37.5346
-39.8348
-41.8878
-43.7066
-45.3037
-46.6924
-47.8826
-48.888
-49.7198
-50.385
-50.8976
-51.2684
-51.5046
-51.6145
-51.6078
-51.4942
-51.2821
-50.9786
-50.5904
-50.1242
-49.5866
-48.9843
-48.3237
-47.6107
-46.851
-46.0498
-45.2117
-44.3413
-43.443
-42.5208
-41.5784
-40.6195
-39.6474
-38.6654
-37.6763
-36.6829
-35.6878
-34.6934
-33.7018
-32.7151
-31.7351
-30.7635
-29.802
-28.8519
-27.9146
-26.9911
-26.0826
-25.1899
-24.314
-23.4555
-22.6152
-21.7934
-20.9907
-20.2076
-19.4442
-18.701
-17.978
-17.2754
-16.5933
-15.9317
-15.2907
-14.6701
-14.0698
-13.4899
-12.93
-12.3901
-11.8699
-11.3692
-10.8878
-10.4254
-9.98179
-9.55662
-9.14964
-8.76054
-8.38905
-8.03485
-7.69764
-7.37713
-7.07301
-6.785
-6.5128
-6.25613
-6.01473
-5.78831
-5.57663
-5.37944
-5.19651
-5.02761
-4.87254
-4.7311
-4.60311
-4.4884
-4.38682
-4.29824
-4.22254
-4.15961
-4.10937
-4.07175
-4.0467
-4.03418
-42.5112
-45.1164
-47.4415
-49.5015
-51.3104
-52.8832
-54.2312
-55.37
-56.3119
-57.0654
-57.646
-58.0658
-58.3334
-58.4579
-58.4504
-58.3218
-58.0815
-57.7377
-57.298
-56.7699
-56.161
-55.4789
-54.7307
-53.9233
-53.0629
-52.1554
-51.2062
-50.2205
-49.203
-48.1585
-47.0912
-46.0051
-44.9042
-43.7919
-42.6717
-41.5466
-40.4196
-39.2933
-38.1702
-37.0526
-35.9427
-34.8424
-33.7534
-32.6773
-31.6157
-30.5698
-29.5408
-28.5298
-27.5377
-26.5654
-25.6136
-24.6829
-23.7738
-22.8868
-22.0223
-21.1805
-20.3616
-19.5659
-18.7933
-18.0441
-17.318
-16.6151
-15.9353
-15.2785
-14.6444
-14.0329
-13.4437
-12.8766
-12.3314
-11.8077
-11.3052
-10.8237
-10.3628
-9.92208
-9.50133
-9.10016
-8.71825
-8.35524
-8.0108
-7.6846
-7.37631
-7.08562
-6.8122
-6.55577
-6.31602
-6.09269
-5.8855
-5.69421
-5.51858
-5.35838
-5.21342
-5.0835
-4.96845
-4.86813
-4.78239
-4.71112
-4.65422
-4.61161
-4.58324
-4.56907
-47.4773
-50.3868
-52.9836
-55.2842
-57.3045
-59.0609
-60.5665
-61.8382
-62.8901
-63.7318
-64.3802
-64.849
-65.1478
-65.2869
-65.2786
-65.135
-64.8666
-64.4826
-63.9915
-63.4016
-62.7216
-61.9598
-61.1243
-60.2226
-59.2617
-58.2482
-57.1881
-56.0872
-54.9509
-53.7843
-52.5923
-51.3794
-50.1499
-48.9077
-47.6566
-46.4
-45.1413
-43.8835
-42.6292
-41.3811
-40.1415
-38.9126
-37.6964
-36.4946
-35.309
-34.1409
-32.9917
-31.8626
-30.7547
-29.6688
-28.6058
-27.5663
-26.5511
-25.5605
-24.5949
-23.6548
-22.7403
-21.8516
-20.9888
-20.1519
-19.3411
-18.5561
-17.7969
-17.0633
-16.3551
-15.6722
-15.0142
-14.3809
-13.7719
-13.1871
-12.6259
-12.0881
-11.5733
-11.0812
-10.6113
-10.1632
-9.7367
-9.33129
-8.94661
-8.58231
-8.23801
-7.91335
-7.608
-7.32161
-7.05385
-6.80443
-6.57304
-6.3594
-6.16325
-5.98434
-5.82245
-5.67735
-5.54886
-5.43682
-5.34106
-5.26147
-5.19792
-5.15034
-5.11865
-5.10282
-52.4317
-55.6449
-58.5126
-61.0533
-63.2844
-65.2241
-66.8868
-68.2912
-69.4528
-70.3824
-71.0985
-71.6162
-71.9461
-72.0997
-72.0906
-71.9321
-71.6357
-71.2115
-70.6691
-70.0177
-69.2667
-68.4255
-67.5028
-66.507
-65.4459
-64.3266
-63.1558
-61.9401
-60.6852
-59.3969
-58.0805
-56.741
-55.3831
-54.0113
-52.6297
-51.242
-49.852
-48.4628
-47.0777
-45.6993
-44.3304
-42.9733
-41.6301
-40.303
-38.9936
-37.7036
-36.4345
-35.1876
-33.964
-32.7648
-31.5909
-30.443
-29.3218
-28.2278
-27.1615
-26.1232
-25.1133
-24.1318
-23.179
-22.2549
-21.3594
-20.4925
-19.654
-18.8439
-18.0618
-17.3076
-16.5809
-15.8816
-15.2091
-14.5632
-13.9435
-13.3495
-12.781
-12.2375
-11.7186
-11.2238
-10.7528
-10.305
-9.88022
-9.4779
-9.09767
-8.73913
-8.40191
-8.08564
-7.78994
-7.51449
-7.25896
-7.02303
-6.80641
-6.60883
-6.43004
-6.2698
-6.12791
-6.00417
-5.89842
-5.81052
-5.74034
-5.68779
-5.6528
-5.63532
-57.3732
-60.8892
-64.0272
-66.8073
-69.2487
-71.3712
-73.1906
-74.7274
-75.9984
-77.0156
-77.7993
-78.3657
-78.7266
-78.8948
-78.8849
-78.7114
-78.3871
-77.9229
-77.3293
-76.6165
-75.7948
-74.8743
-73.8646
-72.775
-71.6139
-70.3891
-69.108
-67.7777
-66.4046
-64.9948
-63.5544
-62.0886
-60.6028
-59.1016
-57.5898
-56.0714
-54.5503
-53.0303
-51.5146
-50.0063
-48.5084
-47.0233
-45.5536
-44.1013
-42.6686
-41.257
-39.8683
-38.5039
-37.165
-35.8528
-34.5682
-33.3121
-32.0852
-30.8881
-29.7213
-28.5852
-27.4801
-26.4061
-25.3635
-24.3523
-23.3724
-22.4238
-21.5063
-20.6198
-19.7641
-18.9388
-18.1436
-17.3783
-16.6425
-15.9357
-15.2576
-14.6077
-13.9856
-13.3909
-12.823
-12.2816
-11.7662
-11.2762
-10.8114
-10.3711
-9.95508
-9.56276
-9.19376
-8.84767
-8.52411
-8.2227
-7.94308
-7.68492
-7.44788
-7.23168
-7.03604
-6.8607
-6.70544
-6.57004
-6.45432
-6.35814
-6.28134
-6.22384
-6.18555
-6.16642
-62.3005
-66.1184
-69.5259
-72.5448
-75.1959
-77.5006
-79.4764
-81.1451
-82.5252
-83.6299
-84.4809
-85.0959
-85.4878
-85.6704
-85.6597
-85.4714
-85.1191
-84.615
-83.9704
-83.1964
-82.3041
-81.3046
-80.2083
-79.0251
-77.7642
-76.4343
-75.0432
-73.5986
-72.1075
-70.5767
-69.0125
-67.4209
-65.8074
-64.1774
-62.5357
-60.8869
-59.2352
-57.5846
-55.9387
-54.3009
-52.6743
-51.0618
-49.4658
-47.8888
-46.333
-44.8002
-43.2923
-41.8106
-40.3568
-38.9319
-37.537
-36.173
-34.8407
-33.5408
-32.2738
-31.0402
-29.8401
-28.674
-27.5418
-26.4437
-25.3796
-24.3496
-23.3533
-22.3907
-21.4614
-20.5653
-19.7018
-18.8708
-18.0718
-17.3043
-16.5679
-15.8622
-15.1867
-14.5409
-13.9243
-13.3364
-12.7767
-12.2447
-11.7399
-11.2618
-10.81
-10.384
-9.98333
-9.60753
-9.25618
-8.92888
-8.62525
-8.34491
-8.08752
-7.85275
-7.64031
-7.44991
-7.28131
-7.13428
-7.00863
-6.90418
-6.8208
-6.75836
-6.71678
-6.69601
-67.2125
-71.3314
-75.0075
-78.2644
-81.1245
-83.6109
-85.7425
-87.5428
-89.0317
-90.2235
-91.1417
-91.8051
-92.2278
-92.4249
-92.4134
-92.2102
-91.8301
-91.2863
-90.5908
-89.7557
-88.7931
-87.7148
-86.5321
-85.2557
-83.8954
-82.4606
-80.9598
-79.4013
-77.7927
-76.1412
-74.4537
-72.7365
-70.9959
-69.2373
-67.4662
-65.6873
-63.9054
-62.1247
-60.3491
-58.5822
-56.8273
-55.0876
-53.3658
-51.6645
-49.986
-48.3324
-46.7055
-45.1071
-43.5386
-42.0013
-40.4965
-39.025
-37.5877
-36.1853
-34.8184
-33.4874
-32.1928
-30.9347
-29.7133
-28.5286
-27.3806
-26.2693
-25.1945
-24.156
-23.1535
-22.1867
-21.2552
-20.3586
-19.4966
-18.6686
-17.8742
-17.1128
-16.3841
-15.6873
-15.0221
-14.3878
-13.784
-13.2101
-12.6655
-12.1498
-11.6623
-11.2027
-10.7704
-10.365
-9.98596
-9.63286
-9.30529
-9.00284
-8.72516
-8.47188
-8.24269
-8.03728
-7.85539
-7.69677
-7.56121
-7.44853
-7.35857
-7.29121
-7.24635
-7.22394
-72.1078
-76.5267
-80.4706
-83.9647
-87.0332
-89.7006
-91.9875
-93.9189
-95.5162
-96.7949
-97.7799
-98.4916
-98.9451
-99.1566
-99.1443
-98.9263
-98.5185
-97.935
-97.1888
-96.2929
-95.2602
-94.1034
-92.8346
-91.4652
-90.0059
-88.4665
-86.8565
-85.1844
-83.4586
-81.6869
-79.8764
-78.0342
-76.1668
-74.2802
-72.38
-70.4716
-68.5599
-66.6495
-64.7445
-62.8489
-60.9663
-59.0999
-57.2527
-55.4275
-53.6267
-51.8526
-50.1073
-48.3924
-46.7097
-45.0605
-43.446
-41.8673
-40.3253
-38.8208
-37.3544
-35.9265
-34.5375
-33.1878
-31.8774
-30.6064
-29.3749
-28.1827
-27.0296
-25.9154
-24.8399
-23.8026
-22.8033
-21.8414
-20.9166
-20.0283
-19.176
-18.3592
-17.5774
-16.8299
-16.1162
-15.4358
-14.7879
-14.1722
-13.588
-13.0347
-12.5117
-12.0187
-11.5549
-11.1199
-10.7133
-10.3345
-9.98303
-9.65856
-9.36065
-9.08893
-8.84304
-8.62267
-8.42753
-8.25736
-8.11193
-7.99104
-7.89452
-7.82226
-7.77413
-7.75009
-76.9854
-81.7032
-85.9139
-89.6443
-92.9203
-95.7682
-98.2098
-100.272
-101.977
-103.342
-104.394
-105.154
-105.638
-105.864
-105.851
-105.618
-105.183
-104.56
-103.763
-102.806
-101.704
-100.469
-99.1142
-97.6522
-96.0941
-94.4507
-92.7317
-90.9466
-89.104
-87.2124
-85.2795
-83.3127
-81.3189
-79.3047
-77.276
-75.2385
-73.1975
-71.1578
-69.124
-67.1002
-65.0902
-63.0975
-61.1254
-59.1767
-57.2541
-55.3601
-53.4967
-51.6658
-49.8693
-48.1085
-46.3848
-44.6993
-43.053
-41.4467
-39.8811
-38.3566
-36.8737
-35.4327
-34.0337
-32.6767
-31.3619
-30.089
-28.8579
-27.6684
-26.5201
-25.4127
-24.3458
-23.3188
-22.3314
-21.3831
-20.4731
-19.6011
-18.7664
-17.9683
-17.2064
-16.4799
-15.7882
-15.1309
-14.5071
-13.9164
-13.3581
-12.8316
-12.3365
-11.8721
-11.438
-11.0335
-10.6583
-10.3119
-9.99383
-9.70372
-9.44121
-9.20593
-8.99759
-8.81591
-8.66064
-8.53157
-8.42853
-8.35138
-8.3
-8.27432
-81.8439
-86.8595
-91.3359
-95.3018
-98.7846
-101.812
-104.408
-106.6
-108.413
-109.864
-110.982
-111.79
-112.305
-112.545
-112.531
-112.284
-111.821
-111.158
-110.311
-109.294
-108.122
-106.809
-105.369
-103.815
-102.159
-100.412
-98.5841
-96.6863
-94.7274
-92.7164
-90.6615
-88.5706
-86.451
-84.3096
-82.1529
-79.9868
-77.817
-75.6486
-73.4864
-71.3349
-69.1981
-67.0796
-64.983
-62.9114
-60.8675
-58.8539
-56.8729
-54.9265
-53.0165
-51.1446
-49.3121
-47.5203
-45.7701
-44.0624
-42.398
-40.7773
-39.2008
-37.6688
-36.1815
-34.739
-33.3411
-31.9879
-30.6791
-29.4145
-28.1938
-27.0165
-25.8822
-24.7905
-23.7408
-22.7326
-21.7652
-20.8381
-19.9507
-19.1023
-18.2922
-17.5199
-16.7846
-16.0858
-15.4226
-14.7946
-14.2011
-13.6415
-13.1151
-12.6214
-12.1598
-11.7298
-11.331
-10.9627
-10.6245
-10.3161
-10.037
-9.78692
-9.56543
-9.37228
-9.20722
-9.07
-8.96046
-8.87843
-8.82381
-8.79652
-86.6823
-91.9944
-96.7354
-100.936
-104.624
-107.831
-110.58
-112.902
-114.822
-116.359
-117.543
-118.399
-118.944
-119.198
-119.183
-118.921
-118.431
-117.73
-116.833
-115.756
-114.514
-113.124
-111.598
-109.952
-108.198
-106.348
-104.412
-102.402
-100.327
-98.1975
-96.0212
-93.8066
-91.5617
-89.2937
-87.0095
-84.7154
-82.4173
-80.1207
-77.8308
-75.552
-73.2888
-71.0452
-68.8246
-66.6305
-64.4658
-62.3331
-60.235
-58.1736
-56.1507
-54.1681
-52.2273
-50.3296
-48.4759
-46.6673
-44.9044
-43.188
-41.5183
-39.8957
-38.3205
-36.7926
-35.3122
-33.879
-32.4928
-31.1534
-29.8605
-28.6136
-27.4123
-26.256
-25.1443
-24.0764
-23.0519
-22.07
-21.1301
-20.2316
-19.3736
-18.5556
-17.7769
-17.0367
-16.3344
-15.6692
-15.0406
-14.4479
-13.8904
-13.3675
-12.8787
-12.4233
-12.0008
-11.6108
-11.2526
-10.926
-10.6304
-10.3655
-10.1309
-9.92635
-9.75152
-9.6062
-9.49018
-9.4033
-9.34545
-9.31655
-91.4993
-97.1066
-102.111
-106.545
-110.438
-113.823
-116.725
-119.176
-121.203
-122.825
-124.075
-124.978
-125.554
-125.822
-125.807
-125.53
-125.012
-124.272
-123.325
-122.188
-120.878
-119.41
-117.8
-116.062
-114.211
-112.257
-110.214
-108.093
-105.903
-103.654
-101.357
-99.0195
-96.6499
-94.2558
-91.8447
-89.4231
-86.9973
-84.5731
-82.1558
-79.7505
-77.3615
-74.9932
-72.6493
-70.3332
-68.0482
-65.797
-63.5823
-61.4063
-59.271
-57.1783
-55.1296
-53.1264
-51.1697
-49.2606
-47.3998
-45.5879
-43.8255
-42.1127
-40.45
-38.8372
-37.2745
-35.7616
-34.2984
-32.8847
-31.5199
-30.2037
-28.9356
-27.7151
-26.5416
-25.4144
-24.3329
-23.2965
-22.3043
-21.3558
-20.4502
-19.5868
-18.7648
-17.9834
-17.2421
-16.54
-15.8765
-15.2508
-14.6623
-14.1104
-13.5943
-13.1136
-12.6677
-12.256
-11.878
-11.5332
-11.2211
-10.9415
-10.6939
-10.478
-10.2934
-10.14
-10.0176
-9.92585
-9.86479
-9.83427
-96.2937
-102.195
-107.462
-112.128
-116.225
-119.787
-122.841
-125.421
-127.553
-129.261
-130.577
-131.527
-132.132
-132.415
-132.399
-132.108
-131.563
-130.784
-129.787
-128.591
-127.212
-125.667
-123.973
-122.144
-120.195
-118.14
-115.989
-113.757
-111.452
-109.086
-106.668
-104.208
-101.714
-99.1947
-96.6572
-94.1087
-91.5558
-89.0046
-86.4607
-83.9293
-81.4151
-78.9227
-76.4559
-74.0185
-71.6138
-69.2447
-66.9139
-64.6239
-62.3767
-60.1743
-58.0183
-55.9101
-53.8509
-51.8418
-49.8835
-47.9767
-46.1218
-44.3194
-42.5695
-40.8722
-39.2276
-37.6355
-36.0956
-34.6078
-33.1715
-31.7863
-30.4518
-29.1673
-27.9323
-26.746
-25.6079
-24.5172
-23.4731
-22.4749
-21.5218
-20.6131
-19.748
-18.9257
-18.1456
-17.4067
-16.7084
-16.0499
-15.4306
-14.8497
-14.3067
-13.8008
-13.3315
-12.8982
-12.5003
-12.1375
-11.8091
-11.5148
-11.2542
-11.027
-10.8328
-10.6713
-10.5425
-10.446
-10.3817
-10.3496
-101.064
-107.258
-112.785
-117.683
-121.983
-125.722
-128.927
-131.634
-133.873
-135.665
-137.046
-138.043
-138.679
-138.975
-138.958
-138.653
-138.081
-137.263
-136.217
-134.961
-133.514
-131.893
-130.115
-128.195
-126.15
-123.993
-121.736
-119.392
-116.974
-114.49
-111.953
-109.371
-106.753
-104.109
-101.446
-98.7711
-96.0917
-93.4141
-90.7442
-88.0873
-85.4487
-82.8327
-80.2438
-77.6856
-75.1617
-72.6752
-70.229
-67.8255
-65.467
-63.1555
-60.8927
-58.6801
-56.5189
-54.4102
-52.3548
-50.3536
-48.4068
-46.5151
-44.6785
-42.8971
-41.171
-39.5
-37.8839
-36.3223
-34.8149
-33.3611
-31.9605
-30.6123
-29.3161
-28.0711
-26.8766
-25.7318
-24.636
-23.5883
-22.588
-21.6343
-20.7264
-19.8634
-19.0445
-18.269
-17.5361
-16.845
-16.195
-15.5854
-15.0154
-14.4845
-13.9919
-13.5372
-13.1196
-12.7388
-12.3942
-12.0853
-11.8118
-11.5733
-11.3695
-11.2
-11.0648
-10.9635
-10.896
-10.8623
-105.81
-112.294
-118.082
-123.209
-127.711
-131.625
-134.981
-137.816
-140.159
-142.036
-143.481
-144.525
-145.19
-145.501
-145.483
-145.163
-144.565
-143.708
-142.613
-141.299
-139.783
-138.086
-136.224
-134.215
-132.074
-129.815
-127.452
-124.999
-122.466
-119.866
-117.21
-114.506
-111.766
-108.998
-106.209
-103.409
-100.604
-97.8006
-95.0053
-92.2237
-89.4611
-86.7224
-84.0118
-81.3335
-78.6911
-76.0879
-73.5268
-71.0104
-68.5412
-66.1211
-63.7521
-61.4355
-59.1728
-56.9651
-54.8133
-52.718
-50.6799
-48.6993
-46.7765
-44.9115
-43.1043
-41.3548
-39.6628
-38.0279
-36.4497
-34.9276
-33.4612
-32.0498
-30.6927
-29.3893
-28.1386
-26.9401
-25.7928
-24.696
-23.6487
-22.6502
-21.6996
-20.7961
-19.9388
-19.1269
-18.3596
-17.636
-16.9555
-16.3173
-15.7205
-15.1647
-14.649
-14.1729
-13.7357
-13.337
-12.9762
-12.6528
-12.3665
-12.1168
-11.9033
-11.726
-11.5843
-11.4783
-11.4077
-11.3724
-110.53
-117.303
-123.349
-128.704
-133.408
-137.497
-141.002
-143.963
-146.411
-148.371
-149.881
-150.972
-151.667
-151.991
-151.972
-151.638
-151.013
-150.118
-148.974
-147.601
-146.018
-144.245
-142.301
-140.202
-137.965
-135.605
-133.137
-130.574
-127.929
-125.213
-122.438
-119.614
-116.751
-113.86
-110.947
-108.022
-105.091
-102.163
-99.2429
-96.3373
-93.4515
-90.5906
-87.7591
-84.9614
-82.2011
-79.4817
-76.8064
-74.1778
-71.5984
-69.0704
-66.5957
-64.1758
-61.8122
-59.506
-57.2582
-55.0695
-52.9405
-50.8715
-48.8629
-46.9147
-45.027
-43.1995
-41.432
-39.7241
-38.0755
-36.4856
-34.9538
-33.4794
-32.0618
-30.7002
-29.3938
-28.1417
-26.9433
-25.7975
-24.7036
-23.6605
-22.6675
-21.7237
-20.8282
-19.9801
-19.1785
-18.4227
-17.7118
-17.0451
-16.4217
-15.8411
-15.3024
-14.805
-14.3484
-13.9319
-13.555
-13.2172
-12.9181
-12.6572
-12.4343
-12.249
-12.1011
-11.9903
-11.9165
-11.8797
-115.222
-122.283
-128.585
-134.168
-139.071
-143.334
-146.988
-150.074
-152.626
-154.67
-156.244
-157.381
-158.105
-158.443
-158.424
-158.076
-157.424
-156.491
-155.299
-153.867
-152.217
-150.369
-148.342
-146.154
-143.822
-141.362
-138.789
-136.118
-133.36
-130.529
-127.636
-124.692
-121.708
-118.693
-115.657
-112.608
-109.553
-106.5
-103.456
-100.427
-97.4188
-94.4364
-91.4848
-88.5682
-85.6908
-82.856
-80.067
-77.3269
-74.638
-72.0027
-69.4229
-66.9003
-64.4363
-62.0322
-59.689
-57.4074
-55.1879
-53.0312
-50.9373
-48.9064
-46.9385
-45.0334
-43.1909
-41.4105
-39.6919
-38.0345
-36.4377
-34.9007
-33.4229
-32.0035
-30.6416
-29.3365
-28.0871
-26.8927
-25.7523
-24.665
-23.6299
-22.646
-21.7124
-20.8283
-19.9927
-19.2048
-18.4637
-17.7687
-17.1189
-16.5136
-15.952
-15.4335
-14.9575
-14.5233
-14.1304
-13.7783
-13.4665
-13.1946
-12.9622
-12.769
-12.6148
-12.4993
-12.4224
-12.384
-119.886
-127.233
-133.79
-139.599
-144.701
-149.135
-152.938
-156.149
-158.804
-160.931
-162.569
-163.751
-164.505
-164.857
-164.837
-164.474
-163.796
-162.826
-161.585
-160.095
-158.379
-156.456
-154.346
-152.07
-149.643
-147.084
-144.407
-141.627
-138.758
-135.812
-132.802
-129.739
-126.634
-123.498
-120.338
-117.166
-113.987
-110.811
-107.644
-104.492
-101.362
-98.259
-95.1878
-92.1533
-89.1593
-86.2098
-83.308
-80.4569
-77.6592
-74.9172
-72.2329
-69.6082
-67.0446
-64.5431
-62.105
-59.7311
-57.4218
-55.1777
-52.9991
-50.886
-48.8384
-46.8563
-44.9391
-43.0867
-41.2986
-39.574
-37.9126
-36.3134
-34.7758
-33.2989
-31.8819
-30.5239
-29.224
-27.9813
-26.7947
-25.6634
-24.5863
-23.5626
-22.5913
-21.6714
-20.8019
-19.9822
-19.2111
-18.4879
-17.8118
-17.182
-16.5977
-16.0583
-15.563
-15.1112
-14.7024
-14.336
-14.0116
-13.7286
-13.4868
-13.2859
-13.1254
-13.0052
-12.9252
-12.8853
-124.52
-132.151
-138.962
-144.996
-150.294
-154.9
-158.85
-162.185
-164.943
-167.152
-168.853
-170.081
-170.864
-171.229
-171.209
-170.832
-170.128
-169.12
-167.831
-166.284
-164.501
-162.503
-160.313
-157.948
-155.428
-152.77
-149.99
-147.102
-144.122
-141.062
-137.936
-134.754
-131.53
-128.272
-124.99
-121.695
-118.394
-115.094
-111.805
-108.531
-105.28
-102.057
-98.8674
-95.7155
-92.6059
-89.5423
-86.5283
-83.567
-80.6612
-77.8132
-75.0252
-72.299
-69.6362
-67.0381
-64.5058
-62.04
-59.6415
-57.3107
-55.0478
-52.8531
-50.7264
-48.6675
-46.6763
-44.7523
-42.895
-41.1038
-39.3781
-37.7171
-36.1201
-34.5861
-33.1143
-31.7039
-30.3537
-29.0629
-27.8305
-26.6554
-25.5367
-24.4735
-23.4646
-22.5091
-21.6061
-20.7546
-19.9537
-19.2026
-18.5004
-17.8462
-17.2393
-16.679
-16.1646
-15.6953
-15.2707
-14.8902
-14.5532
-14.2593
-14.0082
-13.7994
-13.6328
-13.508
-13.4249
-13.3834
-129.124
-137.037
-144.099
-150.356
-155.851
-160.627
-164.723
-168.181
-171.041
-173.331
-175.096
-176.369
-177.181
-177.56
-177.538
-177.148
-176.418
-175.372
-174.036
-172.432
-170.583
-168.511
-166.24
-163.788
-161.174
-158.418
-155.535
-152.541
-149.45
-146.277
-143.035
-139.736
-136.392
-133.014
-129.611
-126.194
-122.771
-119.35
-115.938
-112.544
-109.173
-105.83
-102.523
-99.2542
-96.0296
-92.8528
-89.7273
-86.6565
-83.6433
-80.69
-77.7989
-74.972
-72.2107
-69.5166
-66.8906
-64.3337
-61.8465
-59.4295
-57.083
-54.8071
-52.6017
-50.4668
-48.402
-46.4068
-44.4809
-42.6235
-40.8339
-39.1116
-37.4555
-35.8648
-34.3386
-32.876
-31.4759
-30.1374
-28.8594
-27.6409
-26.4809
-25.3783
-24.3321
-23.3413
-22.4049
-21.5219
-20.6914
-19.9125
-19.1843
-18.506
-17.8767
-17.2957
-16.7622
-16.2756
-15.8353
-15.4407
-15.0912
-14.7865
-14.5261
-14.3096
-14.1368
-14.0074
-13.9212
-13.8782
-133.696
-141.889
-149.201
-155.68
-161.369
-166.314
-170.555
-174.136
-177.097
-179.468
-181.295
-182.614
-183.454
-183.847
-183.824
-183.42
-182.664
-181.582
-180.198
-178.537
-176.622
-174.478
-172.125
-169.587
-166.881
-164.027
-161.042
-157.941
-154.742
-151.456
-148.1
-144.684
-141.221
-137.723
-134.2
-130.662
-127.117
-123.575
-120.043
-116.529
-113.038
-109.577
-106.153
-102.768
-99.4296
-96.1403
-92.9042
-89.7247
-86.6047
-83.5469
-80.5535
-77.6264
-74.7674
-71.9779
-69.2589
-66.6115
-64.0362
-61.5337
-59.1041
-56.7476
-54.4641
-52.2536
-50.1157
-48.0499
-46.0557
-44.1326
-42.2797
-40.4963
-38.7816
-37.1346
-35.5544
-34.04
-32.5903
-31.2044
-29.8812
-28.6195
-27.4184
-26.2768
-25.1936
-24.1677
-23.1981
-22.2839
-21.424
-20.6176
-19.8636
-19.1612
-18.5096
-17.908
-17.3557
-16.8519
-16.396
-15.9874
-15.6256
-15.3101
-15.0404
-14.8163
-14.6373
-14.5033
-14.4141
-14.3695
-138.234
-146.706
-154.266
-160.965
-166.847
-171.961
-176.345
-180.048
-183.109
-185.561
-187.45
-188.813
-189.682
-190.088
-190.065
-189.647
-188.865
-187.746
-186.315
-184.598
-182.618
-180.401
-177.969
-175.344
-172.546
-169.595
-166.509
-163.303
-159.995
-156.598
-153.127
-149.596
-146.016
-142.399
-138.756
-135.098
-131.433
-127.77
-124.119
-120.485
-116.875
-113.297
-109.756
-106.257
-102.805
-99.4041
-96.0582
-92.7707
-89.5448
-86.3832
-83.2881
-80.2617
-77.3056
-74.4214
-71.6101
-68.8728
-66.2102
-63.6226
-61.1105
-58.6741
-56.3131
-54.0275
-51.817
-49.6811
-47.6193
-45.6308
-43.715
-41.8711
-40.0982
-38.3953
-36.7614
-35.1956
-33.6967
-32.2638
-30.8956
-29.5911
-28.3492
-27.1689
-26.0488
-24.9881
-23.9857
-23.0404
-22.1514
-21.3175
-20.5379
-19.8117
-19.138
-18.516
-17.9449
-17.424
-16.9526
-16.5301
-16.156
-15.8298
-15.551
-15.3193
-15.1342
-14.9957
-14.9034
-14.8573
-142.739
-151.486
-159.293
-166.21
-172.284
-177.564
-182.092
-185.915
-189.076
-191.608
-193.558
-194.966
-195.863
-196.282
-196.259
-195.827
-195.02
-193.864
-192.387
-190.613
-188.569
-186.28
-183.768
-181.058
-178.169
-175.122
-171.935
-168.625
-165.209
-161.701
-158.117
-154.471
-150.774
-147.039
-143.278
-139.5
-135.716
-131.934
-128.163
-124.411
-120.684
-116.989
-113.333
-109.72
-106.155
-102.643
-99.1884
-95.7938
-92.4628
-89.1981
-86.0022
-82.8772
-79.8248
-76.8466
-73.9437
-71.1172
-68.3677
-65.6959
-63.102
-60.5861
-58.1482
-55.7881
-53.5056
-51.3001
-49.171
-47.1178
-45.1396
-43.2356
-41.4048
-39.6464
-37.9593
-36.3425
-34.7948
-33.3151
-31.9024
-30.5554
-29.2731
-28.0542
-26.8977
-25.8024
-24.7673
-23.7912
-22.8732
-22.0122
-21.2072
-20.4573
-19.7616
-19.1194
-18.5296
-17.9918
-17.505
-17.0688
-16.6825
-16.3457
-16.0578
-15.8185
-15.6274
-15.4844
-15.3891
-15.3415
-147.208
-156.23
-164.281
-171.414
-177.679
-183.124
-187.793
-191.736
-194.996
-197.608
-199.619
-201.071
-201.996
-202.428
-202.404
-201.959
-201.126
-199.934
-198.411
-196.582
-194.474
-192.112
-189.522
-186.727
-183.748
-180.605
-177.318
-173.905
-170.382
-166.764
-163.068
-159.307
-155.495
-151.643
-147.764
-143.868
-139.965
-136.065
-132.176
-128.306
-124.463
-120.653
-116.882
-113.155
-109.479
-105.857
-102.294
-98.7933
-95.358
-91.9911
-88.6951
-85.4722
-82.3243
-79.2528
-76.259
-73.344
-70.5085
-67.753
-65.0778
-62.4831
-59.9689
-57.535
-55.1809
-52.9064
-50.7107
-48.5931
-46.553
-44.5894
-42.7013
-40.8879
-39.1479
-37.4804
-35.8843
-34.3583
-32.9013
-31.5122
-30.1897
-28.9326
-27.7399
-26.6103
-25.5428
-24.5362
-23.5894
-22.7014
-21.8712
-21.0979
-20.3804
-19.718
-19.1098
-18.5551
-18.0531
-17.6033
-17.2049
-16.8575
-16.5606
-16.3138
-16.1167
-15.9692
-15.871
-15.8219
-151.642
-160.934
-169.228
-176.576
-183.029
-188.639
-193.449
-197.51
-200.868
-203.558
-205.63
-207.126
-208.079
-208.524
-208.499
-208.041
-207.183
-205.955
-204.386
-202.502
-200.33
-197.898
-195.23
-192.35
-189.281
-186.044
-182.658
-179.142
-175.513
-171.786
-167.979
-164.105
-160.178
-156.21
-152.214
-148.201
-144.18
-140.163
-136.157
-132.17
-128.211
-124.286
-120.401
-116.563
-112.776
-109.045
-105.375
-101.768
-98.2296
-94.7614
-91.3661
-88.0462
-84.8034
-81.6394
-78.5555
-75.5527
-72.6318
-69.7933
-67.0376
-64.3648
-61.7749
-59.2676
-56.8427
-54.4996
-52.2378
-50.0565
-47.9549
-45.9321
-43.9872
-42.1192
-40.3268
-38.6092
-36.9649
-35.393
-33.8921
-32.4611
-31.0988
-29.8039
-28.5753
-27.4117
-26.312
-25.2751
-24.2998
-23.3851
-22.5299
-21.7332
-20.9942
-20.3118
-19.6853
-19.1139
-18.5968
-18.1334
-17.723
-17.3651
-17.0593
-16.8051
-16.6021
-16.4501
-16.3489
-16.2984
-156.037
-165.6
-174.134
-181.695
-188.335
-194.107
-199.056
-203.235
-206.691
-209.459
-211.591
-213.13
-214.111
-214.569
-214.543
-214.071
-213.189
-211.925
-210.31
-208.372
-206.137
-203.634
-200.889
-197.926
-194.768
-191.437
-187.953
-184.335
-180.6
-176.766
-172.848
-168.862
-164.821
-160.738
-156.626
-152.497
-148.36
-144.226
-140.103
-136.001
-131.928
-127.889
-123.891
-119.942
-116.045
-112.206
-108.429
-104.718
-101.077
-97.5082
-94.0146
-90.5984
-87.2616
-84.0059
-80.8326
-77.7428
-74.7372
-71.8164
-68.9808
-66.2305
-63.5655
-60.9856
-58.4904
-56.0794
-53.752
-51.5075