/*--------------------------------*- C++ -*----------------------------------*\
| =========                 |                                                 |
| \\      /  F ield         | OpenFOAM: The Open Source CFD Toolbox           |
|  \\    /   O peration     | Version:  2406                                  |
|   \\  /    A nd           | Website:  www.openfoam.com                      |
|    \\/     M anipulation  |                                                 |
\*---------------------------------------------------------------------------*/
FoamFile
{
    version     2.0;
    format      ascii;
    arch        "LSB;label=32;scalar=64";
    class       volVectorField;
    location    "115";
    object      flux;
}
// * * * * * * * * * * * * * * * * * * * * * * * * * * * * * * * * * * * * * //

dimensions      [0 1 -1 1 0 0 0];

internalField   nonuniform List<vector> 
20000
(
(0.00108638 0.0463838 0)
(0.000972631 0.04844 0)
(0.000864594 0.0502742 0)
(0.000762088 0.0518982 0)
(0.000664766 0.0533222 0)
(0.000572454 0.0545569 0)
(0.000485237 0.0556122 0)
(0.000403215 0.0564981 0)
(0.000325581 0.0572246 0)
(0.000252218 0.0578 0)
(0.000183572 0.0582336 0)
(0.000119294 0.0585345 0)
(5.89215e-05 0.0587107 0)
(2.34481e-06 0.05877 0)
(-5.04156e-05 0.0587201 0)
(-9.9449e-05 0.0585684 0)
(-0.000144954 0.0583223 0)
(-0.00018714 0.0579887 0)
(-0.000226169 0.0575738 0)
(-0.000262163 0.057084 0)
(-0.00029523 0.0565252 0)
(-0.000325484 0.0559032 0)
(-0.000353052 0.0552234 0)
(-0.000378066 0.054491 0)
(-0.000400657 0.0537112 0)
(-0.000420954 0.0528885 0)
(-0.000439076 0.0520275 0)
(-0.000455137 0.0511323 0)
(-0.000469246 0.0502071 0)
(-0.000481509 0.0492555 0)
(-0.000492029 0.0482811 0)
(-0.000500903 0.0472875 0)
(-0.000508228 0.0462776 0)
(-0.000514097 0.0452547 0)
(-0.000518601 0.0442214 0)
(-0.000521826 0.0431804 0)
(-0.000523857 0.0421342 0)
(-0.000524773 0.0410851 0)
(-0.000524652 0.0400352 0)
(-0.000523569 0.0389866 0)
(-0.000521596 0.0379411 0)
(-0.000518799 0.0369004 0)
(-0.000515246 0.035866 0)
(-0.000510998 0.0348395 0)
(-0.000506115 0.0338222 0)
(-0.000500655 0.0328152 0)
(-0.000494671 0.0318197 0)
(-0.000488215 0.0308366 0)
(-0.000481337 0.0298669 0)
(-0.000474084 0.0289114 0)
(-0.0004665 0.0279707 0)
(-0.000458626 0.0270455 0)
(-0.000450504 0.0261363 0)
(-0.000442171 0.0252436 0)
(-0.000433663 0.0243677 0)
(-0.000425013 0.023509 0)
(-0.000416253 0.0226678 0)
(-0.000407414 0.0218441 0)
(-0.000398523 0.0210382 0)
(-0.000389608 0.0202501 0)
(-0.000380692 0.0194799 0)
(-0.0003718 0.0187275 0)
(-0.000362952 0.0179928 0)
(-0.000354171 0.0172758 0)
(-0.000345474 0.0165762 0)
(-0.00033688 0.0158939 0)
(-0.000328405 0.0152288 0)
(-0.000320064 0.0145804 0)
(-0.000311872 0.0139486 0)
(-0.000303843 0.013333 0)
(-0.000295987 0.0127333 0)
(-0.000288318 0.0121491 0)
(-0.000280844 0.0115801 0)
(-0.000273576 0.0110258 0)
(-0.000266523 0.0104858 0)
(-0.000259693 0.00995978 0)
(-0.000253092 0.00944714 0)
(-0.000246729 0.00894747 0)
(-0.000240608 0.00846029 0)
(-0.000234737 0.0079851 0)
(-0.000229119 0.0075214 0)
(-0.000223759 0.00706868 0)
(-0.000218663 0.00662642 0)
(-0.000213832 0.00619408 0)
(-0.000209272 0.00577114 0)
(-0.000204984 0.00535705 0)
(-0.000200972 0.00495126 0)
(-0.000197238 0.00455321 0)
(-0.000193784 0.00416235 0)
(-0.000190612 0.00377812 0)
(-0.000187723 0.00339995 0)
(-0.00018512 0.00302728 0)
(-0.000182803 0.00265952 0)
(-0.000180773 0.00229611 0)
(-0.000179032 0.00193647 0)
(-0.00017758 0.00158003 0)
(-0.000176417 0.0012262 0)
(-0.000175545 0.0008744 0)
(-0.000174964 0.000524058 0)
(-0.000174673 0.000174589 0)
(0.00325889 0.0463723 0)
(0.00291771 0.0484282 0)
(0.00259356 0.050262 0)
(0.00228591 0.0518854 0)
(0.00199399 0.0533089 0)
(0.00171754 0.0545433 0)
(0.0014559 0.0555986 0)
(0.00120924 0.0564843 0)
(0.000976417 0.0572103 0)
(0.000756808 0.0577857 0)
(0.000550863 0.0582194 0)
(0.000357789 0.0585202 0)
(0.000176611 0.0586962 0)
(6.99192e-06 0.0587554 0)
(-0.000151184 0.0587055 0)
(-0.000298262 0.058554 0)
(-0.000434805 0.058308 0)
(-0.00056139 0.0579744 0)
(-0.000678479 0.0575596 0)
(-0.000786443 0.0570699 0)
(-0.00088562 0.0565112 0)
(-0.000976365 0.0558893 0)
(-0.00105906 0.0552097 0)
(-0.0011341 0.0544776 0)
(-0.00120187 0.0536979 0)
(-0.00126276 0.0528755 0)
(-0.00131712 0.0520147 0)
(-0.0013653 0.0511197 0)
(-0.00140762 0.0501947 0)
(-0.00144441 0.0492433 0)
(-0.00147597 0.0482692 0)
(-0.00150259 0.0472758 0)
(-0.00152456 0.0462662 0)
(-0.00154217 0.0452435 0)
(-0.00155568 0.0442105 0)
(-0.00156535 0.0431697 0)
(-0.00157144 0.0421238 0)
(-0.00157419 0.041075 0)
(-0.00157383 0.0400254 0)
(-0.00157058 0.038977 0)
(-0.00156466 0.0379317 0)
(-0.00155627 0.0368913 0)
(-0.00154561 0.0358572 0)
(-0.00153287 0.0348309 0)
(-0.00151822 0.0338138 0)
(-0.00150184 0.0328071 0)
(-0.00148389 0.0318118 0)
(-0.00146452 0.030829 0)
(-0.00144389 0.0298596 0)
(-0.00142213 0.0289043 0)
(-0.00139938 0.0279638 0)
(-0.00137577 0.0270388 0)
(-0.0013514 0.0261299 0)
(-0.0013264 0.0252374 0)
(-0.00130088 0.0243617 0)
(-0.00127493 0.0235032 0)
(-0.00124866 0.0226622 0)
(-0.00122214 0.0218387 0)
(-0.00119547 0.021033 0)
(-0.00116873 0.0202451 0)
(-0.00114198 0.0194751 0)
(-0.00111531 0.0187229 0)
(-0.00108877 0.0179884 0)
(-0.00106243 0.0172715 0)
(-0.00103634 0.0165721 0)
(-0.00101056 0.01589 0)
(-0.000985133 0.015225 0)
(-0.000960114 0.0145768 0)
(-0.00093554 0.0139451 0)
(-0.000911453 0.0133297 0)
(-0.000887889 0.0127301 0)
(-0.000864882 0.0121461 0)
(-0.000842463 0.0115772 0)
(-0.000820661 0.0110231 0)
(-0.000799503 0.0104833 0)
(-0.000779014 0.00995732 0)
(-0.000759214 0.00944481 0)
(-0.000740125 0.00894526 0)
(-0.000721765 0.0084582 0)
(-0.000704152 0.00798313 0)
(-0.0006873 0.00751954 0)
(-0.000671223 0.00706694 0)
(-0.000655934 0.00662478 0)
(-0.000641444 0.00619256 0)
(-0.000627764 0.00576972 0)
(-0.000614902 0.00535573 0)
(-0.000602866 0.00495003 0)
(-0.000591665 0.00455209 0)
(-0.000581303 0.00416133 0)
(-0.000571788 0.00377719 0)
(-0.000563123 0.00339911 0)
(-0.000555314 0.00302653 0)
(-0.000548363 0.00265886 0)
(-0.000542275 0.00229554 0)
(-0.000537052 0.00193599 0)
(-0.000532696 0.00157964 0)
(-0.000529209 0.00122589 0)
(-0.000526592 0.000874184 0)
(-0.000524847 0.000523929 0)
(-0.000523975 0.000174546 0)
(0.00543079 0.0463493 0)
(0.00486225 0.0484042 0)
(0.00432174 0.0502373 0)
(0.00380904 0.0518598 0)
(0.00332264 0.0532828 0)
(0.00286214 0.0545164 0)
(0.00242626 0.0555711 0)
(0.00201489 0.0564564 0)
(0.00162696 0.057182 0)
(0.00126134 0.0577571 0)
(0.000918102 0.0581907 0)
(0.000596128 0.0584913 0)
(0.000294156 0.0586672 0)
(1.16154e-05 0.0587264 0)
(-0.000251864 0.0586765 0)
(-0.000496943 0.0585251 0)
(-0.000724528 0.0582793 0)
(-0.000935517 0.0579458 0)
(-0.00113065 0.0575312 0)
(-0.00131055 0.0570417 0)
(-0.0014758 0.0564833 0)
(-0.001627 0.0558617 0)
(-0.00176479 0.0551825 0)
(-0.00188984 0.0544507 0)
(-0.00200278 0.0536715 0)
(-0.00210425 0.0528494 0)
(-0.00219484 0.051989 0)
(-0.00227513 0.0510945 0)
(-0.00234566 0.0501699 0)
(-0.00240696 0.049219 0)
(-0.00245954 0.0482454 0)
(-0.0025039 0.0472525 0)
(-0.00254051 0.0462434 0)
(-0.00256985 0.0452212 0)
(-0.00259237 0.0441886 0)
(-0.00260849 0.0431484 0)
(-0.00261864 0.042103 0)
(-0.00262322 0.0410547 0)
(-0.00262261 0.0400056 0)
(-0.0026172 0.0389578 0)
(-0.00260733 0.037913 0)
(-0.00259336 0.0368731 0)
(-0.00257559 0.0358395 0)
(-0.00255436 0.0348137 0)
(-0.00252995 0.0337971 0)
(-0.00250266 0.0327909 0)
(-0.00247274 0.0317961 0)
(-0.00244047 0.0308138 0)
(-0.00240609 0.0298448 0)
(-0.00236984 0.02889 0)
(-0.00233192 0.02795 0)
(-0.00229257 0.0270255 0)
(-0.00225197 0.026117 0)
(-0.00221031 0.0252249 0)
(-0.00216778 0.0243497 0)
(-0.00212454 0.0234916 0)
(-0.00208075 0.022651 0)
(-0.00203657 0.021828 0)
(-0.00199212 0.0210227 0)
(-0.00194756 0.0202352 0)
(-0.00190299 0.0194655 0)
(-0.00185854 0.0187136 0)
(-0.00181431 0.0179795 0)
(-0.00177042 0.017263 0)
(-0.00172694 0.0165639 0)
(-0.00168398 0.0158822 0)
(-0.00164162 0.0152175 0)
(-0.00159993 0.0145696 0)
(-0.00155898 0.0139383 0)
(-0.00151884 0.0133231 0)
(-0.00147957 0.0127239 0)
(-0.00144123 0.0121401 0)
(-0.00140387 0.0115715 0)
(-0.00136754 0.0110176 0)
(-0.00133229 0.0104781 0)
(-0.00129814 0.00995241 0)
(-0.00126515 0.00944015 0)
(-0.00123334 0.00894085 0)
(-0.00120274 0.00845403 0)
(-0.00117339 0.00797919 0)
(-0.00114531 0.00751583 0)
(-0.00111852 0.00706345 0)
(-0.00109304 0.00662151 0)
(-0.0010689 0.0061895 0)
(-0.0010461 0.00576687 0)
(-0.00102467 0.00535308 0)
(-0.00100461 0.00494759 0)
(-0.000985946 0.00454984 0)
(-0.00096868 0.00415927 0)
(-0.000952823 0.00377533 0)
(-0.000938384 0.00339744 0)
(-0.000925371 0.00302504 0)
(-0.000913789 0.00265755 0)
(-0.000903643 0.00229441 0)
(-0.000894939 0.00193504 0)
(-0.00088768 0.00157886 0)
(-0.00088187 0.00122529 0)
(-0.00087751 0.000873753 0)
(-0.000874602 0.00052367 0)
(-0.000873148 0.00017446 0)
(0.00760124 0.0463149 0)
(0.00680574 0.048368 0)
(0.00604915 0.0502 0)
(0.00533137 0.0518214 0)
(0.00465055 0.0532433 0)
(0.00400588 0.0544761 0)
(0.00339592 0.0555299 0)
(0.00282013 0.0564145 0)
(0.00227718 0.0571397 0)
(0.00176556 0.0577144 0)
(0.00128506 0.0581477 0)
(0.00083427 0.058448 0)
(0.00041162 0.0586237 0)
(1.62653e-05 0.0586828 0)
(-0.000352444 0.0586331 0)
(-0.000695482 0.0584818 0)
(-0.00101408 0.0582361 0)
(-0.00130943 0.0579029 0)
(-0.00158257 0.0574886 0)
(-0.00183435 0.0569995 0)
(-0.00206562 0.0564415 0)
(-0.00227723 0.0558204 0)
(-0.00247008 0.0551416 0)
(-0.0026451 0.0544104 0)
(-0.00280319 0.0536317 0)
(-0.00294521 0.0528103 0)
(-0.00307202 0.0519505 0)
(-0.00318439 0.0510567 0)
(-0.00328311 0.0501328 0)
(-0.00336891 0.0491826 0)
(-0.00344251 0.0482097 0)
(-0.00350459 0.0472175 0)
(-0.00355584 0.0462091 0)
(-0.00359691 0.0451877 0)
(-0.00362842 0.0441559 0)
(-0.00365098 0.0431165 0)
(-0.00366519 0.0420718 0)
(-0.0036716 0.0410243 0)
(-0.00367075 0.039976 0)
(-0.00366318 0.0389289 0)
(-0.00364937 0.0378849 0)
(-0.0036298 0.0368457 0)
(-0.00360494 0.0358129 0)
(-0.00357522 0.0347879 0)
(-0.00354106 0.0337721 0)
(-0.00350285 0.0327666 0)
(-0.00346099 0.0317726 0)
(-0.00341582 0.030791 0)
(-0.0033677 0.0298227 0)
(-0.00331695 0.0288686 0)
(-0.00326389 0.0279293 0)
(-0.0032088 0.0270055 0)
(-0.00315197 0.0260976 0)
(-0.00309367 0.0252062 0)
(-0.00303414 0.0243317 0)
(-0.00297362 0.0234743 0)
(-0.00291234 0.0226342 0)
(-0.00285049 0.0218118 0)
(-0.00278829 0.0210071 0)
(-0.00272591 0.0202202 0)
(-0.00266353 0.0194511 0)
(-0.00260131 0.0186998 0)
(-0.00253941 0.0179662 0)
(-0.00247797 0.0172502 0)
(-0.00241713 0.0165517 0)
(-0.002357 0.0158704 0)
(-0.0022977 0.0152062 0)
(-0.00223934 0.0145588 0)
(-0.00218203 0.0139279 0)
(-0.00212585 0.0133133 0)
(-0.00207089 0.0127144 0)
(-0.00201723 0.0121311 0)
(-0.00196494 0.0115629 0)
(-0.00191409 0.0110095 0)
(-0.00186474 0.0104703 0)
(-0.00181695 0.00994504 0)
(-0.00177077 0.00943316 0)
(-0.00172625 0.00893423 0)
(-0.00168343 0.00844777 0)
(-0.00164235 0.00797328 0)
(-0.00160304 0.00751027 0)
(-0.00156554 0.00705822 0)
(-0.00152988 0.00661661 0)
(-0.00149609 0.00618492 0)
(-0.00146418 0.0057626 0)
(-0.00143418 0.00534912 0)
(-0.00140611 0.00494393 0)
(-0.00137998 0.00454647 0)
(-0.00135582 0.00415619 0)
(-0.00133362 0.00377253 0)
(-0.00131341 0.00339492 0)
(-0.0012952 0.0030228 0)
(-0.00127899 0.00265558 0)
(-0.00126479 0.00229271 0)
(-0.00125261 0.00193361 0)
(-0.00124245 0.00157769 0)
(-0.00123431 0.00122438 0)
(-0.00122821 0.000873106 0)
(-0.00122414 0.000523283 0)
(-0.00122211 0.000174331 0)
(0.00976953 0.0462696 0)
(0.0087473 0.0483202 0)
(0.00777516 0.0501503 0)
(0.0068524 0.0517702 0)
(0.0059773 0.0531907 0)
(0.00514866 0.0544222 0)
(0.00436475 0.055475 0)
(0.00362471 0.0563588 0)
(0.00292684 0.0570833 0)
(0.00226931 0.0576574 0)
(0.00165167 0.0580902 0)
(0.0010722 0.0583902 0)
(0.000528999 0.0585658 0)
(2.09372e-05 0.0586249 0)
(-0.000452921 0.0585752 0)
(-0.00089385 0.058424 0)
(-0.00130339 0.0581786 0)
(-0.00168304 0.0578457 0)
(-0.0020341 0.0574318 0)
(-0.0023577 0.0569432 0)
(-0.00265492 0.0563857 0)
(-0.00292689 0.0557652 0)
(-0.00317476 0.0550871 0)
(-0.00339971 0.0543566 0)
(-0.0036029 0.0535787 0)
(-0.00378545 0.0527581 0)
(-0.00394844 0.0518992 0)
(-0.00409288 0.0510062 0)
(-0.00421976 0.0500832 0)
(-0.00433004 0.049134 0)
(-0.00442463 0.0481621 0)
(-0.00450443 0.0471708 0)
(-0.0045703 0.0461635 0)
(-0.00462308 0.0451431 0)
(-0.00466357 0.0441123 0)
(-0.00469258 0.0430739 0)
(-0.00471083 0.0420303 0)
(-0.00471907 0.0409838 0)
(-0.00471799 0.0399365 0)
(-0.00470825 0.0388905 0)
(-0.0046905 0.0378475 0)
(-0.00466535 0.0368094 0)
(-0.0046334 0.0357776 0)
(-0.0045952 0.0347536 0)
(-0.00455129 0.0337387 0)
(-0.00450219 0.0327342 0)
(-0.00444838 0.0317412 0)
(-0.00439032 0.0307606 0)
(-0.00432847 0.0297933 0)
(-0.00426325 0.0288401 0)
(-0.00419504 0.0279017 0)
(-0.00412424 0.0269788 0)
(-0.00405121 0.0260718 0)
(-0.00397627 0.0251813 0)
(-0.00389976 0.0243076 0)
(-0.00382197 0.0234511 0)
(-0.0037432 0.0226119 0)
(-0.00366371 0.0217903 0)
(-0.00358376 0.0209863 0)
(-0.00350358 0.0202002 0)
(-0.00342341 0.0194319 0)
(-0.00334344 0.0186813 0)
(-0.00326389 0.0179484 0)
(-0.00318492 0.0172331 0)
(-0.00310671 0.0165353 0)
(-0.00302943 0.0158547 0)
(-0.00295321 0.0151912 0)
(-0.00287821 0.0145444 0)
(-0.00280454 0.0139142 0)
(-0.00273234 0.0133001 0)
(-0.0026617 0.0127019 0)
(-0.00259273 0.0121191 0)
(-0.00252552 0.0115515 0)
(-0.00246016 0.0109986 0)
(-0.00239674 0.01046 0)
(-0.00233531 0.00993521 0)
(-0.00227596 0.00942384 0)
(-0.00221873 0.0089254 0)
(-0.00216369 0.00843942 0)
(-0.00211089 0.0079654 0)
(-0.00206037 0.00750285 0)
(-0.00201218 0.00705125 0)
(-0.00196635 0.00661007 0)
(-0.00192291 0.00617881 0)
(-0.0018819 0.00575691 0)
(-0.00184334 0.00534384 0)
(-0.00180726 0.00493904 0)
(-0.00177368 0.00454198 0)
(-0.00174262 0.00415209 0)
(-0.00171409 0.0037688 0)
(-0.00168812 0.00339157 0)
(-0.00166471 0.00301981 0)
(-0.00164387 0.00265296 0)
(-0.00162562 0.00229045 0)
(-0.00160996 0.0019317 0)
(-0.0015969 0.00157613 0)
(-0.00158645 0.00122317 0)
(-0.00157861 0.000872243 0)
(-0.00157338 0.000522766 0)
(-0.00157076 0.000174159 0)
(0.0119354 0.0462125 0)
(0.0106865 0.0482607 0)
(0.00949911 0.0500884 0)
(0.00837171 0.0517062 0)
(0.0073026 0.0531249 0)
(0.00629021 0.054355 0)
(0.00533254 0.0554065 0)
(0.0044284 0.0562892 0)
(0.00357576 0.0570128 0)
(0.00277248 0.0575862 0)
(0.00201786 0.0580184 0)
(0.00130987 0.0583181 0)
(0.000646265 0.0584934 0)
(2.56183e-05 0.0585525 0)
(-0.000553281 0.0585028 0)
(-0.001092 0.0583519 0)
(-0.00159239 0.0581068 0)
(-0.00205625 0.0577743 0)
(-0.00248514 0.0573608 0)
(-0.00288046 0.0568728 0)
(-0.00324356 0.056316 0)
(-0.00357582 0.0556963 0)
(-0.00387864 0.0550191 0)
(-0.00415347 0.0542895 0)
(-0.00440172 0.0535126 0)
(-0.00462476 0.0526929 0)
(-0.00482388 0.0518351 0)
(-0.00500035 0.0509432 0)
(-0.00515537 0.0500214 0)
(-0.0052901 0.0490733 0)
(-0.00540566 0.0481026 0)
(-0.00550315 0.0471126 0)
(-0.00558362 0.0461065 0)
(-0.0056481 0.0450873 0)
(-0.00569758 0.0440578 0)
(-0.00573301 0.0430207 0)
(-0.00575532 0.0419784 0)
(-0.00576538 0.0409331 0)
(-0.00576406 0.0398872 0)
(-0.00575216 0.0388424 0)
(-0.00573048 0.0378008 0)
(-0.00569975 0.0367639 0)
(-0.00566071 0.0357334 0)
(-0.00561404 0.0347106 0)
(-0.0055604 0.0336971 0)
(-0.00550041 0.0326938 0)
(-0.00543467 0.031702 0)
(-0.00536374 0.0307226 0)
(-0.00528818 0.0297564 0)
(-0.00520849 0.0288044 0)
(-0.00512517 0.0278672 0)
(-0.00503867 0.0269455 0)
(-0.00494944 0.0260396 0)
(-0.00485789 0.0251502 0)
(-0.00476441 0.0242776 0)
(-0.00466938 0.0234221 0)
(-0.00457314 0.0225839 0)
(-0.00447603 0.0217633 0)
(-0.00437835 0.0209604 0)
(-0.0042804 0.0201752 0)
(-0.00418245 0.0194078 0)
(-0.00408475 0.0186582 0)
(-0.00398755 0.0179262 0)
(-0.00389107 0.0172118 0)
(-0.00379553 0.0165149 0)
(-0.00370111 0.0158351 0)
(-0.003608 0.0151724 0)
(-0.00351636 0.0145265 0)
(-0.00342637 0.013897 0)
(-0.00333815 0.0132837 0)
(-0.00325185 0.0126862 0)
(-0.00316758 0.0121042 0)
(-0.00308548 0.0115373 0)
(-0.00300563 0.010985 0)
(-0.00292814 0.0104471 0)
(-0.00285309 0.00992294 0)
(-0.00278058 0.0094122 0)
(-0.00271067 0.00891438 0)
(-0.00264343 0.00842899 0)
(-0.00257892 0.00795556 0)
(-0.0025172 0.00749358 0)
(-0.00245832 0.00704253 0)
(-0.00240232 0.00660191 0)
(-0.00234925 0.00617117 0)
(-0.00229915 0.00574979 0)
(-0.00225204 0.00533723 0)
(-0.00220797 0.00493294 0)
(-0.00216694 0.00453637 0)
(-0.00212899 0.00414696 0)
(-0.00209414 0.00376415 0)
(-0.00206241 0.00338738 0)
(-0.00203381 0.00301608 0)
(-0.00200835 0.00264968 0)
(-0.00198605 0.00228762 0)
(-0.00196692 0.00192931 0)
(-0.00195097 0.00157418 0)
(-0.0019382 0.00122166 0)
(-0.00192862 0.000871166 0)
(-0.00192223 0.00052212 0)
(-0.00191903 0.000173943 0)
(0.0140983 0.0461439 0)
(0.0126231 0.0481892 0)
(0.0112206 0.0500141 0)
(0.00988896 0.0516295 0)
(0.0086261 0.0530461 0)
(0.00743023 0.0542744 0)
(0.006299 0.0553243 0)
(0.00523097 0.0562057 0)
(0.00422379 0.0569282 0)
(0.00327496 0.0575007 0)
(0.00238356 0.0579323 0)
(0.00154723 0.0582315 0)
(0.000763382 0.0584067 0)
(3.02983e-05 0.0584656 0)
(-0.000653508 0.058416 0)
(-0.00128989 0.0582653 0)
(-0.00188101 0.0580205 0)
(-0.00242895 0.0576885 0)
(-0.00293557 0.0572757 0)
(-0.00340252 0.0567884 0)
(-0.0038314 0.0562325 0)
(-0.00422386 0.0556137 0)
(-0.00458156 0.0549374 0)
(-0.00490621 0.0542089 0)
(-0.00519946 0.0534332 0)
(-0.00546292 0.0526148 0)
(-0.00569814 0.0517582 0)
(-0.0059066 0.0508676 0)
(-0.00608971 0.0499472 0)
(-0.00624885 0.0490005 0)
(-0.00638536 0.0480312 0)
(-0.00650051 0.0470427 0)
(-0.00659557 0.0460381 0)
(-0.00667174 0.0450204 0)
(-0.00673018 0.0439924 0)
(-0.00677203 0.0429568 0)
(-0.00679838 0.0419161 0)
(-0.00681027 0.0408724 0)
(-0.0068087 0.039828 0)
(-0.00679465 0.0387848 0)
(-0.00676904 0.0377447 0)
(-0.00673275 0.0367093 0)
(-0.00668663 0.0356803 0)
(-0.0066315 0.0346591 0)
(-0.00656814 0.0336471 0)
(-0.00649727 0.0326453 0)
(-0.00641962 0.0316549 0)
(-0.00633584 0.030677 0)
(-0.00624658 0.0297123 0)
(-0.00615245 0.0287617 0)
(-0.00605403 0.0278259 0)
(-0.00595185 0.0269055 0)
(-0.00584645 0.026001 0)
(-0.0057383 0.0251129 0)
(-0.00562789 0.0242416 0)
(-0.00551563 0.0233873 0)
(-0.00540195 0.0225504 0)
(-0.00528724 0.021731 0)
(-0.00517186 0.0209293 0)
(-0.00505615 0.0201453 0)
(-0.00494045 0.019379 0)
(-0.00482505 0.0186305 0)
(-0.00471024 0.0178996 0)
(-0.00459627 0.0171863 0)
(-0.00448341 0.0164904 0)
(-0.00437188 0.0158117 0)
(-0.00426189 0.0151499 0)
(-0.00415365 0.0145049 0)
(-0.00404734 0.0138764 0)
(-0.00394314 0.013264 0)
(-0.00384119 0.0126674 0)
(-0.00374166 0.0120862 0)
(-0.00364467 0.0115201 0)
(-0.00355035 0.0109687 0)
(-0.00345882 0.0104316 0)
(-0.00337017 0.00990821 0)
(-0.00328452 0.00939823 0)
(-0.00320194 0.00890115 0)
(-0.00312251 0.00841649 0)
(-0.00304631 0.00794376 0)
(-0.0029734 0.00748246 0)
(-0.00290385 0.00703208 0)
(-0.00283771 0.00659211 0)
(-0.00277502 0.00616202 0)
(-0.00271584 0.00574126 0)
(-0.00266019 0.00532931 0)
(-0.00260813 0.00492562 0)
(-0.00255966 0.00452964 0)
(-0.00251484 0.0041408 0)
(-0.00247367 0.00375856 0)
(-0.00243619 0.00338235 0)
(-0.0024024 0.0030116 0)
(-0.00237233 0.00264575 0)
(-0.002346 0.00228422 0)
(-0.0023234 0.00192645 0)
(-0.00230455 0.00157185 0)
(-0.00228947 0.00121985 0)
(-0.00227815 0.000869873 0)
(-0.0022706 0.000521345 0)
(-0.00226682 0.000173685 0)
(0.0162579 0.0460638 0)
(0.0145567 0.0481057 0)
(0.0129394 0.0499274 0)
(0.0114038 0.05154 0)
(0.00994747 0.0529542 0)
(0.0085684 0.0541803 0)
(0.0072639 0.0552284 0)
(0.00603225 0.0561083 0)
(0.00487076 0.0568295 0)
(0.00377663 0.0574011 0)
(0.00274868 0.0578319 0)
(0.00178422 0.0581306 0)
(0.000880317 0.0583055 0)
(3.49704e-05 0.0583643 0)
(-0.000753578 0.0583148 0)
(-0.00148747 0.0581643 0)
(-0.00216917 0.05792 0)
(-0.00280106 0.0575886 0)
(-0.00338527 0.0571765 0)
(-0.00392373 0.05669 0)
(-0.00441829 0.056135 0)
(-0.00487086 0.0555173 0)
(-0.00528335 0.0548422 0)
(-0.00565773 0.054115 0)
(-0.00599591 0.0533406 0)
(-0.00629974 0.0525236 0)
(-0.00657099 0.0516685 0)
(-0.00681138 0.0507795 0)
(-0.00702254 0.0498606 0)
(-0.00720607 0.0489156 0)
(-0.00736348 0.047948 0)
(-0.00749627 0.0469611 0)
(-0.00760589 0.0459583 0)
(-0.00769372 0.0449424 0)
(-0.00776112 0.0439162 0)
(-0.00780938 0.0428824 0)
(-0.00783977 0.0418434 0)
(-0.00785348 0.0408016 0)
(-0.00785167 0.039759 0)
(-0.00783547 0.0387176 0)
(-0.00780593 0.0376793 0)
(-0.00776408 0.0366457 0)
(-0.0077109 0.0356185 0)
(-0.00764733 0.0345991 0)
(-0.00757426 0.0335887 0)
(-0.00749254 0.0325887 0)
(-0.00740298 0.0316001 0)
(-0.00730637 0.0306238 0)
(-0.00720344 0.0296608 0)
(-0.00709489 0.0287119 0)
(-0.00698139 0.0277777 0)
(-0.00686357 0.0268589 0)
(-0.00674201 0.0259559 0)
(-0.00661731 0.0250694 0)
(-0.00648997 0.0241996 0)
(-0.00636052 0.0233468 0)
(-0.00622943 0.0225114 0)
(-0.00609715 0.0216934 0)
(-0.00596409 0.020893 0)
(-0.00583066 0.0201104 0)
(-0.00569724 0.0193455 0)
(-0.00556416 0.0185982 0)
(-0.00543176 0.0178686 0)
(-0.00530034 0.0171565 0)
(-0.00517019 0.0164618 0)
(-0.00504157 0.0157843 0)
(-0.00491474 0.0151237 0)
(-0.00478991 0.0144798 0)
(-0.00466732 0.0138523 0)
(-0.00454715 0.013241 0)
(-0.00442959 0.0126454 0)
(-0.00431481 0.0120653 0)
(-0.00420297 0.0115002 0)
(-0.0040942 0.0109497 0)
(-0.00398865 0.0104135 0)
(-0.00388642 0.00989105 0)
(-0.00378765 0.00938195 0)
(-0.00369241 0.00888573 0)
(-0.00360082 0.0084019 0)
(-0.00351295 0.00792999 0)
(-0.00342887 0.0074695 0)
(-0.00334867 0.0070199 0)
(-0.00327239 0.00658069 0)
(-0.0032001 0.00615134 0)
(-0.00313185 0.00573132 0)
(-0.00306769 0.00532008 0)
(-0.00300764 0.00491709 0)
(-0.00295176 0.00452179 0)
(-0.00290007 0.00413363 0)
(-0.00285259 0.00375205 0)
(-0.00280937 0.00337649 0)
(-0.00277041 0.00300639 0)
(-0.00273573 0.00264117 0)
(-0.00270536 0.00228027 0)
(-0.0026793 0.00192311 0)
(-0.00265757 0.00156912 0)
(-0.00264017 0.00121773 0)
(-0.00262712 0.000868366 0)
(-0.00261841 0.000520442 0)
(-0.00261406 0.000173384 0)
(0.0184135 0.0459724 0)
(0.0164868 0.0480103 0)
(0.014655 0.0498284 0)
(0.0129158 0.0514379 0)
(0.0112664 0.0528492 0)
(0.00970446 0.0540729 0)
(0.00822701 0.0551189 0)
(0.00683204 0.0559971 0)
(0.00551654 0.0567168 0)
(0.00427738 0.0572873 0)
(0.00311313 0.0577173 0)
(0.00202077 0.0580154 0)
(0.000997035 0.0581899 0)
(3.96308e-05 0.0582486 0)
(-0.000853468 0.0581992 0)
(-0.00168469 0.058049 0)
(-0.0024568 0.0578052 0)
(-0.00317248 0.0574744 0)
(-0.00383414 0.0570631 0)
(-0.00444397 0.0565776 0)
(-0.00500409 0.0560237 0)
(-0.00551665 0.0554072 0)
(-0.00598384 0.0547335 0)
(-0.00640786 0.0540077 0)
(-0.00679088 0.0532348 0)
(-0.007135 0.0524195 0)
(-0.00744223 0.0515661 0)
(-0.00771449 0.0506789 0)
(-0.00795365 0.0497618 0)
(-0.0081615 0.0488186 0)
(-0.00833979 0.0478529 0)
(-0.00849019 0.046868 0)
(-0.00861434 0.0458672 0)
(-0.00871381 0.0448533 0)
(-0.00879015 0.0438291 0)
(-0.00884481 0.0427974 0)
(-0.00887922 0.0417605 0)
(-0.00889475 0.0407207 0)
(-0.0088927 0.0396801 0)
(-0.00887435 0.0386408 0)
(-0.00884089 0.0376046 0)
(-0.0087935 0.0365731 0)
(-0.00873327 0.0355479 0)
(-0.00866127 0.0345305 0)
(-0.0085785 0.0335222 0)
(-0.00848595 0.0325241 0)
(-0.00838452 0.0315374 0)
(-0.0082751 0.0305631 0)
(-0.00815853 0.029602 0)
(-0.00803559 0.0286549 0)
(-0.00790703 0.0277226 0)
(-0.00777359 0.0268056 0)
(-0.00763592 0.0259045 0)
(-0.00749467 0.0250197 0)
(-0.00735046 0.0241516 0)
(-0.00720385 0.0233005 0)
(-0.00705537 0.0224667 0)
(-0.00690555 0.0216504 0)
(-0.00675485 0.0208516 0)
(-0.00660373 0.0200705 0)
(-0.00645262 0.0193071 0)
(-0.00630189 0.0185614 0)
(-0.00615194 0.0178332 0)
(-0.00600309 0.0171225 0)
(-0.00585569 0.0164292 0)
(-0.00571002 0.015753 0)
(-0.00556637 0.0150937 0)
(-0.005425 0.0144511 0)
(-0.00528615 0.0138249 0)
(-0.00515005 0.0132147 0)
(-0.0050169 0.0126203 0)
(-0.0048869 0.0120414 0)
(-0.00476023 0.0114774 0)
(-0.00463704 0.010928 0)
(-0.00451749 0.0103928 0)
(-0.00440171 0.00987144 0)
(-0.00428984 0.00936335 0)
(-0.00418198 0.00886811 0)
(-0.00407824 0.00838525 0)
(-0.00397872 0.00791427 0)
(-0.0038835 0.00745469 0)
(-0.00379266 0.00700598 0)
(-0.00370627 0.00656764 0)
(-0.0036244 0.00613914 0)
(-0.0035471 0.00571995 0)
(-0.00347442 0.00530953 0)
(-0.00340642 0.00490734 0)
(-0.00334312 0.00451282 0)
(-0.00328458 0.00412543 0)
(-0.00323081 0.00374461 0)
(-0.00318185 0.0033698 0)
(-0.00313773 0.00300043 0)
(-0.00309846 0.00263593 0)
(-0.00306405 0.00227574 0)
(-0.00303454 0.0019193 0)
(-0.00300993 0.00156601 0)
(-0.00299022 0.00121532 0)
(-0.00297544 0.000866644 0)
(-0.00296558 0.00051941 0)
(-0.00296065 0.000173041 0)
(0.0205646 0.0458698 0)
(0.0184127 0.0479031 0)
(0.016367 0.0497172 0)
(0.0144246 0.051323 0)
(0.0125825 0.0527312 0)
(0.0108381 0.0539522 0)
(0.00918808 0.0549959 0)
(0.00763014 0.055872 0)
(0.00616096 0.0565902 0)
(0.00477708 0.0571594 0)
(0.00347682 0.0575884 0)
(0.00225682 0.0578859 0)
(0.00111351 0.05806 0)
(4.42774e-05 0.0581185 0)
(-0.000953151 0.0580692 0)
(-0.0018815 0.0579194 0)
(-0.00274383 0.0576761 0)
(-0.00354312 0.057346 0)
(-0.00428206 0.0569357 0)
(-0.00496311 0.0564512 0)
(-0.00558865 0.0558986 0)
(-0.00616107 0.0552835 0)
(-0.00668284 0.0546113 0)
(-0.0071564 0.0538871 0)
(-0.00758418 0.053116 0)
(-0.0079685 0.0523024 0)
(-0.00831162 0.0514509 0)
(-0.00861569 0.0505657 0)
(-0.00888279 0.0496506 0)
(-0.00911493 0.0487096 0)
(-0.00931404 0.047746 0)
(-0.00948201 0.0467634 0)
(-0.00962066 0.0457648 0)
(-0.00973175 0.0447531 0)
(-0.009817 0.0437313 0)
(-0.00987805 0.0427018 0)
(-0.00991648 0.0416672 0)
(-0.00993382 0.0406297 0)
(-0.00993154 0.0395915 0)
(-0.00991104 0.0385545 0)
(-0.00987368 0.0375206 0)
(-0.00982074 0.0364914 0)
(-0.00975348 0.0354685 0)
(-0.00967307 0.0344534 0)
(-0.00958064 0.0334473 0)
(-0.00947727 0.0324515 0)
(-0.009364 0.031467 0)
(-0.00924179 0.0304948 0)
(-0.0091116 0.0295359 0)
(-0.00897429 0.028591 0)
(-0.00883072 0.0276607 0)
(-0.00868169 0.0267457 0)
(-0.00852794 0.0258466 0)
(-0.00837019 0.0249638 0)
(-0.00820913 0.0240977 0)
(-0.00804539 0.0232485 0)
(-0.00787957 0.0224166 0)
(-0.00771225 0.021602 0)
(-0.00754395 0.0208051 0)
(-0.00737518 0.0200257 0)
(-0.0072064 0.019264 0)
(-0.00703807 0.0185199 0)
(-0.0068706 0.0177934 0)
(-0.00670437 0.0170843 0)
(-0.00653974 0.0163925 0)
(-0.00637705 0.0157178 0)
(-0.00621662 0.01506 0)
(-0.00605874 0.0144188 0)
(-0.00590367 0.013794 0)
(-0.00575167 0.0131852 0)
(-0.00560297 0.0125922 0)
(-0.00545778 0.0120145 0)
(-0.00531631 0.0114517 0)
(-0.00517873 0.0109036 0)
(-0.00504522 0.0103696 0)
(-0.00491592 0.00984939 0)
(-0.00479097 0.00934244 0)
(-0.00467051 0.00884831 0)
(-0.00455466 0.00836652 0)
(-0.00444351 0.0078966 0)
(-0.00433716 0.00743804 0)
(-0.00423571 0.00699034 0)
(-0.00413923 0.00655298 0)
(-0.00404779 0.00612543 0)
(-0.00396146 0.00570718 0)
(-0.0038803 0.00529768 0)
(-0.00380435 0.00489638 0)
(-0.00373366 0.00450275 0)
(-0.00366828 0.00411622 0)
(-0.00360823 0.00373625 0)
(-0.00355355 0.00336227 0)
(-0.00350427 0.00299373 0)
(-0.00346041 0.00263004 0)
(-0.00342199 0.00227066 0)
(-0.00338903 0.00191501 0)
(-0.00336154 0.00156251 0)
(-0.00333954 0.00121261 0)
(-0.00332303 0.000864709 0)
(-0.00331202 0.00051825 0)
(-0.00330651 0.000172654 0)
(0.0227105 0.0457558 0)
(0.0203342 0.047784 0)
(0.018075 0.0495936 0)
(0.0159298 0.0511955 0)
(0.0138955 0.0526002 0)
(0.0119691 0.0538181 0)
(0.0101469 0.0548592 0)
(0.00842636 0.0557332 0)
(0.00680387 0.0564496 0)
(0.0052756 0.0570173 0)
(0.00383964 0.0574453 0)
(0.00249232 0.057742 0)
(0.0012297 0.0579157 0)
(4.89094e-05 0.0579741 0)
(-0.0010526 0.0579249 0)
(-0.00207784 0.0577755 0)
(-0.00303018 0.0575328 0)
(-0.00391288 0.0572035 0)
(-0.00472892 0.0567942 0)
(-0.00548102 0.056311 0)
(-0.00617182 0.0557597 0)
(-0.00680398 0.0551461 0)
(-0.0073802 0.0544756 0)
(-0.00790318 0.0537533 0)
(-0.0083756 0.052984 0)
(-0.00880004 0.0521725 0)
(-0.00917897 0.0513231 0)
(-0.00951477 0.05044 0)
(-0.00980974 0.0495273 0)
(-0.0100661 0.0485886 0)
(-0.010286 0.0476274 0)
(-0.0104715 0.0466472 0)
(-0.0106246 0.045651 0)
(-0.0107473 0.0446419 0)
(-0.0108414 0.0436226 0)
(-0.0109089 0.0425957 0)
(-0.0109513 0.0415637 0)
(-0.0109704 0.0405288 0)
(-0.0109679 0.0394931 0)
(-0.0109453 0.0384587 0)
(-0.010904 0.0374274 0)
(-0.0108456 0.0364007 0)
(-0.0107713 0.0353804 0)
(-0.0106825 0.0343678 0)
(-0.0105804 0.0333642 0)
(-0.0104663 0.0323708 0)
(-0.0103412 0.0313888 0)
(-0.0102062 0.0304191 0)
(-0.0100624 0.0294625 0)
(-0.00991079 0.0285199 0)
(-0.00975224 0.027592 0)
(-0.00958765 0.0266793 0)
(-0.00941785 0.0257824 0)
(-0.00924365 0.0249018 0)
(-0.00906578 0.0240378 0)
(-0.00888495 0.0231907 0)
(-0.00870183 0.0223609 0)
(-0.00851704 0.0215484 0)
(-0.00833118 0.0207534 0)
(-0.0081448 0.0199759 0)
(-0.00795841 0.0192161 0)
(-0.00777252 0.0184739 0)
(-0.00758757 0.0177492 0)
(-0.00740399 0.0170418 0)
(-0.00722218 0.0163517 0)
(-0.00704252 0.0156787 0)
(-0.00686535 0.0150226 0)
(-0.00669098 0.014383 0)
(-0.00651973 0.0137597 0)
(-0.00635187 0.0131525 0)
(-0.00618766 0.0125609 0)
(-0.00602732 0.0119846 0)
(-0.00587108 0.0114233 0)
(-0.00571915 0.0108765 0)
(-0.0055717 0.0103439 0)
(-0.00542891 0.00982492 0)
(-0.00529092 0.00931922 0)
(-0.00515789 0.00882632 0)
(-0.00502995 0.00834573 0)
(-0.0049072 0.00787698 0)
(-0.00478976 0.00741956 0)
(-0.00467772 0.00697297 0)
(-0.00457117 0.00653669 0)
(-0.00447019 0.00611021 0)
(-0.00437485 0.005693 0)
(-0.00428522 0.00528451 0)
(-0.00420135 0.00488421 0)
(-0.00412328 0.00449156 0)
(-0.00405107 0.00410599 0)
(-0.00398476 0.00372697 0)
(-0.00392438 0.00335392 0)
(-0.00386995 0.00298629 0)
(-0.00382152 0.00262351 0)
(-0.00377909 0.00226502 0)
(-0.00374269 0.00191025 0)
(-0.00371233 0.00155863 0)
(-0.00368803 0.00120959 0)
(-0.0036698 0.00086256 0)
(-0.00365764 0.000516962 0)
(-0.00365155 0.000172225 0)
(0.0248509 0.0456305 0)
(0.0222506 0.0476532 0)
(0.0197784 0.0494579 0)
(0.0174311 0.0510553 0)
(0.0152051 0.0524562 0)
(0.0130971 0.0536707 0)
(0.0111032 0.054709 0)
(0.00922051 0.0555806 0)
(0.0074451 0.056295 0)
(0.00577282 0.0568612 0)
(0.00420152 0.057288 0)
(0.0027272 0.057584 0)
(0.00134558 0.0577571 0)
(5.35264e-05 0.0578154 0)
(-0.0011518 0.0577663 0)
(-0.00227368 0.0576173 0)
(-0.00331578 0.0573752 0)
(-0.00428167 0.0570469 0)