/*--------------------------------*- C++ -*----------------------------------*\
| =========                 |                                                 |
| \\      /  F ield         | OpenFOAM: The Open Source CFD Toolbox           |
|  \\    /   O peration     | Version:  2406                                  |
|   \\  /    A nd           | Website:  www.openfoam.com                      |
|    \\/     M anipulation  |                                                 |
\*---------------------------------------------------------------------------*/
FoamFile
{
    version     2.0;
    format      ascii;
    arch        "LSB;label=32;scalar=64";
    class       volScalarField;
    location    "10";
    object      gradTy;
}
// * * * * * * * * * * * * * * * * * * * * * * * * * * * * * * * * * * * * * //

dimensions      [0 -1 0 1 0 0 0];

internalField   nonuniform List<scalar> 
20000
(
23.694
19.5755
16.0991
13.18
10.7416
8.7153
7.04002
5.66202
4.53417
3.61564
2.87123
2.27079
1.78874
1.40348
1.09698
0.854204
0.662724
0.51233
0.394683
0.303015
0.231861
0.176839
0.134445
0.101897
0.0769955
0.0580079
0.0435773
0.0326448
0.0243883
0.0181714
0.0135041
0.0100102
0.00740184
0.00545991
0.00401795
0.00294999
0.002161
0.00157953
0.00115203
0.000838462
0.000608979
0.00044141
0.000319315
0.000230544
0.000166134
0.000119496
8.5793e-05
6.14852e-05
4.39868e-05
3.1414e-05
2.23967e-05
1.59412e-05
1.13278e-05
8.03653e-06
5.6925e-06
4.02589e-06
2.84285e-06
2.0044e-06
1.41117e-06
9.92051e-07
6.96398e-07
4.88187e-07
3.41727e-07
2.38864e-07
1.66744e-07
1.16229e-07
8.09242e-08
5.62661e-08
3.90799e-08
2.70783e-08
1.87628e-08
1.29674e-08
8.9817e-09
6.16174e-09
4.24105e-09
2.90878e-09
1.9762e-09
1.36557e-09
9.32587e-10
6.10623e-10
4.21885e-10
2.88658e-10
1.55431e-10
1.11022e-10
8.88178e-11
4.44089e-11
1.11022e-11
0
1.11022e-11
0
-2.22045e-11
-1.11022e-11
-2.22045e-11
-2.22045e-11
0
0
-1.11022e-11
-1.11022e-11
0
1.11022e-11
23.6882
19.5707
16.0952
13.1768
10.739
8.71316
7.03829
5.66061
4.53305
3.61476
2.87053
2.27023
1.78829
1.40313
1.09671
0.853995
0.662563
0.512205
0.394586
0.302939
0.231803
0.176794
0.134411
0.101871
0.0769763
0.0579935
0.0435665
0.0326368
0.0243823
0.0181671
0.0135009
0.0100078
0.00740011
0.00545866
0.00401704
0.00294933
0.00216052
0.0015792
0.00115179
0.000838291
0.00060886
0.000441326
0.000319257
0.000230504
0.000166107
0.000119477
8.57806e-05
6.14769e-05
4.39815e-05
3.14105e-05
2.23946e-05
1.59399e-05
1.1327e-05
8.03611e-06
5.69231e-06
4.02581e-06
2.84283e-06
2.00446e-06
1.41123e-06
9.92117e-07
6.96465e-07
4.88221e-07
3.41771e-07
2.38909e-07
1.66778e-07
1.16285e-07
8.09464e-08
5.62772e-08
3.90687e-08
2.71116e-08
1.87739e-08
1.29896e-08
8.9595e-09
6.18394e-09
4.25215e-09
2.90878e-09
1.9984e-09
1.37668e-09
9.54792e-10
6.66134e-10
4.32987e-10
2.88658e-10
2.22045e-10
1.33227e-10
8.88178e-11
6.66134e-11
4.44089e-11
1.11022e-11
-1.11022e-11
-1.11022e-11
2.22045e-11
0
0
0
-1.11022e-11
-1.11022e-11
-1.11022e-11
0
0
-1.11022e-11
23.6765
19.561
16.0872
13.1703
10.7337
8.70886
7.03481
5.65781
4.53081
3.61298
2.86911
2.26911
1.7874
1.40244
1.09617
0.853576
0.662238
0.511954
0.394392
0.302789
0.231688
0.176706
0.134344
0.101821
0.0769379
0.0579647
0.043545
0.0326208
0.0243704
0.0181582
0.0134944
0.010003
0.00739659
0.00545608
0.00401516
0.00294797
0.00215954
0.00157849
0.00115128
0.000837927
0.000608601
0.000441143
0.000319128
0.000230413
0.000166043
0.000119433
8.57503e-05
6.14561e-05
4.39673e-05
3.14009e-05
2.23881e-05
1.59356e-05
1.13242e-05
8.0343e-06
5.69116e-06
4.02508e-06
2.84242e-06
2.00421e-06
1.41108e-06
9.9204e-07
6.96454e-07
4.88221e-07
3.41771e-07
2.38931e-07
1.668e-07
1.16296e-07
8.09686e-08
5.62994e-08
3.91021e-08
2.71227e-08
1.8785e-08
1.30007e-08
8.9706e-09
6.20615e-09
4.26326e-09
2.95319e-09
2.03171e-09
1.37668e-09
9.4369e-10
6.32827e-10
4.32987e-10
2.9976e-10
2.10942e-10
1.44329e-10
8.88178e-11
4.44089e-11
3.33067e-11
3.33067e-11
0
0
0
1.11022e-11
1.11022e-11
0
0
0
1.11022e-11
-1.11022e-11
0
0
23.6589
19.5466
16.0753
13.1605
10.7257
8.7024
7.0296
5.65362
4.52746
3.6103
2.86699
2.26742
1.78608
1.4014
1.09536
0.852946
0.661749
0.511575
0.394099
0.302564
0.231515
0.176574
0.134243
0.101745
0.0768806
0.0579217
0.0435128
0.0325968
0.0243526
0.018145
0.0134846
0.00999579
0.00739129
0.0054522
0.00401233
0.00294591
0.00215805
0.00157741
0.00115051
0.000837371
0.000608204
0.00044086
0.000318928
0.000230272
0.000165944
0.000119364
8.57019e-05
6.14226e-05
4.39441e-05
3.13851e-05
2.23773e-05
1.59283e-05
1.13193e-05
8.031e-06
5.68895e-06
4.02365e-06
2.84148e-06
2.00361e-06
1.4107e-06
9.91807e-07
6.96299e-07
4.88132e-07
3.41749e-07
2.38909e-07
1.668e-07
1.16274e-07
8.09686e-08
5.62994e-08
3.9091e-08
2.71005e-08
1.87739e-08
1.29896e-08
8.9484e-09
6.17284e-09
4.25215e-09
2.94209e-09
2.0095e-09
1.37668e-09
9.21485e-10
6.32827e-10
4.32987e-10
2.9976e-10
1.88738e-10
1.22125e-10
7.77156e-11
5.55112e-11
2.22045e-11
1.11022e-11
0
-1.11022e-11
0
0
0
0
0
0
-1.11022e-11
-1.11022e-11
0
0
23.6356
19.5273
16.0594
13.1475
10.7151
8.69381
7.02266
5.64804
4.52299
3.60674
2.86415
2.26518
1.78431
1.40002
1.09428
0.852105
0.661096
0.51107
0.393709
0.302264
0.231286
0.176399
0.13411
0.101644
0.0768045
0.0578644
0.0434699
0.0325647
0.0243287
0.0181273
0.0134715
0.00998613
0.00738418
0.00544699
0.00400852
0.00294313
0.00215603
0.00157595
0.00114946
0.000836615
0.000607661
0.000440473
0.000318652
0.000230076
0.000165806
0.000119267
8.56338e-05
6.1375e-05
4.3911e-05
3.13621e-05
2.23615e-05
1.59174e-05
1.13119e-05
8.02594e-06
5.68554e-06
4.02137e-06
2.83996e-06
2.00261e-06
1.41004e-06
9.91374e-07
6.9601e-07
4.87965e-07
3.41616e-07
2.38853e-07
1.66755e-07
1.16274e-07
8.09797e-08
5.63216e-08
3.91354e-08
2.71227e-08
1.87628e-08
1.29674e-08
8.9706e-09
6.19504e-09
4.25215e-09
2.93099e-09
1.9984e-09
1.38778e-09
9.4369e-10
6.55032e-10
4.55191e-10
2.9976e-10
1.9984e-10
1.33227e-10
8.88178e-11
6.66134e-11
4.44089e-11
2.22045e-11
2.22045e-11
2.22045e-11
-1.11022e-11
-2.22045e-11
-2.22045e-11
-2.22045e-11
-2.22045e-11
-2.22045e-11
-1.11022e-11
0
-1.11022e-11
-1.11022e-11
23.6064
19.5031
16.0396
13.1313
10.7019
8.68307
7.01398
5.64106
4.5174
3.60228
2.86061
2.26238
1.78211
1.39829
1.09293
0.851053
0.66028
0.510438
0.393222
0.30189
0.230999
0.17618
0.133944
0.101518
0.0767094
0.0577929
0.0434162
0.0325246
0.0242988
0.0181051
0.0134551
0.009974
0.00737525
0.00544044
0.00400373
0.00293963
0.00215349
0.0015741
0.00114812
0.000835654
0.000606971
0.000439979
0.000318299
0.000229825
0.000165628
0.000119141
8.55449e-05
6.13126e-05
4.38674e-05
3.13316e-05
2.23403e-05
1.59027e-05
1.13017e-05
8.01902e-06
5.68078e-06
4.01812e-06
2.83775e-06
2.00113e-06
1.40904e-06
9.90708e-07
6.95566e-07
4.87665e-07
3.41438e-07
2.3872e-07
1.66678e-07
1.16251e-07
8.09242e-08
5.62772e-08
3.90799e-08
2.70894e-08
1.8785e-08
1.29785e-08
8.9817e-09
6.18394e-09
4.27436e-09
2.93099e-09
2.0095e-09
1.35447e-09
9.4369e-10
6.32827e-10
4.44089e-10
2.88658e-10
1.9984e-10
1.55431e-10
8.88178e-11
4.44089e-11
3.33067e-11
1.11022e-11
2.22045e-11
0
-1.11022e-11
-2.22045e-11
-1.11022e-11
-1.11022e-11
-1.11022e-11
-1.11022e-11
0
1.11022e-11
0
0
23.5713
19.4742
16.0158
13.1118
10.686
8.67018
7.00358
5.63269
4.5107
3.59693
2.85637
2.25903
1.77946
1.39622
1.09131
0.849791
0.6593
0.50968
0.392638
0.301441
0.230655
0.175918
0.133745
0.101367
0.0765955
0.0577072
0.0433519
0.0324765
0.024263
0.0180784
0.0134353
0.00995941
0.0073645
0.00543254
0.00399794
0.00293541
0.00215041
0.00157187
0.0011465
0.000834486
0.000606131
0.000439375
0.000317867
0.000229517
0.000165409
0.000118985
8.54349e-05
6.1235e-05
4.38128e-05
3.12934e-05
2.23136e-05
1.58842e-05
1.12888e-05
8.01008e-06
5.67466e-06
4.01389e-06
2.83488e-06
1.99915e-06
1.40771e-06
9.8983e-07
6.94977e-07
4.87277e-07
3.41172e-07
2.38543e-07
1.66589e-07
1.16163e-07
8.08908e-08
5.62661e-08
3.90687e-08
2.71227e-08
1.87739e-08
1.30118e-08
8.9817e-09
6.21725e-09
4.27436e-09
2.93099e-09
2.04281e-09
1.39888e-09
9.54792e-10
6.43929e-10
4.32987e-10
3.10862e-10
1.88738e-10
1.22125e-10
8.88178e-11
6.66134e-11
5.55112e-11
2.22045e-11
1.11022e-11
1.11022e-11
0
0
-1.11022e-11
-1.11022e-11
-1.11022e-11
0
1.11022e-11
1.11022e-11
-1.11022e-11
0
23.5305
19.4404
15.988
13.0891
10.6675
8.65516
6.99144
5.62293
4.50288
3.5907
2.85142
2.25511
1.77638
1.3938
1.08942
0.848318
0.658157
0.508797
0.391957
0.300918
0.230255
0.175613
0.133513
0.101191
0.0764627
0.0576072
0.0432769
0.0324204
0.0242211
0.0180473
0.0134123
0.00994235
0.00735193
0.0054233
0.00399117
0.00293046
0.0021468
0.00156925
0.0011446
0.000833111
0.000605139
0.000438662
0.000317356
0.000229151
0.000165148
0.0001188
8.53034e-05
6.1142e-05
4.37471e-05
3.12472e-05
2.22812e-05
1.58615e-05
1.1273e-05
7.99907e-06
5.66702e-06
4.00865e-06
2.83121e-06
1.99664e-06
1.40603e-06
9.88654e-07
6.942e-07
4.86744e-07
3.40816e-07
2.3832e-07
1.66422e-07
1.16052e-07
8.08242e-08
5.62217e-08
3.90354e-08
2.71005e-08
1.87961e-08
1.29785e-08
8.9817e-09
6.19504e-09
4.27436e-09
2.93099e-09
2.04281e-09
1.39888e-09
9.54792e-10
6.55032e-10
4.44089e-10
2.9976e-10
2.10942e-10
1.22125e-10
7.77156e-11
6.66134e-11
3.33067e-11
2.22045e-11
1.11022e-11
0
0
0
0
0
0
-1.11022e-11
0
-1.11022e-11
0
0
23.4839
19.4019
15.9563
13.0631
10.6464
8.638
6.97758
5.61178
4.49395
3.58358
2.84577
2.25064
1.77286
1.39103
1.08726
0.846636
0.656852
0.507787
0.391179
0.300321
0.229798
0.175264
0.133248
0.10099
0.0763111
0.0574931
0.0431913
0.0323563
0.0241733
0.0180117
0.0133859
0.00992284
0.00733753
0.00541271
0.0039834
0.00292478
0.00214266
0.00156623
0.00114241
0.000831526
0.000603995
0.000437839
0.000316765
0.000228727
0.000164845
0.000118584
8.515e-05
6.10332e-05
4.36703e-05
3.1193e-05
2.2243e-05
1.58347e-05
1.12543e-05
7.98598e-06
5.6579e-06
4.00229e-06
2.82683e-06
1.99362e-06
1.40394e-06
9.87233e-07
6.93201e-07
4.86078e-07
3.40361e-07
2.3801e-07
1.662e-07
1.15918e-07
8.07354e-08
5.61551e-08
3.90132e-08
2.70783e-08
1.87739e-08
1.30118e-08
8.9595e-09
6.18394e-09
4.28546e-09
2.9754e-09
2.03171e-09
1.39888e-09
9.65894e-10
6.55032e-10
4.44089e-10
2.9976e-10
2.22045e-10
1.55431e-10
9.99201e-11
6.66134e-11
4.44089e-11
4.44089e-11
2.22045e-11
1.11022e-11
-1.11022e-11
0
1.11022e-11
2.22045e-11
2.22045e-11
2.22045e-11
1.11022e-11
1.11022e-11
0
0
23.4314
19.3586
15.9207
13.034
10.6226
8.61871
6.962
5.59925
4.48392
3.57558
2.83941
2.24562
1.7689
1.38793
1.08483
0.844745
0.655385
0.506653
0.390305
0.29965
0.229285
0.174872
0.13295
0.100765
0.0761407
0.0573648
0.043095
0.0322843
0.0241195
0.0179717
0.0133562
0.00990086
0.00732132
0.00540078
0.00397465
0.00291837
0.00213797
0.00156282
0.00113994
0.000829733
0.000602699
0.000436904
0.000316093
0.000228245
0.0001645
0.000118338
8.49746e-05
6.09086e-05
4.3582e-05
3.11306e-05
2.2199e-05
1.58037e-05
1.12325e-05
7.97077e-06
5.64727e-06
3.99488e-06
2.8217e-06
1.99005e-06
1.40146e-06
9.85512e-07
6.92046e-07
4.85278e-07
3.39795e-07
2.3761e-07
1.65945e-07
1.1573e-07
8.06244e-08
5.60552e-08
3.89466e-08
2.70228e-08
1.86962e-08
1.29563e-08
8.9706e-09
6.20615e-09
4.27436e-09
2.94209e-09
2.04281e-09
1.40998e-09
9.4369e-10
6.66134e-10
4.55191e-10
3.21965e-10
1.77636e-10
1.44329e-10
9.99201e-11
4.44089e-11
4.44089e-11
4.44089e-11
2.22045e-11
3.33067e-11
2.22045e-11
1.11022e-11
0
0
1.11022e-11
1.11022e-11
0
1.11022e-11
1.11022e-11
0
23.3732
19.3105
15.8812
13.0016
10.5962
8.59729
6.9447
5.58534
4.47278
3.5667
2.83236
2.24004
1.76451
1.38448
1.08213
0.842646
0.653756
0.505393
0.389335
0.298905
0.228715
0.174438
0.132619
0.100514
0.0759516
0.0572224
0.042988
0.0322042
0.0240598
0.0179273
0.0133232
0.00987644
0.00730329
0.0053875
0.0039649
0.00291123
0.00213276
0.00155902
0.00113717
0.000827729
0.00060125
0.000435859
0.00031534
0.000227705
0.000164113
0.000118061
8.47772e-05
6.07682e-05
4.34823e-05
3.106e-05
2.21491e-05
1.57686e-05
1.12078e-05
7.9534e-06
5.63511e-06
3.9864e-06
2.81578e-06
1.98592e-06
1.39859e-06
9.83535e-07
6.90692e-07
4.84335e-07
3.39173e-07
2.37199e-07
1.65667e-07
1.1553e-07
8.04801e-08
5.59996e-08
3.89133e-08
2.69895e-08
1.87073e-08
1.29341e-08
8.9484e-09
6.19504e-09
4.27436e-09
2.94209e-09
2.02061e-09
1.39888e-09
9.54792e-10
6.43929e-10
4.44089e-10
2.9976e-10
2.33147e-10
1.33227e-10
7.77156e-11
6.66134e-11
5.55112e-11
5.55112e-11
4.44089e-11
3.33067e-11
3.33067e-11
3.33067e-11
2.22045e-11
2.22045e-11
1.11022e-11
1.11022e-11
1.11022e-11
1.11022e-11
1.11022e-11
0
23.3092
19.2576
15.8377
12.966
10.5672
8.57376
6.92569
5.57005
4.46053
3.55693
2.8246
2.23391
1.75968
1.38069
1.07917
0.840339
0.651966
0.504009
0.388269
0.298086
0.228088
0.17396
0.132256
0.100239
0.0757438
0.0570659
0.0428705
0.0321162
0.0239941
0.0178784
0.0132869
0.00984956
0.00728344
0.00537288
0.00395416
0.00290336
0.00212701
0.00155483
0.00113413
0.000825517
0.000599648
0.000434702
0.000314507
0.000227106
0.000163683
0.000117754
8.45577e-05
6.06118e-05
4.33711e-05
3.09811e-05
2.20933e-05
1.57291e-05
1.118e-05
7.93384e-06
5.62137e-06
3.97677e-06
2.80905e-06
1.98126e-06
1.39535e-06
9.81271e-07
6.89104e-07
4.83247e-07
3.38418e-07
2.367e-07
1.65301e-07
1.15297e-07
8.03246e-08
5.58775e-08
3.88356e-08
2.69562e-08
1.86851e-08
1.29452e-08
8.9373e-09
6.17284e-09
4.28546e-09
2.94209e-09
2.02061e-09
1.38778e-09
9.65894e-10
6.55032e-10
4.55191e-10
3.10862e-10
2.10942e-10
1.66533e-10
1.11022e-10
8.88178e-11
6.66134e-11
4.44089e-11
4.44089e-11
2.22045e-11
4.44089e-11
1.11022e-11
2.22045e-11
2.22045e-11
0
1.11022e-11
1.11022e-11
1.11022e-11
1.11022e-11
0
23.2395
19.2
15.7903
12.9272
10.5356
8.5481
6.90496
5.55338
4.44719
3.54629
2.81615
2.22722
1.75441
1.37656
1.07594
0.837824
0.650015
0.502501
0.387107
0.297194
0.227406
0.173439
0.131861
0.0999394
0.0755172
0.0568953
0.0427424
0.0320203
0.0239225
0.017825
0.0132473
0.00982024
0.00726178
0.00535693
0.00394244
0.00289476
0.00212073
0.00155024
0.00113079
0.000823096
0.000597894
0.000433435
0.000313593
0.000226449
0.000163211
0.000117416
8.43162e-05
6.04395e-05
4.32485e-05
3.0894e-05
2.20316e-05
1.56855e-05
1.11492e-05
7.91214e-06
5.60614e-06
3.96607e-06
2.80155e-06
1.97602e-06
1.39169e-06
9.7875e-07
6.87339e-07
4.82059e-07
3.37597e-07
2.361e-07
1.64901e-07
1.1503e-07
8.01359e-08
5.57443e-08
3.87357e-08
2.68896e-08
1.86517e-08
1.2923e-08
8.9373e-09
6.18394e-09
4.27436e-09
2.9643e-09
2.02061e-09
1.39888e-09
9.76996e-10
6.77236e-10
4.77396e-10
3.33067e-10
2.44249e-10
1.77636e-10
1.33227e-10
8.88178e-11
5.55112e-11
4.44089e-11
2.22045e-11
2.22045e-11
2.22045e-11
3.33067e-11
2.22045e-11
1.11022e-11
2.22045e-11
2.22045e-11
1.11022e-11
0
1.11022e-11
1.11022e-11
23.164
19.1376
15.739
12.8852
10.5013
8.52034
6.88254
5.53535
4.43274
3.53477
2.807
2.21999
1.74871
1.37209
1.07245
0.835102
0.647903
0.500869
0.385849
0.296229
0.226667
0.172876
0.131432
0.0996149
0.0752721
0.0567106
0.0426037
0.0319165
0.023845
0.0177673
0.0132044
0.00978848
0.00723832
0.00533964
0.00392973
0.00288545
0.00211391
0.00154527
0.00112717
0.000820466
0.000595989
0.000432057
0.000312599
0.000225733
0.000162697
0.000117047
8.40526e-05
6.02514e-05
4.31145e-05
3.07988e-05
2.1964e-05
1.56376e-05
1.11153e-05
7.88828e-06
5.58932e-06
3.95427e-06
2.79325e-06
1.97021e-06
1.38763e-06
9.7593e-07
6.85396e-07
4.80682e-07
3.36631e-07
2.35445e-07
1.64446e-07
1.14719e-07
7.99139e-08
5.56333e-08
3.86469e-08
2.68119e-08
1.85962e-08
1.28786e-08
8.91509e-09
6.18394e-09
4.25215e-09
2.94209e-09
2.04281e-09
1.40998e-09
9.54792e-10
6.77236e-10
4.66294e-10
3.44169e-10
2.44249e-10
1.55431e-10
1.33227e-10
9.99201e-11
5.55112e-11
4.44089e-11
5.55112e-11
2.22045e-11
2.22045e-11
4.44089e-11
3.33067e-11
1.11022e-11
2.22045e-11
2.22045e-11
1.11022e-11
0
-1.11022e-11
0
23.0828
19.0706
15.6838
12.84
10.4645
8.49048
6.85842
5.51595
4.41721
3.52238
2.79717
2.21221
1.74258
1.36728
1.06869
0.832175
0.645632
0.499113
0.384497
0.29519
0.225872
0.17227
0.130972
0.0992658
0.0750084
0.056512
0.0424546
0.0318048
0.0237615
0.0177052
0.0131583
0.0097543
0.00721307
0.00532103
0.00391604
0.00287541
0.00210657
0.00153991
0.00112327
0.00081763
0.000593932
0.000430569
0.000311525
0.000224959
0.000162141
0.000116648
8.37672e-05
6.00475e-05
4.29691e-05
3.06953e-05
2.18905e-05
1.55855e-05
1.10785e-05
7.86224e-06
5.57098e-06
3.94136e-06
2.78421e-06
1.96384e-06
1.38319e-06
9.72811e-07
6.83209e-07
4.7915e-07
3.35598e-07
2.34723e-07
1.63958e-07
1.14386e-07
7.96807e-08
5.54445e-08
3.85358e-08
2.67675e-08
1.85518e-08
1.28342e-08
8.91509e-09
6.15064e-09
4.25215e-09
2.93099e-09
2.03171e-09
1.39888e-09
9.65894e-10
6.88338e-10
4.66294e-10
3.21965e-10
2.22045e-10
1.66533e-10
1.22125e-10
8.88178e-11
6.66134e-11
4.44089e-11
3.33067e-11
4.44089e-11
3.33067e-11
3.33067e-11
3.33067e-11
2.22045e-11
1.11022e-11
1.11022e-11
0
1.11022e-11
0
1.11022e-11
22.9959
18.9988
15.6248
12.7917
10.4252
8.45852
6.8326
5.49518
4.40058
3.50912
2.78664
2.20388
1.73602
1.36213
1.06466
0.829042
0.643201
0.497234
0.383049
0.294079
0.225022
0.171622
0.130479
0.0988923
0.0747262
0.0562994
0.0422949
0.0316852
0.0236722
0.0176387
0.0131089
0.00971769
0.00718602
0.00530109
0.00390138
0.00286465
0.0020987
0.00153416
0.00111908
0.000814587
0.000591725
0.000428972
0.000310372
0.000224128
0.000161544
0.000116219
8.346e-05
5.98279e-05
4.28124e-05
3.05837e-05
2.18112e-05
1.55293e-05
1.10387e-05
7.83409e-06
5.55109e-06
3.92735e-06
2.77437e-06
1.95697e-06
1.37833e-06
9.69425e-07
6.80855e-07
4.77496e-07
3.34466e-07
2.33902e-07
1.6338e-07
1.13975e-07
7.94032e-08
5.52447e-08
3.84026e-08
2.66676e-08
1.84741e-08
1.28009e-08
8.85958e-09
6.11733e-09
4.22995e-09
2.90878e-09
2.0095e-09
1.39888e-09
9.88098e-10
6.66134e-10
4.55191e-10
2.9976e-10
1.9984e-10
1.66533e-10
1.11022e-10
7.77156e-11
8.88178e-11
5.55112e-11
3.33067e-11
5.55112e-11
2.22045e-11
0
0
0
1.11022e-11
-1.11022e-11
1.11022e-11
0
2.22045e-11
0
22.9033
18.9223
15.5619
12.7402
10.3832
8.42447
6.8051
5.47306
4.38287
3.495
2.77542
2.19501
1.72904
1.35665
1.06038
0.825705
0.640612
0.495233
0.381507
0.292896
0.224117
0.170931
0.129954
0.0984944
0.0744256
0.056073
0.0421248
0.0315578
0.0235771
0.0175678
0.0130562
0.00967868
0.00715718
0.00527983
0.00388575
0.00285318
0.0020903
0.00152803
0.00111461
0.000811338
0.000589369
0.000427266
0.000309139
0.00022324
0.000160905
0.000115761
8.31312e-05
5.95927e-05
4.26445e-05
3.04642e-05
2.17262e-05
1.54689e-05
1.09959e-05
7.80384e-06
5.52975e-06
3.9123e-06
2.76377e-06
1.94951e-06
1.37312e-06
9.65727e-07
6.78269e-07
4.75719e-07
3.33178e-07
2.33047e-07
1.62792e-07
1.13565e-07
7.91145e-08
5.50449e-08
3.82694e-08
2.65565e-08
1.84075e-08
1.27565e-08
8.81517e-09
6.08402e-09
4.20775e-09
2.89768e-09
1.9984e-09
1.38778e-09
9.54792e-10
6.66134e-10
4.44089e-10
2.9976e-10
2.33147e-10
1.44329e-10
1.11022e-10
7.77156e-11
6.66134e-11
5.55112e-11
5.55112e-11
3.33067e-11
2.22045e-11
-1.11022e-11
-1.11022e-11
0
0
1.11022e-11
1.11022e-11
0
-1.11022e-11
1.11022e-11
22.8051
18.8412
15.4952
12.6856
10.3387
8.38835
6.77592
5.44959
4.36407
3.48001
2.76352
2.1856
1.72162
1.35083
1.05583
0.822164
0.637865
0.493109
0.379872
0.29164
0.223156
0.170198
0.129397
0.0980722
0.0741065
0.0558327
0.0419443
0.0314226
0.0234761
0.0174926
0.0130003
0.00963727
0.00712657
0.00525726
0.00386915
0.002841
0.00208138
0.00152152
0.00110986
0.000807886
0.000586864
0.000425452
0.000307829
0.000222295
0.000160224
0.000115272
8.27809e-05
5.93422e-05
4.24656e-05
3.03366e-05
2.16354e-05
1.54045e-05
1.09502e-05
7.77152e-06
5.50692e-06
3.89622e-06
2.75244e-06
1.94152e-06
1.36752e-06
9.61831e-07
6.75537e-07
4.73788e-07
3.31835e-07
2.32137e-07
1.62137e-07
1.1311e-07
7.88147e-08
5.48339e-08
3.81251e-08
2.64455e-08
1.83742e-08
1.27121e-08
8.79297e-09
6.05072e-09
4.18554e-09
2.88658e-09
1.9984e-09
1.36557e-09
9.32587e-10
6.55032e-10
4.55191e-10
3.21965e-10
1.9984e-10
1.22125e-10
1.11022e-10
8.88178e-11
4.44089e-11
3.33067e-11
3.33067e-11
0
2.22045e-11
3.33067e-11
2.22045e-11
1.11022e-11
1.11022e-11
1.11022e-11
1.11022e-11
1.11022e-11
1.11022e-11
0
22.7013
18.7554
15.4246
12.6278
10.2916
8.35015
6.74506
5.42478
4.3442
3.46417
2.75094
2.17564
1.71378
1.34468
1.05102
0.818421
0.634961
0.490864
0.378142
0.290312
0.22214
0.169423
0.128808
0.0976257
0.0737692
0.0555786
0.0417535
0.0312797
0.0233693
0.017413
0.0129412
0.00959347
0.00709419
0.00523339
0.00385158
0.00282811
0.00207194
0.00151462
0.00110484
0.000804231
0.000584211
0.000423531
0.00030644
0.000221293
0.000159503
0.000114754
8.24094e-05
5.90762e-05
4.22756e-05
3.02011e-05
2.1539e-05
1.53359e-05
1.09016e-05
7.73711e-06
5.48258e-06
3.87903e-06
2.74034e-06
1.93301e-06
1.36153e-06
9.57634e-07
6.72584e-07
4.71723e-07
3.30391e-07
2.31093e-07
1.61438e-07
1.12621e-07
7.84706e-08
5.46119e-08
3.79252e-08
2.63456e-08
1.82521e-08
1.26565e-08
8.74856e-09
6.02851e-09
4.15223e-09
2.87548e-09
1.96509e-09
1.34337e-09
9.32587e-10
6.21725e-10
4.32987e-10
2.88658e-10
1.9984e-10
1.44329e-10
8.88178e-11
6.66134e-11
4.44089e-11
4.44089e-11
2.22045e-11
2.22045e-11
1.11022e-11
1.11022e-11
2.22045e-11
2.22045e-11
0
1.11022e-11
0
1.11022e-11
0
-1.11022e-11
22.5919
18.6649
15.3503
12.567
10.242
8.3099
6.71255
5.39863
4.32326
3.44747
2.73767
2.16516
1.70552
1.3382
1.04596
0.814475
0.6319
0.488497
0.376319
0.288912
0.221069
0.168607
0.128187
0.0971552
0.0734137
0.0553108
0.0415523
0.031129
0.0232568
0.0173292
0.0128789
0.00954729
0.00706006
0.00520821
0.00383306
0.00281452
0.00206199
0.00150735
0.00109954
0.000800374
0.000581411
0.000421503
0.000304974
0.000220235
0.000158742
0.000114207
8.20168e-05
5.87952e-05
4.20748e-05
3.00578e-05
2.1437e-05
1.52634e-05
1.08502e-05
7.70064e-06
5.45681e-06
3.86083e-06
2.7275e-06
1.92397e-06
1.35519e-06
9.53182e-07
6.69476e-07
4.69547e-07
3.28881e-07
2.30038e-07
1.60683e-07
1.12088e-07
7.81153e-08
5.43343e-08
3.77587e-08
2.62013e-08
1.81632e-08
1.25788e-08
8.69305e-09
6.00631e-09
4.13003e-09
2.84217e-09
1.96509e-09
1.33227e-09
9.21485e-10
6.32827e-10
4.44089e-10
2.9976e-10
2.44249e-10
1.44329e-10
8.88178e-11
7.77156e-11
4.44089e-11
3.33067e-11
0
2.22045e-11
3.33067e-11
0
1.11022e-11
0
0
-1.11022e-11
-1.11022e-11
-1.11022e-11
-1.11022e-11
-1.11022e-11
22.4768
18.5699
15.2721
12.503
10.1898
8.26759
6.67837
5.37114
4.30125
3.42991
2.72374
2.15413
1.69684
1.33138
1.04063
0.810329
0.628683
0.48601
0.374403
0.287442
0.219943
0.167748
0.127534
0.0966607
0.0730401
0.0550293
0.0413408
0.0309706
0.0231384
0.017241
0.0128134
0.00949875
0.00702417
0.00518174
0.00381359
0.00280023
0.00205152
0.0014997
0.00109396
0.000796316
0.000578466
0.000419369
0.000303431
0.000219122
0.00015794
0.00011363
8.16033e-05
5.84991e-05
4.18632e-05
2.99069e-05
2.13294e-05
1.51869e-05
1.07959e-05
7.66219e-06
5.4296e-06
3.8416e-06
2.71394e-06
1.91446e-06
1.3485e-06
9.48486e-07
6.66178e-07
4.6726e-07
3.27283e-07
2.28917e-07
1.59917e-07
1.11555e-07
7.77267e-08
5.40901e-08
3.75922e-08
2.60791e-08
1.80855e-08
1.25233e-08
8.65974e-09
5.9952e-09
4.10783e-09
2.83107e-09
1.95399e-09
1.34337e-09
9.10383e-10
6.32827e-10
4.32987e-10
2.9976e-10
1.88738e-10
1.44329e-10
8.88178e-11
6.66134e-11
4.44089e-11
1.11022e-11
2.22045e-11
1.11022e-11
0
2.22045e-11
0
0
0
-1.11022e-11
1.11022e-11
0
1.11022e-11
-1.11022e-11
22.3563
18.4703
15.1902
12.4359
10.1352
8.22325
6.64255
5.34234
4.27818
3.41152
2.70913
2.14258
1.68774
1.32424
1.03505
0.805983
0.625311
0.483404
0.372395
0.2859
0.218764
0.166849
0.12685
0.0961424
0.0726484
0.0547342
0.0411192
0.0308045
0.0230144
0.0171486
0.0127447
0.00944785
0.00698654
0.00515399
0.00379317
0.00278524
0.00204054
0.00149168
0.00108811
0.00079206
0.000575375
0.00041713
0.000301812
0.000217953
0.000157098
0.000113025
8.11692e-05
5.81881e-05
4.16408e-05
2.97482e-05
2.12164e-05
1.51066e-05
1.07388e-05
7.62175e-06
5.40098e-06
3.82141e-06
2.69968e-06
1.90441e-06
1.34145e-06
9.43534e-07
6.62714e-07
4.64839e-07
3.25595e-07
2.2774e-07
1.59095e-07
1.10989e-07
7.73159e-08
5.38236e-08
3.73923e-08
2.59681e-08
1.79745e-08
1.24456e-08
8.60423e-09
5.9508e-09
4.10783e-09
2.81997e-09
1.94289e-09
1.34337e-09
9.10383e-10
6.21725e-10
4.32987e-10
2.88658e-10
1.9984e-10
1.44329e-10
1.11022e-10
5.55112e-11
4.44089e-11
4.44089e-11
2.22045e-11
2.22045e-11
0
1.11022e-11
-1.11022e-11
0
0
1.11022e-11
0
1.11022e-11
0
2.22045e-11
22.2302
18.3662
15.1045
12.3658
10.078
8.17687
6.60509
5.31221
4.25405
3.39228
2.69385
2.1305
1.67822
1.31677
1.02921
0.801437
0.621785
0.480678
0.370295
0.284288
0.21753
0.165908
0.126135
0.0956003
0.0722388
0.0544256
0.0408874
0.0306309
0.0228847
0.017052
0.0126729
0.00939462
0.00694718
0.00512496
0.00377181
0.00276955
0.00202906
0.00148329
0.00108199
0.000787606
0.000572141
0.000414786
0.000300117
0.00021673
0.000156217
0.000112392
8.07144e-05
5.78623e-05
4.14079e-05
2.95819e-05
2.10979e-05
1.50223e-05
1.0679e-05
7.57931e-06
5.37095e-06
3.80017e-06
2.68473e-06
1.89387e-06
1.33403e-06
9.38305e-07
6.59062e-07
4.62241e-07
3.23774e-07
2.26474e-07
1.58196e-07
1.10367e-07
7.6894e-08
5.35016e-08
3.71814e-08
2.58016e-08
1.78857e-08
1.2379e-08
8.55982e-09
5.90639e-09
4.07452e-09
2.81997e-09
1.93179e-09
1.32117e-09
9.21485e-10
6.21725e-10
4.32987e-10
2.9976e-10
1.77636e-10
1.44329e-10
1.11022e-10
5.55112e-11
3.33067e-11
2.22045e-11
3.33067e-11
0
2.22045e-11
-1.11022e-11
1.11022e-11
0
0
0
-1.11022e-11
0
1.11022e-11
0
22.0986
18.2575
15.0151
12.2926
10.0184
8.12848
6.566
5.28077
4.22887
3.3722
2.67791
2.11789
1.66829
1.30898
1.02312
0.796695
0.618105
0.477833
0.368104
0.282605
0.216243
0.164926
0.125389
0.0950346
0.0718114
0.0541036
0.0406455
0.0304497
0.0227493
0.0169511
0.012598
0.00933906
0.0069061
0.00509466
0.00374951
0.00275319
0.00201707
0.00147452
0.0010756
0.000782956
0.000568764
0.000412339
0.000298347
0.000215453
0.000155297
0.00011173
8.02393e-05
5.7522e-05
4.11645e-05
2.94082e-05
2.09741e-05
1.49342e-05
1.06164e-05
7.53495e-06
5.33952e-06
3.77797e-06
2.66904e-06
1.88281e-06
1.32624e-06
9.32843e-07
6.55209e-07
4.59577e-07
3.21909e-07
2.25164e-07
1.57308e-07
1.09723e-07
7.645e-08
5.31686e-08
3.69593e-08
2.56462e-08
1.77969e-08
1.23124e-08
8.52651e-09
5.88418e-09
4.06342e-09
2.78666e-09
1.90958e-09
1.32117e-09
9.21485e-10
6.43929e-10
4.10783e-10
2.88658e-10
1.88738e-10
1.33227e-10
8.88178e-11
6.66134e-11
5.55112e-11
5.55112e-11
3.33067e-11
1.11022e-11
0
1.11022e-11
1.11022e-11
1.11022e-11
0
0
1.11022e-11
1.11022e-11
0
-1.11022e-11
21.9616
18.1443
14.9221
12.2164
9.95627
8.07808
6.52529
5.24803
4.20266
3.35129
2.6613
2.10476
1.65794
1.30087
1.01678
0.791755
0.614273
0.474871
0.365822
0.280853
0.214902
0.163904
0.124611
0.0944454
0.0713662
0.0537682
0.0403935
0.030261
0.0226083
0.016846
0.0125199
0.00928119
0.00686331
0.0050631
0.00372629
0.00273614
0.00200458
0.0014654
0.00106894
0.000778112
0.000565246
0.000409789
0.000296502
0.000214121
0.000154337
0.00011104
7.97441e-05
5.71672e-05
4.09107e-05
2.9227e-05
2.0845e-05
1.48423e-05
1.05511e-05
7.48864e-06
5.30676e-06
3.7548e-06
2.6527e-06
1.87129e-06
1.31811e-06
9.27158e-07
6.51201e-07
4.56768e-07
3.19933e-07
2.2381e-07
1.56331e-07
1.09068e-07
7.59837e-08
5.28799e-08
3.67484e-08
2.55018e-08
1.76525e-08
1.22347e-08
8.4599e-09
5.85088e-09
4.04121e-09
2.76446e-09
1.90958e-09
1.29896e-09
9.10383e-10
5.9952e-10
4.21885e-10
2.77556e-10
2.22045e-10
1.33227e-10
9.99201e-11
9.99201e-11
7.77156e-11
4.44089e-11
2.22045e-11
3.33067e-11
2.22045e-11
2.22045e-11
1.11022e-11
1.11022e-11
0
0
1.11022e-11
0
-1.11022e-11
0
21.8192
18.0266
14.8253
12.1372
9.89169
8.02569
6.48297
5.21399
4.1754
3.32956
2.64404
2.09111
1.64719
1.29243
1.01019
0.78662
0.610289
0.471791
0.363449
0.279032
0.213509
0.162841
0.123803
0.093833
0.0709034
0.0534196
0.0401316
0.0300647
0.0224617
0.0167368
0.0124387
0.00922103
0.00681883
0.00503029
0.00370214
0.00271841
0.00199159
0.0014559
0.00106202
0.000773073
0.000561587
0.000407137
0.000294584
0.000212736
0.000153339
0.000110322
7.92289e-05
5.6798e-05
4.06466e-05
2.90384e-05
2.07105e-05
1.47467e-05
1.04831e-05
7.44044e-06
5.27265e-06
3.73068e-06
2.63569e-06
1.8593e-06
1.3097e-06
9.21241e-07
6.4706e-07
4.53837e-07
3.17879e-07
2.22355e-07
1.5532e-07
1.0838e-07
7.55063e-08
5.25358e-08
3.65041e-08
2.53575e-08
1.75748e-08
1.2168e-08
8.41549e-09
5.79536e-09
4.01901e-09
2.77556e-09
1.89848e-09
1.32117e-09
8.88178e-10
5.9952e-10
4.10783e-10
2.77556e-10
1.77636e-10
1.33227e-10
9.99201e-11
8.88178e-11
4.44089e-11
3.33067e-11
3.33067e-11
3.33067e-11
3.33067e-11
4.44089e-11
1.11022e-11
1.11022e-11
1.11022e-11
-1.11022e-11
-1.11022e-11
-1.11022e-11
0
0
21.6714
17.9045
14.7248
12.0549
9.82468
7.97132
6.43905
5.17867
4.14711
3.307
2.62613
2.07694
1.63603
1.28367
1.00334
0.781291
0.606155
0.468595
0.360987
0.277142
0.212062
0.161738
0.122965
0.0931973
0.0704231
0.0530577
0.0398598
0.0298611
0.0223096
0.0166235
0.0123545
0.00915859
0.00677266
0.00499623
0.00367708
0.00270001
0.00197811
0.00144605
0.00105483
0.000767843
0.000557788
0.000404384
0.000292592
0.000211298
0.000152303
0.000109577
7.86939e-05
5.64146e-05
4.03724e-05
2.88425e-05
2.05709e-05
1.46473e-05
1.04126e-05
7.3904e-06
5.23718e-06
3.70561e-06
2.61798e-06
1.84683e-06
1.30093e-06
9.15046e-07
6.4273e-07
4.50828e-07
3.1577e-07
2.2089e-07
1.5431e-07
1.07647e-07
7.50067e-08
5.22027e-08
3.6271e-08
2.51799e-08
1.74749e-08
1.21014e-08
8.37108e-09
5.78426e-09
3.9857e-09
2.76446e-09
1.89848e-09
1.31006e-09
8.65974e-10
6.10623e-10
4.10783e-10
2.77556e-10
2.10942e-10
1.44329e-10
8.88178e-11
5.55112e-11
4.44089e-11
3.33067e-11
3.33067e-11
3.33067e-11
1.11022e-11
1.11022e-11
1.11022e-11
0
1.11022e-11
2.22045e-11
0
-1.11022e-11
-1.11022e-11
0
21.5182
17.7779
14.6208
11.9697
9.75525
7.91499
6.39355
5.14207
4.1178
3.28363
2.60757
2.06226
1.62447
1.2746
0.996251
0.77577
0.601871
0.465283
0.358436
0.275183
0.210563
0.160595
0.122096
0.0925387
0.0699255
0.0526828
0.0395781
0.0296501
0.022152
0.016506
0.0122672
0.00909388
0.00672481
0.00496093
0.00365111
0.00268094
0.00196414
0.00143584
0.00104739
0.000762423
0.000553852
0.00040153
0.000290528
0.000209808
0.000151229
0.000108804
7.81393e-05
5.60171e-05
4.0088e-05
2.86395e-05
2.04261e-05
1.45442e-05
1.03393e-05
7.33844e-06
5.20037e-06
3.67959e-06
2.59962e-06
1.83389e-06
1.29181e-06
9.08651e-07
6.38234e-07
4.47642e-07
3.13571e-07
2.19347e-07
1.53233e-07
1.06914e-07
7.44849e-08
5.18363e-08
3.60378e-08
2.50022e-08
1.73528e-08
1.20126e-08
8.31557e-09
5.75096e-09
3.9746e-09
2.74225e-09
1.88738e-09
1.27676e-09
8.77076e-10
5.9952e-10
4.10783e-10
2.9976e-10
1.88738e-10
1.33227e-10
8.88178e-11
4.44089e-11