/*--------------------------------*- C++ -*----------------------------------*\
| =========                 |                                                 |
| \\      /  F ield         | OpenFOAM: The Open Source CFD Toolbox           |
|  \\    /   O peration     | Version:  2406                                  |
|   \\  /    A nd           | Website:  www.openfoam.com                      |
|    \\/     M anipulation  |                                                 |
\*---------------------------------------------------------------------------*/
FoamFile
{
    version     2.0;
    format      ascii;
    arch        "LSB;label=32;scalar=64";
    class       volScalarField;
    location    "10";
    object      gradTx;
}
// * * * * * * * * * * * * * * * * * * * * * * * * * * * * * * * * * * * * * //

dimensions      [0 -1 0 1 0 0 0];

internalField   nonuniform List<scalar> 
20000
(
-2.24318
-1.89883
-1.59897
-1.33946
-1.11626
-0.925466
-0.763361
-0.626497
-0.51163
-0.415764
-0.336231
-0.270638
-0.21684
-0.17295
-0.137329
-0.108572
-0.0854737
-0.067014
-0.0523318
-0.0407078
-0.0315459
-0.0243557
-0.0187366
-0.0143632
-0.010973
-0.00835511
-0.00634119
-0.00479755
-0.00361857
-0.0027212
-0.00204044
-0.00152567
-0.00113763
-0.00084602
-0.000627517
-0.000464265
-0.000342632
-0.000252254
-0.000185278
-0.00013577
-9.92677e-05
-7.24193e-05
-5.27189e-05
-3.82968e-05
-2.77629e-05
-2.0086e-05
-1.45032e-05
-1.04518e-05
-7.51796e-06
-5.3976e-06
-3.86825e-06
-2.76728e-06
-1.97616e-06
-1.40882e-06
-1.00264e-06
-7.12408e-07
-5.05374e-07
-3.57891e-07
-2.53075e-07
-1.78679e-07
-1.25966e-07
-8.86624e-08
-6.23279e-08
-4.37539e-08
-3.06422e-08
-2.14717e-08
-1.49769e-08
-1.04583e-08
-7.30527e-09
-5.08482e-09
-3.51941e-09
-2.44249e-09
-1.68754e-09
-1.18794e-09
-8.10463e-10
-5.66214e-10
-3.9968e-10
-2.55351e-10
-1.9984e-10
-1.22125e-10
-8.88178e-11
-6.66134e-11
-5.55112e-11
0
-1.11022e-11
-2.22045e-11
0
0
0
-3.33067e-11
0
1.11022e-11
0
1.11022e-11
1.11022e-11
-1.11022e-11
-1.11022e-11
1.11022e-11
0
0
-6.72898
-5.69603
-4.79652
-4.01805
-3.34849
-2.77616
-2.28992
-1.87935
-1.53475
-1.24718
-1.00862
-0.811855
-0.650468
-0.518803
-0.411951
-0.325687
-0.2564
-0.201027
-0.156983
-0.122114
-0.09463
-0.073061
-0.0562049
-0.043086
-0.0329162
-0.0250632
-0.0190219
-0.0143914
-0.0108548
-0.00816293
-0.00612082
-0.00457663
-0.00341263
-0.00253786
-0.00188241
-0.00139269
-0.00102782
-0.000756709
-0.000555794
-0.000407284
-0.000297784
-0.000217245
-0.000158147
-0.000114884
-8.32847e-05
-6.02551e-05
-4.35077e-05
-3.13544e-05
-2.25532e-05
-1.61924e-05
-1.16045e-05
-8.30168e-06
-5.92849e-06
-4.22647e-06
-3.00798e-06
-2.13727e-06
-1.51613e-06
-1.07374e-06
-7.59293e-07
-5.36071e-07
-3.77909e-07
-2.66021e-07
-1.86973e-07
-1.31239e-07
-9.1982e-08
-6.43818e-08
-4.4964e-08
-3.13971e-08
-2.18825e-08
-1.52323e-08
-1.05915e-08
-7.34968e-09
-5.10703e-09
-3.53051e-09
-2.44249e-09
-1.70974e-09
-1.14353e-09
-7.88258e-10
-5.55112e-10
-3.77476e-10
-2.77556e-10
-1.77636e-10
-1.22125e-10
-5.55112e-11
-4.44089e-11
-7.77156e-11
-3.33067e-11
0
-1.11022e-11
-1.11022e-11
0
-1.11022e-11
0
0
1.11022e-11
0
0
1.11022e-11
0
0
-11.2131
-9.49183
-7.99288
-6.69564
-5.57988
-4.62617
-3.81591
-3.13173
-2.55748
-2.07829
-1.68076
-1.35288
-1.08394
-0.864527
-0.686468
-0.54272
-0.427264
-0.334991
-0.261598
-0.203491
-0.157691
-0.121748
-0.0936592
-0.0717978
-0.054851
-0.0417649
-0.0316979
-0.0239817
-0.0180883
-0.0136026
-0.0101997
-0.00762648
-0.00568679
-0.00422909
-0.00313685
-0.00232078
-0.00171277
-0.00126099
-0.000926181
-0.000678703
-0.000496233
-0.000362022
-0.000263541
-0.000191447
-0.000138789
-0.000100412
-7.25037e-05
-5.2251e-05
-3.75844e-05
-2.69845e-05
-1.93389e-05
-1.38348e-05
-9.87996e-06
-7.04352e-06
-5.01293e-06
-3.5619e-06
-2.52671e-06
-1.78952e-06
-1.26541e-06
-8.93441e-07
-6.29852e-07
-4.43356e-07
-3.11651e-07
-2.18736e-07
-1.53288e-07
-1.07259e-07
-7.49956e-08
-5.23359e-08
-3.64708e-08
-2.53797e-08
-1.76525e-08
-1.22458e-08
-8.50431e-09
-5.89528e-09
-4.09672e-09
-2.80886e-09
-1.93179e-09
-1.31006e-09
-9.21485e-10
-6.43929e-10
-4.44089e-10
-2.88658e-10
-1.9984e-10
-1.33227e-10
-7.77156e-11
-7.77156e-11
-5.55112e-11
-5.55112e-11
-1.11022e-11
1.11022e-11
-1.11022e-11
0
0
0
0
-1.11022e-11
0
1.11022e-11
1.11022e-11
0
-15.6945
-13.2853
-11.1873
-9.37158
-7.80992
-6.47504
-5.34096
-4.38334
-3.57958
-2.90888
-2.35249
-1.89357
-1.51714
-1.21003
-0.960814
-0.759619
-0.598023
-0.468873
-0.366148
-0.284818
-0.220713
-0.170405
-0.13109
-0.100492
-0.0767721
-0.0584561
-0.0443659
-0.033566
-0.0253174
-0.019039
-0.014276
-0.0106744
-0.00795956
-0.00591929
-0.00439052
-0.00324832
-0.0023973
-0.00176496
-0.00129635
-0.000949967
-0.000694569
-0.000506718
-0.000368877
-0.000267969
-0.000194264
-0.000140548
-0.000101485
-7.31374e-05
-5.26084e-05
-3.77716e-05
-2.70698e-05
-1.93656e-05
-1.38298e-05
-9.8595e-06
-7.01722e-06
-4.98601e-06
-3.537e-06
-2.50507e-06
-1.77143e-06
-1.25073e-06
-8.81728e-07
-6.2067e-07
-4.36273e-07
-3.06233e-07
-2.14606e-07
-1.50224e-07
-1.04972e-07
-7.32525e-08
-5.10814e-08
-3.55382e-08
-2.46914e-08
-1.71529e-08
-1.19238e-08
-8.24896e-09
-5.69544e-09
-3.93019e-09
-2.72005e-09
-1.86517e-09
-1.27676e-09
-9.10383e-10
-5.9952e-10
-4.21885e-10
-2.66454e-10
-1.9984e-10
-1.33227e-10
-9.99201e-11
-5.55112e-11
-5.55112e-11
-4.44089e-11
0
1.11022e-11
0
-2.22045e-11
0
1.11022e-11
0
-1.11022e-11
1.11022e-11
1.11022e-11
0
-20.172
-17.0755
-14.3789
-12.0452
-10.038
-8.32231
-6.86469
-5.63387
-4.6008
-3.73876
-3.02364
-2.43379
-1.94996
-1.55524
-1.23492
-0.976331
-0.768635
-0.602641
-0.470609
-0.366075
-0.283681
-0.21902
-0.168488
-0.12916
-0.098674
-0.0751327
-0.0570228
-0.0431419
-0.0325401
-0.0244706
-0.0183489
-0.0137198
-0.0102304
-0.00760804
-0.00564314
-0.00417507
-0.00308126
-0.00226852
-0.00166622
-0.00122101
-0.000892744
-0.000651298
-0.00047413
-0.000344431
-0.000249697
-0.000180654
-0.000130445
-9.40088e-05
-6.76219e-05
-4.85513e-05
-3.47957e-05
-2.48929e-05
-1.77772e-05
-1.26739e-05
-9.0203e-06
-6.40935e-06
-4.54676e-06
-3.22029e-06
-2.27723e-06
-1.60785e-06
-1.13352e-06
-7.97917e-07
-5.60862e-07
-3.93685e-07
-2.75913e-07
-1.93123e-07
-1.34948e-07
-9.41913e-08
-6.56697e-08
-4.5719e-08
-3.17746e-08
-2.20601e-08
-1.53211e-08
-1.05915e-08
-7.31637e-09
-5.07372e-09
-3.475e-09
-2.40918e-09
-1.65423e-09
-1.14353e-09
-7.77156e-10
-5.32907e-10
-3.66374e-10
-2.55351e-10
-1.55431e-10
-1.22125e-10
-8.88178e-11
-5.55112e-11
-5.55112e-11
0
0
-2.22045e-11
0
0
0
0
-2.22045e-11
2.22045e-11
1.11022e-11
1.11022e-11
-24.6445
-20.8614
-17.567
-14.7159
-12.2636
-10.1675
-8.38673
-6.88301
-5.62089
-4.56772
-3.69404
-2.97341
-2.3823
-1.90007
-1.50873
-1.1928
-0.939058
-0.73626
-0.574954
-0.447242
-0.346579
-0.267581
-0.205845
-0.157797
-0.120551
-0.0917907
-0.0696656
-0.0527072
-0.0397548
-0.0298961
-0.0224172
-0.0167618
-0.0124987
-0.00929494
-0.00689438
-0.00510081
-0.00376448
-0.00277154
-0.00203569
-0.00149176
-0.00109071
-0.000795727
-0.000579274
-0.000420815
-0.000305073
-0.000220721
-0.000159377
-0.00011486
-8.26213e-05
-5.93211e-05
-4.25145e-05
-3.04152e-05
-2.17213e-05
-1.54858e-05
-1.10218e-05
-7.8316e-06
-5.55576e-06
-3.935e-06
-2.78267e-06
-1.96475e-06
-1.38515e-06
-9.75064e-07
-6.85385e-07
-4.81082e-07
-3.37186e-07
-2.35989e-07
-1.64935e-07
-1.15119e-07
-8.02691e-08
-5.58886e-08
-3.88467e-08
-2.69562e-08
-1.86962e-08
-1.29563e-08
-8.9595e-09
-6.18394e-09
-4.26326e-09
-2.94209e-09
-2.02061e-09
-1.38778e-09
-9.54792e-10
-6.66134e-10
-4.32987e-10
-2.9976e-10
-2.10942e-10
-1.66533e-10
-9.99201e-11
-5.55112e-11
-4.44089e-11
-3.33067e-11
-1.11022e-11
-1.11022e-11
-2.22045e-11
0
1.11022e-11
1.11022e-11
0
1.11022e-11
1.11022e-11
1.11022e-11
-29.111
-24.6422
-20.7507
-17.3829
-14.4862
-12.0102
-9.90669
-8.13046
-6.63958
-5.39555
-4.36353
-3.51229
-2.81406
-2.24442
-1.78216
-1.40898
-1.10925
-0.869698
-0.679157
-0.528298
-0.409391
-0.316075
-0.243151
-0.186395
-0.142399
-0.108426
-0.0822911
-0.0622593
-0.0469597
-0.0353143
-0.0264799
-0.0197996
-0.0147639
-0.0109796
-0.00814394
-0.00602531
-0.00444679
-0.00327389
-0.00240467
-0.00176216
-0.00128842
-0.000939969
-0.000684284
-0.000497102
-0.000360381
-0.000260737
-0.000188273
-0.000135686
-9.76028e-05
-7.00784e-05
-5.02246e-05
-3.59314e-05
-2.5661e-05
-1.82948e-05
-1.30212e-05
-9.25238e-06
-6.56375e-06
-4.64903e-06
-3.28763e-06
-2.32133e-06
-1.63656e-06
-1.15207e-06
-8.09808e-07
-5.68423e-07
-3.98404e-07
-2.78855e-07
-1.94911e-07
-1.36047e-07
-9.48464e-08
-6.60361e-08
-4.58855e-08
-3.18634e-08
-2.21045e-08
-1.531e-08
-1.05804e-08
-7.31637e-09
-5.06262e-09
-3.4639e-09
-2.38698e-09
-1.63203e-09
-1.13243e-09
-7.77156e-10
-5.21805e-10
-3.44169e-10
-2.55351e-10
-1.77636e-10
-1.33227e-10
-7.77156e-11
-4.44089e-11
-4.44089e-11
-2.22045e-11
-2.22045e-11
-1.11022e-11
0
2.22045e-11
1.11022e-11
1.11022e-11
1.11022e-11
0
1.11022e-11
-33.5702
-28.417
-23.9294
-20.0456
-16.7053
-13.85
-11.4242
-9.37589
-7.65665
-6.22205
-5.03195
-4.05031
-3.24512
-2.58822
-2.05515
-1.62481
-1.27917
-1.00292
-0.783193
-0.609224
-0.472103
-0.364492
-0.280396
-0.214946
-0.164211
-0.125034
-0.0948962
-0.0717961
-0.0541529
-0.0407238
-0.0305362
-0.0228326
-0.0170256
-0.0126615
-0.00939151
-0.00694834
-0.00512802
-0.00377545
-0.00277307
-0.00203214
-0.00148582
-0.00108399
-0.000789133
-0.000573274
-0.000415605
-0.000300694
-0.000217127
-0.000156482
-0.000112563
-8.08203e-05
-5.79238e-05
-4.144e-05
-2.95954e-05
-2.11e-05
-1.5018e-05
-1.06714e-05
-7.57051e-06
-5.36214e-06
-3.792e-06
-2.67748e-06
-1.8877e-06
-1.32887e-06
-9.34119e-07
-6.55664e-07
-4.59577e-07
-3.21676e-07
-2.24842e-07
-1.56952e-07
-1.09412e-07
-7.61613e-08
-5.29576e-08
-3.67595e-08
-2.54907e-08
-1.76525e-08
-1.22458e-08
-8.42659e-09
-5.80647e-09
-4.01901e-09
-2.77556e-09
-1.89848e-09
-1.27676e-09
-9.10383e-10
-6.21725e-10
-3.9968e-10
-2.66454e-10
-2.10942e-10
-1.55431e-10
-9.99201e-11
-5.55112e-11
-3.33067e-11
-3.33067e-11
-2.22045e-11
-1.11022e-11
1.11022e-11
0
1.11022e-11
2.22045e-11
0
1.11022e-11
1.11022e-11
-38.0212
-32.1847
-27.1021
-22.7034
-18.9202
-15.6863
-12.9389
-10.619
-8.67182
-7.04701
-5.69912
-4.58733
-3.67537
-2.93138
-2.32764
-1.84024
-1.44877
-1.1359
-0.887035
-0.69
-0.534697
-0.412818
-0.317572
-0.243445
-0.185983
-0.141612
-0.107478
-0.0813151
-0.0613328
-0.0461232
-0.0345849
-0.0258599
-0.019283
-0.0143403
-0.0106368
-0.00786968
-0.00580801
-0.00427609
-0.0031408
-0.00230162
-0.00168287
-0.00122775
-0.000893795
-0.00064931
-0.000470732
-0.000340582
-0.000245931
-0.000177243
-0.000127498
-9.15443e-05
-6.56103e-05
-4.69396e-05
-3.35235e-05
-2.39008e-05
-1.70116e-05
-1.20882e-05
-8.57576e-06
-6.0742e-06
-4.29562e-06
-3.03315e-06
-2.13848e-06
-1.50543e-06
-1.05825e-06
-7.42817e-07
-5.20661e-07
-3.64442e-07
-2.54752e-07
-1.77836e-07
-1.23956e-07
-8.62754e-08
-6.00187e-08
-4.16667e-08
-2.88991e-08
-2.00173e-08
-1.38223e-08
-9.57012e-09
-6.59472e-09
-4.54081e-09
-3.14193e-09
-2.14273e-09
-1.4766e-09
-1.02141e-09
-6.99441e-10
-4.88498e-10
-2.9976e-10
-2.22045e-10
-1.66533e-10
-1.11022e-10
-6.66134e-11
-5.55112e-11
-2.22045e-11
-1.11022e-11
0
0
0
1.11022e-11
1.11022e-11
0
0
2.22045e-11
-42.4628
-35.9445
-30.2681
-25.3556
-21.1304
-17.5188
-14.4504
-11.8595
-9.68485
-7.87024
-6.36488
-5.12321
-4.10473
-3.27382
-2.59955
-2.05522
-1.61802
-1.26859
-0.990659
-0.770606
-0.59716
-0.461042
-0.35467
-0.271883
-0.207708
-0.158154
-0.120033
-0.0908141
-0.0684975
-0.0515112
-0.0386251
-0.0288809
-0.0215357
-0.0160156
-0.0118794
-0.00878909
-0.00648657
-0.00477569
-0.00350777
-0.00257055
-0.00187951
-0.00137122
-0.000998244
-0.000725193
-0.000525748
-0.000380389
-0.000274678
-0.000197962
-0.000142403
-0.000102247
-7.32821e-05
-5.24288e-05
-3.74441e-05
-2.66964e-05
-1.90016e-05
-1.35024e-05
-9.57919e-06
-6.78504e-06
-4.79838e-06
-3.38821e-06
-2.38886e-06
-1.68172e-06
-1.18219e-06
-8.29825e-07
-5.81657e-07
-4.07152e-07
-2.84606e-07
-1.98674e-07
-1.38489e-07
-9.64118e-08
-6.70353e-08
-4.65628e-08
-3.22853e-08
-2.23599e-08
-1.54654e-08
-1.06581e-08
-7.38298e-09
-5.08482e-09
-3.5083e-09
-2.40918e-09
-1.65423e-09
-1.14353e-09
-7.77156e-10
-5.10703e-10
-3.66374e-10
-2.44249e-10
-1.66533e-10
-1.33227e-10
-7.77156e-11
-6.66134e-11
-4.44089e-11
0
0
0
1.11022e-11
1.11022e-11
1.11022e-11
-1.11022e-11
1.11022e-11
1.11022e-11
-46.8939
-39.6954
-33.4267
-28.0015
-23.3354
-19.3469
-15.9584
-13.0971
-10.6955
-8.69152
-7.02908
-5.65784
-4.53307
-3.61546
-2.87082
-2.26969
-1.78686
-1.40098
-1.09404
-0.851021
-0.659475
-0.509152
-0.39168
-0.300254
-0.229383
-0.174657
-0.132558
-0.100291
-0.0756453
-0.0568866
-0.0426558
-0.0318948
-0.0237831
-0.017687
-0.0131192
-0.00970635
-0.00716355
-0.00527412
-0.00387389
-0.00283886
-0.0020757
-0.00151436
-0.00110245
-0.000800903
-0.00058064
-0.000420107
-0.00030336
-0.000218635
-0.000157276
-0.000112927
-8.09371e-05
-5.79061e-05
-4.13564e-05
-2.94861e-05
-2.09875e-05
-1.49138e-05
-1.05806e-05
-7.49445e-06
-5.30016e-06
-3.74256e-06
-2.63871e-06
-1.85768e-06
-1.3059e-06
-9.16656e-07
-6.42564e-07
-4.49796e-07
-3.14415e-07
-2.19491e-07
-1.53e-07
-1.06515e-07
-7.4063e-08
-5.14144e-08
-3.56604e-08
-2.47136e-08
-1.70863e-08
-1.18017e-08
-8.12683e-09
-5.62883e-09
-3.88578e-09
-2.66454e-09
-1.82077e-09
-1.26565e-09
-8.54872e-10
-5.9952e-10
-3.88578e-10
-2.77556e-10
-1.66533e-10
-1.44329e-10
-7.77156e-11
-5.55112e-11
-4.44089e-11
-2.22045e-11
-2.22045e-11
1.11022e-11
2.22045e-11
0
1.11022e-11
1.11022e-11
-1.11022e-11
0
-51.3135
-43.4365
-36.577
-30.6406
-25.5347
-21.1703
-17.4624
-14.3314
-11.7035
-9.51066
-7.69154
-6.19106
-4.96029
-3.9562
-3.14138
-2.4836
-1.95527
-1.53302
-1.19715
-0.931226
-0.721627
-0.557137
-0.428593
-0.328551
-0.251
-0.191118
-0.145051
-0.109742
-0.0827745
-0.0622479
-0.0466759
-0.0349008
-0.0260246
-0.019354
-0.0143557
-0.0106212
-0.00783877
-0.00577127
-0.00423907
-0.00310648
-0.00227138
-0.00165713
-0.0012064
-0.00087642
-0.000635392
-0.000459725
-0.000331971
-0.000239257
-0.000172111
-0.000123581
-8.85735e-05
-6.33701e-05
-4.52593e-05
-3.22691e-05
-2.29686e-05
-1.63218e-05
-1.15796e-05
-8.20223e-06
-5.80078e-06
-4.09611e-06
-2.88805e-06
-2.03325e-06
-1.42933e-06
-1.00334e-06
-7.03326e-07
-4.92317e-07
-3.44147e-07
-2.40241e-07
-1.67488e-07
-1.16629e-07
-8.10907e-08
-5.62994e-08
-3.90354e-08
-2.70339e-08
-1.87073e-08
-1.29119e-08
-8.92619e-09
-6.16174e-09
-4.26326e-09
-2.91989e-09
-1.9873e-09
-1.37668e-09
-9.32587e-10
-6.43929e-10
-4.32987e-10
-2.88658e-10
-1.88738e-10
-1.33227e-10
-9.99201e-11
-7.77156e-11
-4.44089e-11
-3.33067e-11
0
0
0
1.11022e-11
1.11022e-11
-1.11022e-11
0
0
-55.7204
-47.1669
-39.7183
-33.272
-27.7277
-22.9884
-18.9621
-15.5622
-12.7086
-10.3275
-8.3521
-6.72276
-5.38628
-4.29596
-3.41117
-2.69689
-2.12319
-1.66467
-1.29996
-1.0112
-0.783601
-0.604984
-0.4654
-0.356766
-0.272556
-0.207531
-0.157508
-0.119167
-0.0898832
-0.0675938
-0.0506846
-0.0378982
-0.0282598
-0.0210163
-0.0155887
-0.0115335
-0.00851208
-0.00626701
-0.0046032
-0.00337334
-0.00246651
-0.0017995
-0.00131005
-0.000951726
-0.000689992
-0.000499233
-0.000360502
-0.000259822
-0.000186906
-0.000134205
-9.61891e-05
-6.88194e-05
-4.91517e-05
-3.50447e-05
-2.49446e-05
-1.77261e-05
-1.25761e-05
-8.90816e-06
-6.30013e-06
-4.44881e-06
-3.13675e-06
-2.20836e-06
-1.55247e-06
-1.08977e-06
-7.63956e-07
-5.34761e-07
-3.73834e-07
-2.6098e-07
-1.81932e-07
-1.26654e-07
-8.80851e-08
-6.11844e-08
-4.24216e-08
-2.93543e-08
-2.03171e-08
-1.40554e-08
-9.69225e-09
-6.68354e-09
-4.62963e-09
-3.17524e-09
-2.16493e-09
-1.4877e-09
-1.02141e-09
-6.77236e-10
-4.77396e-10
-3.33067e-10
-1.9984e-10
-1.55431e-10
-1.11022e-10
-6.66134e-11
-5.55112e-11
-3.33067e-11
-1.11022e-11
0
0
2.22045e-11
0
-1.11022e-11
-1.11022e-11
0
-60.1135
-50.8857
-42.8498
-35.8953
-29.9138
-24.8009
-20.4571
-16.7892
-13.7106
-11.1417
-9.01061
-7.2528
-5.81095
-4.63467
-3.68011
-2.90952
-2.29059
-1.79592
-1.40245
-1.09093
-0.845382
-0.652682
-0.502093
-0.384894
-0.294044
-0.223893
-0.169926
-0.128562
-0.0969698
-0.0729231
-0.0546807
-0.0408863
-0.0304879
-0.0226734
-0.0168179
-0.0124429
-0.00918329
-0.00676121
-0.00496621
-0.00363937
-0.00266104
-0.00194143
-0.00141338
-0.0010268
-0.000744425
-0.00053862
-0.000388947
-0.000280325
-0.000201657
-0.000144798
-0.000103782
-7.42525e-05
-5.30326e-05
-3.78121e-05
-2.69147e-05
-1.91264e-05
-1.35697e-05
-9.61209e-06
-6.79805e-06
-4.80046e-06
-3.38475e-06
-2.38299e-06
-1.67528e-06
-1.17601e-06
-8.24407e-07
-5.77083e-07
-4.03433e-07
-2.81641e-07
-1.96354e-07
-1.36702e-07
-9.50573e-08
-6.6025e-08
-4.57745e-08
-3.16858e-08
-2.19491e-08
-1.51767e-08
-1.04583e-08
-7.21645e-09
-4.9849e-09
-3.40838e-09
-2.33147e-09
-1.62093e-09
-1.09912e-09
-7.66054e-10
-5.10703e-10
-3.44169e-10
-2.44249e-10
-1.55431e-10
-1.22125e-10
-7.77156e-11
-3.33067e-11
-3.33067e-11
-3.33067e-11
0
0
1.11022e-11
-1.11022e-11
0
-1.11022e-11
-1.11022e-11
-64.4918
-54.5919
-45.9708
-38.5097
-32.0925
-26.6072
-21.9471
-18.012
-14.7092
-11.9532
-9.66689
-7.78106
-6.23419
-4.97223
-3.94815
-3.12144
-2.45743
-1.92673
-1.5046
-1.17038
-0.906954
-0.700219
-0.538662
-0.412927
-0.31546
-0.240199
-0.182302
-0.137926
-0.104032
-0.0782344
-0.0586634
-0.0438643
-0.0327086
-0.0243249
-0.0180429
-0.0133493
-0.00985225
-0.00725375
-0.00532801
-0.00390452
-0.00285492
-0.00208289
-0.00151637
-0.00110163
-0.000798678
-0.000577878
-0.000417298
-0.00030076
-0.000216359
-0.000155355
-0.00011135
-7.96681e-05
-5.6901e-05
-4.05707e-05
-2.88786e-05
-2.05222e-05
-1.45602e-05
-1.03138e-05
-7.29443e-06
-5.15105e-06
-3.63199e-06
-2.55711e-06
-1.79768e-06
-1.26198e-06
-8.84681e-07
-6.19294e-07
-4.32931e-07
-3.02247e-07
-2.10731e-07
-1.46716e-07
-1.02018e-07
-7.08655e-08
-4.91163e-08
-3.40172e-08
-2.35589e-08
-1.62648e-08
-1.12466e-08
-7.74936e-09
-5.35127e-09
-3.65263e-09
-2.5091e-09
-1.70974e-09
-1.19904e-09
-8.21565e-10
-5.44009e-10
-3.88578e-10
-2.66454e-10
-1.66533e-10
-1.22125e-10
-8.88178e-11
-2.22045e-11
-3.33067e-11
-4.44089e-11
-1.11022e-11
1.11022e-11
0
-2.22045e-11
-1.11022e-11
-1.11022e-11
0
-68.8542
-58.2846
-49.0803
-41.1146
-34.2633
-28.407
-23.4316
-19.2304
-15.7041
-12.7617
-10.3208
-8.30739
-6.65588
-5.30856
-4.21522
-3.33258
-2.62365
-2.05706
-1.60638
-1.24955
-0.968302
-0.747583
-0.575097
-0.440857
-0.336798
-0.256446
-0.194633
-0.147255
-0.111069
-0.0835263
-0.0626316
-0.0468315
-0.0349212
-0.0259704
-0.0192635
-0.0142524
-0.0105188
-0.00774451
-0.0056885
-0.00416871
-0.0030481
-0.00222384
-0.00161899
-0.00117619
-0.000852736
-0.000616995
-0.000445548
-0.000321123
-0.000231009
-0.000165876
-0.000118892
-8.50646e-05
-6.07559e-05
-4.33196e-05
-3.08356e-05
-2.19131e-05
-1.55472e-05
-1.10131e-05
-7.78909e-06
-5.50043e-06
-3.87841e-06
-2.73062e-06
-1.91972e-06
-1.34767e-06
-9.44733e-07
-6.6136e-07
-4.62352e-07
-3.22797e-07
-2.25042e-07
-1.56697e-07
-1.08979e-07
-7.56728e-08
-5.24469e-08
-3.63487e-08
-2.51577e-08
-1.73861e-08
-1.20015e-08
-8.29337e-09
-5.69544e-09
-3.90799e-09
-2.69784e-09
-1.86517e-09
-1.25455e-09
-8.54872e-10
-5.77316e-10
-4.21885e-10
-2.77556e-10
-1.88738e-10
-1.22125e-10
-9.99201e-11
-3.33067e-11
-3.33067e-11
-3.33067e-11
-3.33067e-11
0
0
-1.11022e-11
-1.11022e-11
-1.11022e-11
-1.11022e-11
-73.1996
-61.963
-52.1778
-43.7093
-36.4257
-30.1998
-24.9104
-20.4441
-16.6952
-13.5671
-10.9721
-8.83167
-7.07594
-5.64358
-4.48124
-3.5429
-2.78924
-2.18688
-1.70776
-1.32841
-1.02941
-0.794762
-0.611391
-0.468679
-0.358053
-0.27263
-0.206917
-0.156548
-0.118079
-0.0887977
-0.0665844
-0.0497871
-0.0371252
-0.0276095
-0.0204793
-0.015152
-0.0111827
-0.00823336
-0.00604759
-0.00443187
-0.00324053
-0.00236424
-0.00172122
-0.00125046
-0.000906587
-0.000655962
-0.000473689
-0.000341408
-0.000245603
-0.000176357
-0.000126405
-9.04406e-05
-6.45962e-05
-4.60583e-05
-3.27853e-05
-2.32989e-05
-1.65306e-05
-1.17098e-05
-8.28195e-06
-5.84855e-06
-4.1239e-06
-2.9035e-06
-2.04128e-06
-1.43304e-06
-1.0046e-06
-7.03282e-07
-4.91673e-07
-3.43259e-07
-2.39309e-07
-1.66633e-07
-1.15885e-07
-8.04801e-08
-5.57998e-08
-3.8658e-08
-2.67675e-08
-1.84852e-08
-1.27454e-08
-8.78186e-09
-6.07292e-09
-4.18554e-09
-2.88658e-09
-1.9762e-09
-1.32117e-09
-8.99281e-10
-6.21725e-10
-4.32987e-10
-2.88658e-10
-2.10942e-10
-1.33227e-10
-1.11022e-10
-6.66134e-11
-4.44089e-11
-3.33067e-11
-1.11022e-11
0
0
-2.22045e-11
0
-1.11022e-11
-2.22045e-11
-77.527
-65.6261
-55.2624
-46.2933
-38.5791
-31.9851
-26.383
-21.6527
-17.6822
-14.3692
-11.6208
-9.35377
-7.49425
-5.97722
-4.74616
-3.75235
-2.95413
-2.31616
-1.80871
-1.40694
-1.09027
-0.841746
-0.647534
-0.496386
-0.37922
-0.288747
-0.219149
-0.165803
-0.125059
-0.0940472
-0.0705207
-0.0527305
-0.0393201
-0.0292418
-0.0216901
-0.0160479
-0.0118439
-0.00872019
-0.00640519
-0.00469395
-0.00343217
-0.00250407
-0.00182302
-0.00132442
-0.000960216
-0.000694768
-0.000501716
-0.000361609
-0.000260138
-0.000186794
-0.000133887
-9.57948e-05
-6.84209e-05
-4.87858e-05
-3.47271e-05
-2.46791e-05
-1.751e-05
-1.24037e-05
-8.77286e-06
-6.19528e-06
-4.36843e-06
-3.07571e-06
-2.16238e-06
-1.51805e-06
-1.06424e-06
-7.45037e-07
-5.20883e-07
-3.63631e-07
-2.53519e-07
-1.76559e-07
-1.22768e-07
-8.52651e-08
-5.91305e-08
-4.09672e-08
-2.83329e-08
-1.95954e-08
-1.35114e-08
-9.32587e-09
-6.42819e-09
-4.42979e-09
-3.05311e-09
-2.08722e-09
-1.40998e-09
-9.65894e-10
-6.55032e-10
-4.55191e-10
-3.10862e-10
-1.9984e-10
-1.33227e-10
-1.22125e-10
-7.77156e-11
-6.66134e-11
-3.33067e-11
-2.22045e-11
1.11022e-11
1.11022e-11
-1.11022e-11
-2.22045e-11
-1.11022e-11
-2.22045e-11
-81.8352
-69.2729
-58.3334
-48.8659
-40.7229
-33.7625
-27.8492
-22.8559
-18.6648
-15.1677
-12.2665
-9.87357
-7.91071
-6.30937
-5.0099
-3.96087
-3.11829
-2.44487
-1.90923
-1.48513
-1.15085
-0.888521
-0.683517
-0.523969
-0.400293
-0.304793
-0.231327
-0.175017
-0.132009
-0.0992735
-0.0744397
-0.0556609
-0.0415052
-0.0308669
-0.0228956
-0.0169398
-0.0125022
-0.00920488
-0.00676122
-0.00495487
-0.00362297
-0.00264328
-0.00192438
-0.00139806
-0.00101361
-0.000733405
-0.000529619
-0.000381723
-0.000274609
-0.000197187
-0.000141337
-0.000101126
-7.22291e-05
-5.15015e-05
-3.66606e-05
-2.60533e-05
-1.84853e-05
-1.30947e-05
-9.26166e-06
-6.54055e-06
-4.61193e-06
-3.24719e-06
-2.28294e-06
-1.60275e-06
-1.12361e-06
-7.86604e-07
-5.49927e-07
-3.83948e-07
-2.67697e-07
-1.86406e-07
-1.2963e-07
-9.00391e-08
-6.245e-08
-4.32654e-08
-2.99427e-08
-2.06724e-08
-1.42886e-08
-9.83658e-09
-6.79456e-09
-4.65183e-09
-3.21965e-09
-2.22045e-09
-1.4988e-09
-9.99201e-10
-6.99441e-10
-4.77396e-10
-3.21965e-10
-2.22045e-10
-1.66533e-10
-1.11022e-10
-6.66134e-11
-4.44089e-11
-5.55112e-11
-1.11022e-11
-1.11022e-11
0
-1.11022e-11
-2.22045e-11
-1.11022e-11
-2.22045e-11
-86.1232
-72.9027
-61.39
-51.4263
-42.8568
-35.5316
-29.3084
-24.0535
-19.6428
-15.9624
-12.9093
-10.3909
-8.32521
-6.63997
-5.27241
-4.16841
-3.28168
-2.57298
-2.00927
-1.56295
-1.21115
-0.935077
-0.719332
-0.551424
-0.421267
-0.320763
-0.243448
-0.184187
-0.138926
-0.104475
-0.0783403
-0.0585775
-0.0436801
-0.0324844
-0.0240954
-0.0178275
-0.0131574
-0.0096873
-0.00711558
-0.00521458
-0.00381287
-0.00278184
-0.00202526
-0.00147136
-0.00106675
-0.000771862
-0.000557393
-0.000401743
-0.000289013
-0.000207531
-0.000148752
-0.000106432
-7.60198e-05
-5.42048e-05
-3.85852e-05
-2.74214e-05
-1.9456e-05
-1.37825e-05
-9.74824e-06
-6.88424e-06
-4.85434e-06
-3.4179e-06
-2.403e-06
-1.68703e-06
-1.1827e-06
-8.28004e-07
-5.78892e-07
-4.04188e-07
-2.81775e-07
-1.96232e-07
-1.36446e-07
-9.47797e-08
-6.57696e-08
-4.55413e-08
-3.1497e-08
-2.17826e-08
-1.50435e-08
-1.03473e-08
-7.14984e-09
-4.92939e-09
-3.38618e-09
-2.28706e-09
-1.59872e-09
-1.06581e-09
-7.32747e-10
-4.996e-10
-3.21965e-10
-2.44249e-10
-1.66533e-10
-1.22125e-10
-8.88178e-11
-5.55112e-11
-3.33067e-11
-3.33067e-11
1.11022e-11
-1.11022e-11
-1.11022e-11
-1.11022e-11
-2.22045e-11
-2.22045e-11
-90.39
-76.5145
-64.4314
-53.9741
-44.98
-37.2919
-30.7604
-25.2452
-20.616
-16.7533
-13.5489
-10.9057
-8.73767
-6.96893
-5.53362
-4.37492
-3.44427
-2.70046
-2.10881
-1.64038
-1.27116
-0.981403
-0.754969
-0.578742
-0.442137
-0.336654
-0.255508
-0.193312
-0.145809
-0.109651
-0.0822215
-0.0614797
-0.0458443
-0.0340939
-0.0252893
-0.0187108
-0.0138094
-0.0101673
-0.0074682
-0.005473
-0.00400184
-0.00291972
-0.00212564
-0.00154429
-0.00111964
-0.00081013
-0.000585031
-0.000421665
-0.000303346
-0.000217825
-0.000156131
-0.000111713
-7.97919e-05
-5.68949e-05
-4.05004e-05
-2.87827e-05
-2.04221e-05
-1.4467e-05
-1.02325e-05
-7.22625e-06
-5.09557e-06
-3.58777e-06
-2.52247e-06
-1.77093e-06
-1.24155e-06
-8.69183e-07
-6.07692e-07
-4.24305e-07
-2.9583e-07
-2.05991e-07
-1.43263e-07
-9.95093e-08
-6.90226e-08
-4.78284e-08
-3.30957e-08
-2.28484e-08
-1.57874e-08
-1.08913e-08
-7.49401e-09
-5.14033e-09
-3.55271e-09
-2.43139e-09
-1.64313e-09
-1.15463e-09
-7.54952e-10
-5.32907e-10
-3.77476e-10
-2.44249e-10
-1.66533e-10
-1.11022e-10
-8.88178e-11
-5.55112e-11
-4.44089e-11
-3.33067e-11
0
-1.11022e-11
-1.11022e-11
-1.11022e-11
-3.33067e-11
0
-94.6345
-80.1075
-67.4569
-56.5086
-47.0921
-39.0431
-32.2049
-26.4306
-21.5841
-17.54
-14.1851
-11.4178
-9.14796
-7.29618
-5.79347
-4.58036
-3.606
-2.82726
-2.20783
-1.7174
-1.33085
-1.02749
-0.790419
-0.605918
-0.462898
-0.352462
-0.267506
-0.20239
-0.152656
-0.1148
-0.0860825
-0.0643668
-0.0479971
-0.035695
-0.0264769
-0.0195896
-0.014458
-0.0106449
-0.00781897
-0.00573007
-0.00418982
-0.00305687
-0.0022255
-0.00161685
-0.00117225
-0.000848199
-0.000612525
-0.000441483
-0.000317605
-0.000228065
-0.000163472
-0.000116966
-8.35445e-05
-5.95711e-05
-4.24058e-05
-3.0137e-05
-2.13832e-05
-1.5148e-05
-1.07142e-05
-7.56654e-06
-5.33555e-06
-3.75681e-06
-2.64134e-06
-1.85439e-06
-1.30007e-06
-9.10194e-07
-6.36358e-07
-4.443e-07
-3.09819e-07
-2.15727e-07
-1.50013e-07
-1.04206e-07
-7.22866e-08
-5.01044e-08
-3.46612e-08
-2.39253e-08
-1.65312e-08
-1.1402e-08
-7.86038e-09
-5.38458e-09
-3.73035e-09
-2.53131e-09
-1.74305e-09
-1.17684e-09
-7.88258e-10
-5.44009e-10
-3.88578e-10
-2.88658e-10
-1.66533e-10
-1.22125e-10
-8.88178e-11
-5.55112e-11
-5.55112e-11
-2.22045e-11
-1.11022e-11
0
-1.11022e-11
-1.11022e-11
-3.33067e-11
-1.11022e-11
-98.8556
-83.6806
-70.4658
-59.0292
-49.1927
-40.7846
-33.6414
-27.6096
-22.5468
-18.3223
-14.8178
-11.9271
-9.556
-7.62162
-6.05188
-4.78466
-3.76685
-2.95337
-2.30631
-1.79401
-1.39021
-1.07332
-0.825675
-0.632944
-0.483545
-0.368183
-0.279438
-0.211417
-0.159465
-0.119921
-0.0899223
-0.0672379
-0.0501382
-0.0372873
-0.0276581
-0.0204635
-0.015103
-0.0111198
-0.00816782
-0.00598574
-0.00437677
-0.00319328
-0.00232482
-0.00168901
-0.00122457
-0.000886059
-0.000639868
-0.000461193
-0.000331786
-0.000238249
-0.000170773
-0.00012219
-8.72767e-05
-6.22327e-05
-4.43008e-05
-3.1484e-05
-2.23391e-05
-1.58253e-05
-1.11933e-05
-7.90499e-06
-5.57427e-06
-3.9249e-06
-2.75956e-06
-1.93743e-06
-1.3583e-06
-9.50939e-07
-6.64868e-07
-4.64229e-07
-3.23686e-07
-2.25409e-07
-1.56763e-07
-1.08891e-07
-7.55285e-08
-5.23359e-08
-3.62155e-08
-2.50133e-08
-1.72751e-08
-1.19127e-08
-8.20455e-09
-5.62883e-09
-3.87468e-09
-2.66454e-09
-1.82077e-09
-1.23235e-09
-8.32667e-10
-5.88418e-10
-3.9968e-10
-2.88658e-10
-1.77636e-10
-1.11022e-10
-9.99201e-11
-6.66134e-11
-5.55112e-11
-3.33067e-11
0
0
-1.11022e-11
-1.11022e-11
-2.22045e-11
-2.22045e-11
-103.052
-87.2331
-73.4573
-61.5351
-51.2811
-42.516
-35.0695
-28.7817
-23.504
-19.1002
-15.4469
-12.4335
-9.96169
-7.94518
-6.3088
-4.98779
-3.92676
-3.07875
-2.40422
-1.87017
-1.44923
-1.11888
-0.860727
-0.659814
-0.504073
-0.383814
-0.291301
-0.220392
-0.166234
-0.125012
-0.0937399
-0.0700925
-0.0522668
-0.0388704
-0.0288323
-0.0213323
-0.0157442
-0.0115919
-0.00851465
-0.00623992
-0.00456264
-0.0033289
-0.00242356
-0.00176075
-0.00127659
-0.000923701
-0.000667054
-0.00048079
-0.000345885
-0.000248375
-0.000178032
-0.000127385
-9.09875e-05
-6.48791e-05
-4.61849e-05
-3.28232e-05
-2.32895e-05
-1.64987e-05
-1.16698e-05
-8.24151e-06
-5.81163e-06
-4.09208e-06
-2.8771e-06
-2.01998e-06
-1.41619e-06
-9.91485e-07
-6.93223e-07
-4.84035e-07
-3.37497e-07
-2.35012e-07
-1.63447e-07
-1.13531e-07
-7.87592e-08
-5.45786e-08
-3.77587e-08
-2.60791e-08
-1.80078e-08
-1.24123e-08
-8.55982e-09
-5.89528e-09
-4.05231e-09
-2.78666e-09
-1.87628e-09
-1.26565e-09
-8.88178e-10
-6.10623e-10
-4.10783e-10
-2.77556e-10
-1.9984e-10
-1.44329e-10
-9.99201e-11
-5.55112e-11
-5.55112e-11
-3.33067e-11
-1.11022e-11
0
-1.11022e-11
0
-3.33067e-11
-2.22045e-11
-107.224
-90.7641
-76.4307
-64.0259
-53.3568
-44.2369
-36.4891
-29.9467
-24.4554
-19.8733
-16.0721
-12.9367
-10.3649
-8.26678
-6.56417
-5.18968
-4.08571
-3.20337
-2.50154
-1.94587
-1.50789
-1.16417
-0.895567
-0.686521
-0.524476
-0.399349
-0.303092
-0.229313
-0.172963
-0.130072
-0.0975343
-0.0729298
-0.0543826
-0.0404439
-0.0299995
-0.0221959
-0.0163816
-0.0120612
-0.00885938
-0.00649257
-0.00474739
-0.0034637
-0.00252171
-0.00183206
-0.00132829
-0.000961116
-0.000694076
-0.000500268
-0.0003599
-0.000258439
-0.000185247
-0.000132548
-9.4676e-05
-6.75096e-05
-4.80578e-05
-3.41544e-05
-2.42342e-05
-1.71681e-05
-1.21433e-05
-8.57602e-06
-6.04754e-06
-4.25823e-06
-2.99397e-06
-2.10202e-06
-1.47375e-06
-1.03181e-06
-7.21401e-07
-5.03719e-07
-3.51208e-07
-2.44593e-07
-1.70097e-07
-1.18139e-07
-8.19567e-08
-5.6799e-08
-3.93241e-08
-2.7145e-08
-1.87406e-08
-1.29119e-08
-8.90399e-09
-6.12843e-09
-4.21885e-09
-2.88658e-09
-1.95399e-09
-1.34337e-09
-8.99281e-10
-6.32827e-10
-4.10783e-10
-3.10862e-10
-2.10942e-10
-1.44329e-10
-8.88178e-11
-7.77156e-11
-5.55112e-11
-4.44089e-11
-1.11022e-11
0
1.11022e-11
-2.22045e-11
-4.44089e-11
-1.11022e-11
-111.368
-94.2727
-79.3852
-66.5009
-55.4194
-45.947
-37.8996
-31.1043
-25.4007
-20.6415
-16.6934
-13.4368
-10.7656
-8.58634
-6.81791
-5.3903
-4.24365
-3.3272
-2.59824
-2.02109
-1.56618
-1.20917
-0.930185
-0.713059
-0.54475
-0.414786
-0.314808
-0.238178
-0.179649
-0.135101
-0.101305
-0.0757491
-0.0564849
-0.0420074
-0.0311593
-0.023054
-0.017015
-0.0125276
-0.00920193
-0.00674362
-0.00493096
-0.00359764
-0.00261923
-0.00190291
-0.00137967
-0.000998294
-0.000720926
-0.000519623
-0.000373825
-0.000268441
-0.000192416
-0.000137679
-9.83412e-05
-7.01235e-05
-4.99188e-05
-3.54773e-05
-2.5173e-05
-1.78333e-05
-1.26139e-05
-8.90843e-06
-6.28202e-06
-4.42334e-06
-3.11008e-06
-2.18359e-06
-1.53092e-06
-1.07183e-06
-7.49423e-07
-5.2327e-07
-3.64875e-07
-2.54097e-07