/*--------------------------------*- C++ -*----------------------------------*\
| =========                 |                                                 |
| \\      /  F ield         | OpenFOAM: The Open Source CFD Toolbox           |
|  \\    /   O peration     | Version:  2406                                  |
|   \\  /    A nd           | Website:  www.openfoam.com                      |
|    \\/     M anipulation  |                                                 |
\*---------------------------------------------------------------------------*/
FoamFile
{
    version     2.0;
    format      ascii;
    arch        "LSB;label=32;scalar=64";
    class       volScalarField;
    location    "160";
    object      gradTy;
}
// * * * * * * * * * * * * * * * * * * * * * * * * * * * * * * * * * * * * * //

dimensions      [0 -1 0 1 0 0 0];

internalField   nonuniform List<scalar> 
20000
(
-143.177
-128.829
-115.088
-101.965
-89.4681
-77.5998
-66.3593
-55.7444
-45.7492
-36.3649
-27.5801
-19.3818
-11.7554
-4.68479
1.84718
7.85879
13.3691
18.3979
22.9653
27.0918
30.798
34.1048
37.0327
39.6023
41.8339
43.7474
45.3625
46.6983
47.7734
48.6059
49.2134
49.6128
49.8204
49.8518
49.722
49.4454
49.0355
48.5054
47.8673
47.1329
46.3132
45.4185
44.4586
43.4424
42.3785
41.2749
40.1389
38.9772
37.7962
36.6016
35.3988
34.1927
32.9875
31.7875
30.596
29.4164
28.2516
27.1041
25.9762
24.8697
23.7864
22.7278
21.6948
20.6887
19.71
18.7594
17.8372
16.9438
16.079
15.243
14.4355
13.6563
12.9049
12.1809
11.4837
10.8126
10.167
9.54609
8.94906
8.37502
7.82309
7.29232
6.78173
6.29033
5.8171
5.361
4.92097
4.49594
4.08482
3.68654
3.29998
2.92404
2.55762
2.19959
1.84886
1.50429
1.16477
0.829171
0.496381
0.165274
-143.142
-128.797
-115.06
-101.941
-89.446
-77.5801
-66.3427
-55.7307
-45.7381
-36.3561
-27.5734
-19.3771
-11.7525
-4.68367
1.84669
7.85683
13.3658
18.3934
22.9596
27.0851
30.7904
34.0963
37.0235
39.5925
41.8235
43.7366
45.3513
46.6868
47.7616
48.5939
49.2013
49.6006
49.8081
49.8395
49.7097
49.4332
49.0234
48.4934
47.8555
47.1213
46.3018
45.4073
44.4476
43.4317
42.3681
41.2647
40.1289
38.9676
37.7868
36.5926
35.3901
34.1842
32.9794
31.7796
30.5885
29.4092
28.2446
27.0974
25.9697
24.8636
23.7806
22.7221
21.6895
20.6836
19.7052
18.7548
17.8328
16.9396
16.0751
15.2393
14.432
13.6529
12.9017
12.1779
11.4808
10.8099
10.1645
9.54374
8.94685
8.37296
7.82116
7.29052
6.78006
6.28878
5.81567
5.35968
4.91976
4.49483
4.08382
3.68563
3.29916
2.92332
2.55699
2.19905
1.8484
1.50392
1.16448
0.828966
0.496258
0.165232
-143.072
-128.735
-115.004
-101.89
-89.4017
-77.5415
-66.3098
-55.7033
-45.7157
-36.3383
-27.5599
-19.3676
-11.7468
-4.68142
1.84572
7.8529
13.3592
18.3842
22.9482
27.0717
30.7752
34.0795
37.0052
39.5729
41.8029
43.715
45.3289
46.6637
47.738
48.5699
49.177
49.5761
49.7835
49.8149
49.6852
49.4088
48.9992
48.4695
47.8319
47.098
46.279
45.3849
44.4257
43.4102
42.3472
41.2444
40.1091
38.9483
37.7682
36.5745
35.3726
34.1674
32.9631
31.7639
30.5734
29.3947
28.2307
27.0841
25.9569
24.8513
23.7688
22.7109
21.6788
20.6734
19.6954
18.7455
17.824
16.9312
16.0671
15.2317
14.4248
13.6462
12.8954
12.1719
11.4752
10.8046
10.1595
9.53903
8.94243
8.36883
7.8173
7.28692
6.77671
6.28568
5.8128
5.35704
4.91733
4.49261
4.0818
3.68381
3.29754
2.92188
2.55572
2.19797
1.84749
1.50317
1.1639
0.828556
0.496012
0.165151
-142.966
-128.64
-114.918
-101.814
-89.3351
-77.4839
-66.2607
-55.6621
-45.682
-36.3115
-27.5396
-19.3533
-11.7381
-4.67798
1.84434
7.84707
13.3493
18.3706
22.9312
27.0516
30.7524
34.0542
36.9778
39.5436
41.7719
43.6826
45.2953
46.6291
47.7026
48.5339
49.1406
49.5394
49.7466
49.778
49.6484
49.3722
48.9629
48.4336
47.7965
47.0632
46.2447
45.3513
44.3928
43.3781
42.3158
41.2138
40.0794
38.9195
37.7402
36.5474
35.3464
34.1421
32.9387
31.7404
30.5507
29.3729
28.2098
27.064
25.9377
24.8329
23.7512
22.6941
21.6627
20.6581
19.6808
18.7316
17.8108
16.9187
16.0552
15.2205
14.4142
13.6361
12.8858
12.1629
11.4667
10.7966
10.152
9.53197
8.93581
8.36263
7.81151
7.28153
6.77169
6.28103
5.8085
5.35307
4.91369
4.48929
4.07878
3.68108
3.29509
2.91971
2.55383
2.19634
1.84612
1.50206
1.16304
0.827942
0.495645
0.165028
-142.825
-128.512
-114.804
-101.713
-89.2465
-77.4072
-66.1952
-55.6072
-45.6369
-36.2757
-27.5124
-19.3342
-11.7265
-4.67335
1.84252
7.83933
13.3361
18.3525
22.9086
27.0249
30.722
34.0206
36.9413
39.5045
41.7306
43.6395
45.2506
46.583
47.6555
48.486
49.092
49.4904
49.6975
49.7288
49.5993
49.3234
48.9145
48.3857
47.7492
47.0167
46.199
45.3065
44.3489
43.3352
42.274
41.1731
40.0398
38.881
37.7029
36.5113
35.3115
34.1083
32.9062
31.709
30.5205
29.3439
28.1819
27.0373
25.9121
24.8084
23.7278
22.6717
21.6413
20.6377
19.6614
18.7131
17.7932
16.902
16.0394
15.2054
14.3999
13.6226
12.8731
12.1508
11.4553
10.7859
10.1419
9.52255
8.92699
8.35437
7.8038
7.27433
6.76501
6.27482
5.80276
5.34778
4.90884
4.48485
4.07475
3.67745
3.29184
2.91683
2.55131
2.19417
1.8443
1.50058
1.16189
0.827125
0.495156
0.164865
-142.648
-128.353
-114.662
-101.587
-89.1361
-77.3115
-66.1134
-55.5385
-45.5806
-36.2309
-27.4784
-19.3103
-11.712
-4.66756
1.84026
7.82966
13.3196
18.3298
22.8803
26.9915
30.684
33.9786
36.8956
39.4557
41.6791
43.5855
45.1946
46.5255
47.5966
48.4261
49.0313
49.4292
49.6361
49.6673
49.538
49.2624
48.8541
48.3259
47.6902
46.9586
46.1419
45.2505
44.2941
43.2817
42.2218
41.1222
39.9903
38.833
37.6563
36.4662
35.2679
34.0662
32.8655
31.6699
30.4828
29.3076
28.1471
27.0038
25.8801
24.7777
23.6984
22.6437
21.6146
20.6122
19.6371
18.69
17.7713
16.8811
16.0196
15.1866
14.3821
13.6058
12.8572
12.1358
11.4412
10.7726
10.1294
9.51079
8.91596
8.34405
7.79416
7.26535
6.75665
6.26707
5.79559
5.34118
4.90277
4.47931
4.06972
3.67291
3.28778
2.91323
2.54816
2.19146
1.84202
1.49873
1.16046
0.826105
0.494545
0.164662
-142.436
-128.162
-114.492
-101.436
-89.0037
-77.1967
-66.0153
-55.4561
-45.513
-36.1772
-27.4377
-19.2817
-11.6946
-4.66061
1.83756
7.81806
13.2999
18.3026
22.8464
26.9515
30.6385
33.9281
36.8409
39.3972
41.6172
43.5209
45.1276
46.4564
47.526
48.3542
48.9586
49.3559
49.5624
49.5936
49.4645
49.1893
48.7816
48.2542
47.6194
46.8889
46.0734
45.1833
44.2283
43.2174
42.1591
41.0612
39.931
38.7753
37.6004
36.4121
35.2155
34.0156
32.8167
31.6229
30.4376
29.2641
28.1053
26.9638
25.8417
24.7409
23.6633
22.6101
21.5825
20.5816
19.608
18.6623
17.7449
16.856
15.9958
15.1641
14.3608
13.5856
12.8381
12.1178
11.4242
10.7566
10.1144
9.49667
8.90273
8.33166
7.78259
7.25456
6.74662
6.25777
5.78699
5.33325
4.8955
4.47267
4.06368
3.66746
3.2829
2.90891
2.54438
2.18821
1.83929
1.4965
1.15874
0.82488
0.493812
0.164418
-142.189
-127.94
-114.293
-101.261
-88.8495
-77.063
-65.901
-55.3601
-45.4342
-36.1145
-27.3901
-19.2482
-11.6744
-4.65252
1.83439
7.80454
13.2769
18.2709
22.8068
26.9048
30.5855
33.8694
36.7771
39.3289
41.5451
43.4455
45.0494
46.3759
47.4436
48.2704
48.8737
49.2704
49.4765
49.5077
49.3788
49.1041
48.697
48.1706
47.5369
46.8076
45.9936
45.105
44.1517
43.1426
42.086
40.99
39.8618
38.7081
37.5353
36.349
35.1545
33.9567
32.7599
31.5681
30.3848
29.2134
28.0566
26.917
25.7969
24.6981
23.6223
22.5709
21.5451
20.5459
19.574
18.6299
17.7141
16.8268
15.9681
15.1378
14.3359
13.562
12.8158
12.0968
11.4044
10.738
10.0968
9.48022
8.8873
8.31723
7.7691
7.24199
6.73493
6.24693
5.77696
5.32401
4.88702
4.46492
4.05664
3.6611
3.27721
2.90387
2.53998
2.18442
1.83611
1.49391
1.15673
0.823452
0.492957
0.164133
-141.907
-127.686
-114.067
-101.06
-88.6735
-76.9104
-65.7705
-55.2505
-45.3442
-36.043
-27.3359
-19.2101
-11.6512
-4.64331
1.83075
7.78906
13.2505
18.2347
22.7616
26.8515
30.5248
33.8022
36.7042
39.251
41.4628
43.3593
44.9601
46.284
47.3496
48.1747
48.7769
49.1727
49.3784
49.4096
49.2809
49.0067
48.6005
48.0751
47.4427
46.7148
45.9024
45.0156
44.0642
43.057
42.0026
40.9088
39.7828
38.6314
37.4609
36.2769
35.0848
33.8894
32.6949
31.5055
30.3246
29.1555
28.001
26.8637
25.7457
24.6491
23.5754
22.5261
21.5024
20.5052
19.5352
18.593
17.679
16.7935
15.9364
15.1078
14.3075
13.5352
12.7904
12.0728
11.3818
10.7167
10.0768
9.46142
8.86968
8.30074
7.7537
7.22764
6.72158
6.23454
5.76551
5.31346
4.87733
4.45607
4.0486
3.65385
3.27072
2.89811
2.53494
2.18009
1.83247
1.49095
1.15444
0.82182
0.49198
0.163808
-141.59
-127.401
-113.812
-100.835
-88.4757
-76.7388
-65.6238
-55.1272
-45.2431
-35.9626
-27.2749
-19.1673
-11.6252
-4.63296
1.82665
7.77167
13.221
18.194
22.7108
26.7915
30.4567
33.7268
36.6222
39.1633
41.3702
43.2625
44.8597
46.1807
47.2439
48.0672
48.6679
49.0629
49.2682
49.2992
49.1709
48.8973
48.492
47.9678
47.3368
46.6105
45.7999
44.9151
43.9658
42.9609
41.9088
40.8174
39.694
38.5452
37.3772
36.1959
35.0065
33.8137
32.6219
31.4351
30.2569
29.0904
27.9385
26.8037
25.6882
24.5941
23.5228
22.4758
21.4544
20.4594
19.4916
18.5515
17.6395
16.756
15.9008
15.0741
14.2755
13.5049
12.7619
12.0459
11.3564
10.6928
10.0543
9.4403
8.84987
8.2822
7.73639
7.2115
6.70657
6.22062
5.75264
5.30159
4.86643
4.44611
4.03956
3.64568
3.26341
2.89164
2.52928
2.17522
1.82837
1.48762
1.15186
0.819984
0.490881
0.163442
-141.238
-127.085
-113.529
-100.584
-88.256
-76.5483
-65.4608
-54.9903
-45.1307
-35.8733
-27.2072
-19.1197
-11.5964
-4.62144
1.82212
7.75237
13.1881
18.1488
22.6544
26.725
30.381
33.643
36.5312
39.066
41.2674
43.155
44.7483
46.066
47.1265
47.9478
48.547
48.941
49.1458
49.1768
49.0487
48.7758
48.3715
47.8486
47.2192
46.4947
45.6861
44.8035
43.8566
42.8542
41.8047
40.716
39.5953
38.4494
37.2844
36.106
34.9195
33.7297
32.5409
31.357
30.1817
29.0181
27.8691
26.7371
25.6244
24.533
23.4643
22.42
21.4011
20.4085
19.4431
18.5054
17.5957
16.7143
15.8613
15.0366
14.2401
13.4714
12.7302
12.0159
11.3282
10.6662
10.0293
9.41684
8.82788
8.26162
7.71716
7.19358
6.6899
6.20516
5.73834
5.28841
4.85434
4.43506
4.02952
3.63662
3.2553
2.88445
2.52299
2.16982
1.82383
1.48392
1.149
0.817946
0.489661
0.163036
-140.852
-126.737
-113.219
-100.309
-88.0145
-76.3388
-65.2817
-54.8398
-45.0072
-35.7751
-27.1327
-19.0673
-11.5646
-4.60877
1.81716
7.73117
13.152
18.0992
22.5924
26.6518
30.2979
33.5509
36.4313
38.9591
41.1545
43.0369
44.6258
45.9399
46.9975
47.8165
48.4141
48.8071
49.0113
49.0421
48.9145
48.6423
48.2391
47.7176
47.0899
46.3674
45.561
44.6809
43.7365
42.7368
41.6903
40.6045
39.4869
38.3441
37.1823
36.0071
34.8239
33.6373
32.4518
31.2712
30.0991
28.9387
27.7928
26.6639
25.5543
24.4658
23.4001
22.3586
21.3425
20.3527
19.3899
18.4547
17.5475
16.6686
15.8179
14.9954
14.2011
13.4345
12.6953
11.983
11.2972
10.637
10.0019
9.39106
8.80371
8.239
7.69603
7.17388
6.67159
6.18817
5.72263
5.27393
4.84105
4.42292
4.01848
3.62667
3.24638
2.87655
2.51608
2.16388
1.81883
1.47986
1.14585
0.815706
0.48832
0.162589
-140.43
-126.358
-112.88
-100.009
-87.7512
-76.1104
-65.0864
-54.6757
-44.8725
-35.668
-27.0515
-19.0102
-11.5299
-4.59494
1.81176
7.70808
13.1127
18.045
22.5248
26.5721
30.2073
33.4505
36.3223
38.8426
41.0314
42.9082
44.4923
45.8024
46.8569
47.6735
48.2693
48.661
48.8646
48.8954
48.7681
48.4968
48.0948
47.5748
46.949
46.2287
45.4247
44.5472
43.6056
42.609
41.5655
40.4831
39.3688
38.2294
37.071
35.8994
34.7197
33.5367
32.3547
31.1776
30.009
28.8521
27.7096
26.5841
25.4778
24.3926
23.3301
22.2917
21.2786
20.2918
19.3319
18.3995
17.495
16.6187
15.7706
14.9506
14.1586
13.3943
12.6573
11.9472
11.2634
10.6052
9.97195
9.36296
8.77737
8.21435
7.67301
7.15241
6.65162
6.16965
5.7055
5.25815
4.82656
4.40969
4.00646
3.61581
3.23667
2.86795
2.50855
2.1574
1.81339
1.47543
1.14242
0.813265
0.486858
0.162103
-139.974
-125.947
-112.514
-99.6841
-87.4662
-75.8632
-64.875
-54.4981
-44.7267
-35.5521
-26.9636
-18.9484
-11.4925
-4.57997
1.80592
7.68308
13.0702
17.9865
22.4517
26.4858
30.1092
33.3419
36.2043
38.7165
40.8981
42.7689
44.3478
45.6537
46.7047
47.5187
48.1126
48.503
48.7059
48.7366
48.6098
48.3393
47.9386
47.4203
46.7965
46.0786
45.2772
44.4025
43.464
42.4706
41.4305
40.3516
39.2409
38.1052
36.9507
35.7828
34.6069
33.4278
32.2496
31.0764
29.9116
28.7584
27.6196
26.4978
25.3951
24.3134
23.2543
22.2193
21.2095
20.2259
19.2691
18.3397
17.4382
16.5647
15.7193
14.902
14.1126
13.3508
12.6162
11.9084
11.2268
10.5707
9.93957
9.33255
8.74886
8.18767
7.64808
7.12918
6.63002
6.14962
5.68697
5.24107
4.81089
4.39536
3.99345
3.60407
3.22616
2.85863
2.5004
2.15039
1.8075
1.47064
1.13871
0.810623
0.485277
0.161576
-139.484
-125.506
-112.119
-99.3347
-87.1596
-75.5973
-64.6475
-54.3071
-44.5699
-35.4275
-26.869
-18.882
-11.4521
-4.56389
1.79962
7.65618
13.0244
17.9234
22.373
26.393
30.0037
33.2251
36.0775
38.5808
40.7548
42.619
44.1924
45.4937
46.541
47.3521
47.9439
48.333
48.5352
48.5658
48.4394
48.1699
47.7706
47.2541
46.6325
45.9171
45.1185
44.2469
43.3117
42.3217
41.2853
40.2101
39.1034
37.9717
36.8211
35.6574
34.4856
33.3106
32.1366
30.9674
29.8067
28.6576
27.5228
26.4049
25.306
24.2281
23.1728
22.1414
21.1352
20.155
19.2015
18.2755
17.3771
16.5067
15.6642
14.8498
14.0631
13.304
12.572
11.8666
11.1874
10.5337
9.90473
9.29983
8.7182
8.15897
7.62128
7.1042
6.60678
6.12806
5.66704
5.2227
4.79402
4.37996
3.97945
3.59144
3.21485
2.84861
2.49164
2.14285
1.80117
1.46548
1.13472
0.807782
0.483576
0.16101
-138.959
-125.034
-111.697
-98.9607
-86.8315
-75.3127
-64.4042
-54.1027
-44.4021
-35.2941
-26.7679
-18.8109
-11.409
-4.54669
1.79287
7.62738
12.9754
17.856
22.2888
26.2937
29.8907
33.1
35.9417
38.4355
40.6014
42.4585
44.026
45.3224
46.3659
47.1739
47.7635
48.1511
48.3525
48.383
48.257
47.9885
47.5907
47.0762
46.457
45.7442
44.9487
44.0803
43.1486
42.1624
41.1299
40.0588
38.9562
37.8287
36.6825
35.5232
34.3558
33.1852
32.0156
30.8509
29.6945
28.5497
27.4192
26.3055
25.2108
24.1369
23.0856
22.0581
21.0556
20.0791
19.1293
18.2067
17.3117
16.4445
15.6053
14.7939
14.0102
13.2539
12.5247
11.822
11.1453
10.494
9.86744
9.26483
8.68538
8.12826
7.59259
7.07745
6.58191
6.10499
5.64571
5.20304
4.77598
4.36347
3.96447
3.57792
3.20275
2.83789
2.48226
2.13479
1.79439
1.45997
1.13045
0.804741
0.481756
0.160404
-138.399
-124.53
-111.248
-98.5624
-86.482
-75.0096
-64.1449
-53.8849
-44.2234
-35.152
-26.6601
-18.7352
-11.3631
-4.52838
1.78566
7.59669
12.9232
17.7841
22.1991
26.1879
29.7704
32.9668
35.797
38.2808
40.438
42.2876
43.8488
45.14
46.1792
46.984
47.5712
47.9573
48.1579
48.1882
48.0628
47.7954
47.3992
46.8867
46.27
45.5601
44.7677
43.9029
42.975
41.9927
40.9643
39.8975
38.7994
37.6765
36.5349
35.3802
34.2175
33.0516
31.8867
30.7267
29.575
28.4348
27.3088
26.1996
25.1093
24.0398
22.9927
21.9693
20.9709
19.9983
19.0523
18.1334
17.242
16.3783
15.5425
14.7343
13.9538
13.2006
12.4743
11.7744
11.1004
10.4518
9.82773
9.22754
8.65042
8.09554
7.56203
7.04897
6.55542
6.08042
5.62298
5.1821
4.75676
4.34591
3.94851
3.56352
3.18986
2.82647
2.47227
2.1262
1.78716
1.45409
1.1259
0.801502
0.479817
0.159758
-137.806
-123.996
-110.77
-98.1397
-86.1111
-74.6879
-63.8699
-53.6538
-44.0338
-35.0013
-26.5458
-18.6548
-11.3144
-4.50895
1.77801
7.56412
12.8677
17.7079
22.1039
26.0756
29.6428
32.8254
35.6435
38.1167
40.2645
42.1063
43.6608
44.9464
45.9812
46.7825
47.3672
47.7516
47.9514
47.9816
47.8567
47.5904
47.1959
46.6857
46.0715
45.3647
44.5758
43.7146
42.7907
41.8126
40.7887
39.7264
38.633
37.5149
36.3782
35.2285
34.0708
32.9099
31.75
30.5949
29.4482
28.3128
27.1917
26.0873
25.0016
23.9367
22.8941
21.8751
20.8809
19.9125
18.9706
18.0556
17.1681
16.3081
15.4758
14.6712
13.894
13.144
12.4208
11.7239
11.0528
10.407
9.78558
9.18797
8.61333
8.06083
7.5296
7.01874
6.52731
6.05435
5.59887
5.15988
4.73636
4.32727
3.93158
3.54824
3.17618
2.81435
2.46167
2.11708
1.7795
1.44786
1.12107
0.798065
0.477759
0.159073
-137.178
-123.432
-110.266
-97.6929
-85.719
-74.3478
-63.579
-53.4095
-43.8333
-34.8419
-26.4249
-18.5699
-11.2628
-4.48842
1.76991
7.52967
12.8092
17.6272
22.0033
25.9568
29.5078
32.676
35.4812
37.9431
40.0812
41.9146
43.462
44.7418
45.7718
46.5695
47.1515
47.5342
47.733
47.7631
47.6388
47.3737
46.981
46.4731
45.8618
45.1581
44.3728
43.5156
42.5958
41.6222
40.6029
39.5455
38.4571
37.3441
36.2125
35.0681
33.9157
32.76
31.6054
30.4556
29.3141
28.1839
27.0679
25.9685
24.8878
23.8277
22.7898
21.7755
20.7859
19.8219
18.8842
17.9734
17.0899
16.2338
15.4053
14.6044
13.8307
13.0841
12.3642
11.6705
11.0025
10.3596
9.74103
9.14613
8.57411
8.02413
7.49532
6.98678
6.49759
6.02678
5.57338
5.13639
4.71479
4.30757
3.91368
3.53208
3.16172
2.80153
2.45046
2.10744
1.7714
1.44126
1.11597
0.794432
0.475584
0.158349
-136.517
-122.837
-109.735
-97.2219
-85.3058
-73.9894
-63.2725
-53.152
-43.6219
-34.6739
-26.2975
-18.4803
-11.2085
-4.46679
1.76137
7.49337
12.7474
17.5423
21.8972
25.8317
29.3655
32.5184
35.3101
37.7602
39.888
41.7125
43.2524
44.5261
45.5512
46.345
46.9242
47.305
47.5029
47.5328
47.4091
47.1453
46.7545
46.249
45.6407
44.9404
44.1589
43.3058
42.3905
41.4216
40.4072
39.3549
38.2717
37.164
36.038
34.899
33.7522
32.6021
31.453
30.3088
29.1727
28.048
26.9374
25.8433
24.7678
23.7128
22.6799
21.6705
20.6857
19.7263
18.7932
17.8868
17.0075
16.1556
15.3311
14.5339
13.764
13.021
12.3046
11.6143
10.9495
10.3096
9.69407
9.10204
8.53277
7.98544
7.45919
6.9531
6.46627
5.99773
5.54651
5.11163
4.69206
4.2868
3.89481
3.51505
3.14648
2.78803
2.43865
2.09728
1.76286
1.43432
1.11059
0.790602
0.473291
0.157586
-135.822
-122.211
-109.176
-96.7269
-84.8715
-73.6127
-62.9504
-52.8814
-43.3999
-34.4974
-26.1636
-18.3863
-11.1515
-4.44405
1.7524
7.45522
12.6825
17.4529
21.7857
25.7002
29.216
32.3529
35.1304
37.5679
39.6849
41.5001
43.0322
44.2994
45.3192
46.109
46.6853
47.0642
47.2611
47.2908
47.1677
46.9053
46.5165
46.0136
45.4083
44.7116
43.934
43.0853
42.1746
41.2107
40.2015
39.1545
38.0768
36.9748
35.8545
34.7213
33.5803
32.4361
31.2929
30.1545
29.0242
27.9052
26.8003
25.7117
24.6417
23.5921
22.5645
21.5602
20.5803
19.6259
18.6975
17.7957
16.9209
16.0733
15.253
14.46
13.694
12.9547
12.242
11.5551
10.8937
10.2572
9.64472
9.0557
8.48934
7.94479
7.42121
6.9177
6.43335
5.9672
5.51828
5.0856
4.66818
4.26498
3.87499
3.49716
3.13046
2.77383
2.42623
2.0866
1.75388
1.42701
1.10493
0.786577
0.470882
0.156783
-135.094
-121.556
-108.59
-96.2081
-84.4163
-73.2179
-62.6128
-52.5978
-43.1671
-34.3124
-26.0233
-18.2876
-11.0917
-4.42021
1.743
7.41523
12.6145
17.3593
21.6688
25.5623
29.0593
32.1793
34.9419
37.3664
39.472
41.2775
42.8014
44.0618
45.0762
45.8617
46.4349
46.8117
47.0076
47.0372
46.9147
46.6537
46.267
45.7668
45.1647
44.4718
43.6984
42.8542
41.9484
40.9896
39.9858
38.9445
37.8726
36.7765
35.6622
34.5351
33.4002
32.2621
31.1251
29.9927
28.8685
27.7556
26.6565
25.5738
24.5095
23.4656
22.4434
21.4445
20.47
19.5206
18.5972
17.7002
16.8301
15.9871
15.1712
14.3824
13.6205
12.8853
12.1763
11.4932
10.8353
10.2021
9.59299
9.00713
8.4438
7.90218
7.38141
6.8806
6.39884
5.93519
5.48868
5.05833
4.64314
4.24211
3.8542
3.4784
3.11367
2.75896
2.41322
2.07541
1.74448
1.41936
1.09901
0.782359
0.468356
0.155942
-134.332
-120.87
-107.978
-95.6656
-83.9402
-72.805
-62.2597
-52.3012
-42.9236
-34.1189
-25.8765
-18.1845
-11.0291
-4.39529
1.73317
7.37341
12.5433
17.2614
21.5466
25.4182
28.8954
31.9979
34.7449
37.1557
39.2494
41.0447
42.56
43.8133
44.8219
45.603
46.173
46.5477
46.7425
46.7719
46.6501
46.3906
46.006
45.5087
44.91
44.221
43.4519
42.6125
41.7119
40.7585
39.7603
38.7249
37.659
36.5691
35.4611
34.3403
33.2118
32.0802
30.9495
29.8236
28.7057
27.599
26.5062
25.4296
24.3713
23.3332
22.3169
21.3236
20.3545
19.4105
18.4923
17.6004
16.7352
15.897
15.0857
14.3013
13.5437
12.8126
12.1076
11.4283
10.7742
10.1446
9.53889
8.95634
8.39618
7.85762
7.33978
6.8418
6.36276
5.90172
5.45773
5.0298
4.61696
4.21818
3.83247
3.45879
3.09611
2.7434
2.39961
2.06371
1.73464
1.41136
1.09281
0.777947
0.465715
0.155063
-133.537
-120.155
-107.339
-95.0994
-83.4434
-72.3741
-61.8912
-51.9916
-42.6696
-33.917
-25.7234
-18.0769
-10.9638
-4.36928
1.72291
7.32977
12.4691
17.1593
21.4191
25.2677
28.7244
31.8085
34.5392
36.9358
39.0171
40.8018
42.3081
43.554
44.5567
45.3331
45.8997
46.2722
46.4658
46.4951
46.3741
46.116
45.7338
45.2393
44.6442
43.9593
43.1948
42.3603
41.465
40.5173
39.525
38.4957
37.4361
36.3527
35.2512
34.1371
33.0153
31.8903
30.7664
29.6471
28.5358
27.4357
26.3493
25.2791
24.2271
23.1951
22.1848
21.1974
20.2341
19.2956
18.3829
17.4963
16.6362
15.8029
14.9964
14.2167
13.4635
12.7368
12.036
11.3607
10.7104
10.0846
9.48244
8.90333
8.3465
7.81111
7.29634
6.80131
6.3251
5.86679
5.42543
5.00004
4.58963
4.19322
3.80979
3.43832
3.07779
2.72716
2.38541
2.0515
1.72437
1.403
1.08634
0.773343
0.462959
0.154145
-132.709
-119.41
-106.673
-94.5098
-82.9261
-71.9254
-61.5075
-51.6693
-42.4051
-33.7067
-25.5639
-17.9648
-10.8959
-4.34219
1.71222
7.28432
12.3918
17.0529
21.2863
25.1111
28.5463
31.6113
34.3251
36.7068
38.7752
40.5488
42.0458
43.2839
44.2804
45.0521
45.6152
45.9853
46.1777
46.2068
46.0865
45.8301
45.4502
44.9588
44.3674
43.6867
42.927
42.0977
41.2079
40.266
39.28
38.257
37.204
36.1273
35.0326
33.9254
32.8106
31.6926
30.5756
29.4633
28.3589
27.2656
26.1859
25.1223
24.0769
23.0513
22.0473
21.066
20.1086
19.176
18.2689
17.3878
16.533
15.7049
14.9034
14.1285
13.3801
12.6578
11.9614
11.2903
10.644
10.022
9.42364
8.84813
8.29475
7.76268
7.25111
6.75914
6.28589
5.83042
5.39179
4.96904
4.56118
4.16722
3.78617
3.417
3.0587
2.71025
2.37062
2.03878
1.71368
1.39431
1.07961
0.768548
0.460089
0.15319
-131.848
-118.636
-105.982
-93.8968
-82.3883
-71.4589
-61.1086
-51.3342
-42.1301
-33.4881
-25.3981
-17.8483
-10.8252
-4.31404
1.70112
7.23707
12.3114
16.9423
21.1482
24.9482
28.3612
31.4062
34.1025
36.4687
38.5237
40.2859
41.7731
43.0032
43.9932
44.7599
45.3193
45.6871
45.8782
45.9071
45.7876
45.5329
45.1554
44.6673
44.0797
43.4034
42.6486
41.8247
40.9406
40.0049
39.0252
38.0089
36.9627
35.893
34.8054
33.7054
32.5978
31.4871
30.3773
29.2722
28.175
27.0888
26.0161
24.9594
23.9207
22.9018
21.9043
20.9294
19.9782
19.0516
18.1504
17.275
16.4258
15.603
14.8067
14.0369
13.2933
12.5757
11.8838
11.217
10.575
9.95704
9.36253
8.79075
8.24095
7.71234
7.20408
6.71531
6.24512
5.79261
5.35682
4.93681
4.5316
4.1402
3.76161
3.39484
3.03887
2.69268
2.35525
2.02555
1.70257
1.38526
1.07261
0.763564
0.457105
0.152196
-130.955
-117.832
-105.264
-93.2607
-81.8301
-70.9748
-60.6946
-50.9864
-41.8446
-33.2612
-25.2261
-17.7274
-10.7519
-4.28481
1.68959
7.18804
12.228
16.8275
21.005
24.7792
28.169
31.1935
33.8714
36.2217
38.2627
40.0129
41.4901
42.7119
43.6952
44.4566
45.0123
45.3776
45.5674
45.5961
45.4774
45.2244
44.8495
44.3647
43.7811
43.1094
42.3596
41.5413
40.6633
39.7339
38.7608
37.7514
36.7123
35.6498
34.5696
33.4771
32.3769
31.2738
30.1715
29.0739
27.9841
26.9052
25.8399
24.7903
23.7587
22.7467
21.7559
20.7876
19.8428
18.9226
18.0274
17.158
16.3145
15.4973
14.7064
13.9418
13.2032
12.4905
11.8033
11.1411
10.5034
9.88959
9.2991
8.7312
8.18512
7.66009
7.15528
6.66981
6.20281
5.75336
5.32053
4.90337
4.5009
4.11215
3.73613
3.37184
3.01828
2.67444
2.33929
2.01183
1.69104
1.37588
1.06534
0.758391
0.454009
0.151165
-130.029
-116.999
-104.52
-92.6016
-81.2518
-70.4732
-60.2656
-50.6261
-41.5489
-33.0261
-25.0478
-17.6021
-10.6759
-4.25453
1.67765
7.13724
12.1416
16.7086
20.8565
24.6041
27.9699
30.973
33.632
35.9657
37.9923
39.7301
41.1969
42.41
43.3864
44.1424
44.6942
45.0569
45.2454
45.2739
45.156
44.9048
44.5325
44.0511
43.4716
42.8047
42.0602
41.2477
40.3759
39.453
38.4869
37.4846
36.4529
35.3979
34.3253
33.2405
32.1481
31.0527
29.9583
28.8684
27.7863
26.7151
25.6572
24.6151
23.5907
22.5859
21.6021
20.6407
19.7026
18.7888
17.9
17.0367
16.1992
15.3878
14.6025
13.8433
13.1099
12.4022
11.7199
11.0623
10.4291
9.81969
9.23338
8.66949
8.12728
7.60596
7.10471
6.62267
6.15898
5.7127
5.28293
4.86871
4.46909
4.08309
3.70972
3.34801
2.99695
2.65553
2.32276
1.99761
1.67908
1.36616
1.05781
0.753032
0.4508
0.150097
-129.072
-116.137
-103.75
-91.9197
-80.6534
-69.9542
-59.8218
-50.2532
-41.2429
-32.7829
-24.8633
-17.4725
-10.5973
-4.2232
1.66529
7.08467
12.0522
16.5855
20.7029
24.4229
27.764
30.7449
33.3843
35.7008
37.7125
39.4375
40.8935
42.0977
43.0668
43.8174
44.365
44.725
44.9122
44.9405
44.8235
44.5741
44.2046
43.7267
43.1515
42.4894
41.7505
40.9439
40.0785
39.1625
38.2034
37.2085
36.1844
35.1372
34.0725
32.9956
31.9114
30.824
29.7376
28.6558
27.5817
26.5183
25.4683
24.4338
23.417
22.4196
21.443
20.4886
19.5575
18.6505
17.7682
16.9113
16.0799
15.2745
14.495
13.7413
13.0134
12.3109
11.6335
10.9808
10.3523
9.74738
9.16538
8.60564
8.06742
7.54994
7.05239
6.5739
6.11362
5.67063
5.24403
4.83286
4.43618
4.05302
3.6824
3.32336
2.97488
2.63598
2.30565
1.9829
1.66672
1.35609
1.05002
0.747486
0.44748
0.148991
-128.082
-115.247
-102.955
-91.215
-80.0351
-69.4179
-59.3632
-49.868
-40.9268
-32.5316
-24.6727
-17.3385
-10.516
-4.19083
1.65252
7.03036
11.9598
16.4584
20.5442
24.2356
27.5511
30.5092
33.1284
35.4271
37.4234
39.1352
40.58
41.7749
42.7367
43.4814
44.0249
44.3822
44.5679
44.5959
44.4798
44.2324
43.8657
43.3915
42.8207
42.1637
41.4304
40.6301
39.7713
38.8623
37.9106
36.9233
35.907
34.8678
33.8113
32.7427
31.6667
30.5877
29.5097
28.4361
27.3703
26.3151
25.273
24.2465
23.2375
22.2477
21.2786
20.3316
19.4076
18.5075
17.632
16.7816
15.9567
15.1574
14.3838
13.636
12.9136
12.2165
11.5444
10.8967
10.273
9.67266
9.09512
8.53967
8.00558
7.49207
6.99832
6.52351
6.06675
5.62716
5.20383
4.79581
4.40217
4.02195
3.65418
3.29788
2.95207
2.61577
2.28798
1.9677
1.65394
1.3457
1.04197
0.741756
0.44405
0.147849
-127.061
-114.328
-102.134
-90.4879
-79.3971
-68.8645
-58.89
-49.4705
-40.6005
-32.2723
-24.476
-17.2003
-10.4322
-4.15742
1.63934
6.97431
11.8644
16.3272
20.3804
24.0424
27.3315
30.266
32.8643
35.1447
37.1251
38.8232
40.2565
41.4419
42.396
43.1348
43.6739
44.0284
44.2126
44.2404
44.1252
43.8797
43.516
43.0456
42.4793
41.8276
41.1001
40.3062
39.4542
38.5525
37.6084
36.6289
35.6208
34.5898
33.5418
32.4817
31.4143
30.3439
29.2744
28.2094
27.1521
26.1053
25.0716
24.0532
23.0523
22.0703
21.109
20.1695
19.2529
18.36
17.4914
16.6478
15.8295
15.0366
14.2692
13.5273
12.8107
12.1191
11.4523
10.8098
10.1911
9.59555
9.02262
8.4716
7.94176
7.43234
6.94253
6.4715
6.01839
5.5823
5.16234
4.75758
4.36708
3.98989
3.62505
3.27159
2.92854
2.59492
2.26974
1.95202
1.64076
1.33497
1.03367
0.735843
0.44051
0.146671
-126.009
-113.381
-101.288
-89.7384
-78.7395
-68.2942
-58.4022
-49.0607
-40.2642
-32.005
-24.2733
-17.0579
-10.3458
-4.12299
1.62576
6.91654
11.7661
16.1919
20.2116
23.8433
27.1051
30.0153
32.5921
34.8536
36.8176
38.5017
39.9231
41.0987
42.0448
42.7775
43.3122
43.6637
43.8464
43.874
43.7598
43.5163
43.1556
42.689
42.1275
41.4811
40.7597
39.9723
39.1275
38.2331
37.2969
36.3256
35.3257
34.3033
33.2639
32.2126
31.1541
30.0926
29.0319
27.9758
26.9272
25.8891
24.8639
23.854
22.8613
21.8875
20.9342
20.0024
19.0934
18.2079
17.3466
16.5099
15.6984
14.912
14.151
13.4152
12.7046
12.0188
11.3575
10.7203
10.1067
9.51607
8.94789
8.40143
7.87598
7.37078
6.88503
6.4179
5.96854
5.53607
5.11958
4.71817
4.33091
3.95684
3.59502
3.24449
2.90429
2.57343
2.25094
1.93585
1.62717
1.32391
1.0251
0.729748
0.436861
0.145456
-124.925
-112.407
-100.417
-88.9668
-78.0624
-67.7069
-57.9
-48.6389
-39.918
-31.7298
-24.0646
-16.9112
-10.2568
-4.08754
1.61178
6.85707
11.665
16.0527
20.0378
23.6383
26.872
29.7572
32.3119
34.5539
36.501
38.1706
39.5798
40.7453
41.6833
42.4097
42.9398
43.2882
43.4693
43.4967
43.3835
43.1421
42.7845
42.3219
41.7652
41.1245
40.4092
39.6286
38.791
37.9044
36.9761
36.0132
35.022
34.0084
32.9779
31.9357
30.8862
29.8338
28.7823
27.7352
26.6956
25.6664
24.6501
23.6489
22.6647
21.6993
20.7542
19.8304
18.9292
18.0513
17.1974
16.368
15.5634
14.7838
14.0293
13.2999
12.5953
11.9154
11.2598
10.6281
10.0198
9.43425
8.87095
8.32919
7.80826
7.3074
6.82583
6.36272
5.91722
5.48847
5.07556
4.6776
4.29367
3.92282
3.56411
3.2166
2.87931
2.5513
2.23159
1.9192
1.61318
1.31253
1.01629
0.723474
0.433105
0.144205
-123.811
-111.404
-99.5212
-88.1732
-77.3661
-67.103
-57.3836
-48.205
-39.5619
-31.4468
-23.8499
-16.7604
-10.1654
-4.05108
1.5974
6.7959
11.5609
15.9095
19.8591
23.4274
26.6323
29.4918
32.0236
34.2457
36.1754
37.8301
39.2267
40.3818
41.3115
42.0314
42.5567
42.9021
43.0816
43.1087
42.9965
42.7573
42.4029
41.9444
41.3927
40.7576
40.0488
39.2751
38.445
37.5663
36.6463
35.692
34.7096
33.705
32.6838
31.6508
30.6107
29.5677
28.5256
27.4878
26.4575
25.4375
24.4302
23.438
22.4626
21.5058
20.569
19.6536
18.7604
17.8903
17.044
16.222
15.4246
14.6519
13.9042
13.1812
12.483
11.8091
11.1594
10.5333
9.93038
9.3501
8.79182
8.2549
7.73861
7.24222
6.76495
6.30597
5.86444
5.43951
5.03029
4.63588
4.25537
3.88783
3.53232
3.1879
2.85363
2.52854
2.21168
1.90209
1.59879
1.30082
1.00722
0.71702
0.429242
0.142919
-122.666
-110.374
-98.6009
-87.3579
-76.6507
-66.4825
-56.853
-47.7593
-39.1961
-31.156
-23.6294
-16.6054
-10.0714
-4.01363
1.58263
6.73306
11.454
15.7624
19.6754
23.2108
26.3861
29.2191
31.7275
33.929
35.8409
37.4803
38.864
40.0084
40.9295
41.6427
42.1632
42.5054
42.6832
42.7101
42.5989
42.3619
42.0108
41.5566
41.0099
40.3807
39.6785
38.9119
38.0895
37.2189
36.3075
35.3619
34.3886
33.3934
32.3815
31.3581
30.3276
29.2943
28.2618
27.2336
26.2129
25.2023
24.2043
23.2212
22.2549
21.3069
20.3788
19.4718
18.5869
17.7249
16.8864
16.072
15.2819
14.5164
13.7756
13.0593
12.3675
11.6999
11.0562
10.4359
9.83856
9.26364
8.71052
8.17856
7.66706
7.17526
6.70239
6.24766
5.81021
5.38921
4.98378
4.59301
4.21602
3.85188
3.49966
3.15843
2.82724
2.50516
2.19123
1.8845
1.584
1.2888
0.997911
0.71039
0.425273
0.141597
-121.491
-109.316
-97.6564
-86.521
-75.9164
-65.8456
-56.3083
-47.3018
-38.8206
-30.8575
-23.403
-16.4463
-9.97488
-3.97518
1.56746
6.66855
11.3443
15.6114
19.487
22.9884
26.1333
28.9391
31.4236
33.604
35.4975
37.1212
38.4917
39.6251
40.5374
41.2438
41.7593
42.0982
42.2743
42.301
42.1908
41.9561
41.6083
41.1585
40.617
39.9939
39.2983
38.5392
37.7246
36.8623
35.9596
35.0232
34.0592
33.0734
32.0713
31.0577
30.0371
29.0136
27.9911
26.9727
25.9617
24.9608
23.9725
22.9988
22.0417
21.1028
20.1836
19.2853
18.4088
17.5551
16.7246
15.918
15.1355
14.3774
13.6436
12.9342
12.2491
11.5879
10.9503
10.3359
9.74431
9.17489
8.62708
8.10021
7.59361
7.10652
6.63818
6.1878
5.75455
5.33759
4.93603
4.54901
4.17563
3.81498
3.46613
3.12817
2.80016
2.48116
2.17024
1.86644
1.56883
1.27645
0.988351
0.703585
0.421199
0.140241
-120.286
-108.232
-96.6877
-85.6627
-75.1634
-65.1925
-55.7498
-46.8326
-38.4356
-30.5514