/*--------------------------------*- C++ -*----------------------------------*\
| =========                 |                                                 |
| \\      /  F ield         | OpenFOAM: The Open Source CFD Toolbox           |
|  \\    /   O peration     | Version:  2406                                  |
|   \\  /    A nd           | Website:  www.openfoam.com                      |
|    \\/     M anipulation  |                                                 |
\*---------------------------------------------------------------------------*/
FoamFile
{
    version     2.0;
    format      ascii;
    arch        "LSB;label=32;scalar=64";
    class       volScalarField;
    location    "160";
    object      T;
}
// * * * * * * * * * * * * * * * * * * * * * * * * * * * * * * * * * * * * * //

dimensions      [0 0 0 1 0 0 0];

internalField   nonuniform List<scalar> 
20000
(
299.682
299.718
299.752
299.784
299.815
299.844
299.871
299.896
299.92
299.942
299.963
299.982
299.999
300.015
300.029
300.042
300.054
300.065
300.074
300.082
300.089
300.096
300.101
300.105
300.109
300.112
300.114
300.116
300.117
300.117
300.117
300.116
300.116
300.114
300.113
300.111
300.109
300.106
300.104
300.101
300.099
300.096
300.093
300.09
300.087
300.084
300.08
300.077
300.074
300.071
300.068
300.065
300.062
300.059
300.057
300.054
300.051
300.049
300.046
300.044
300.041
300.039
300.037
300.035
300.033
300.031
300.029
300.027
300.026
300.024
300.023
300.021
300.02
300.019
300.017
300.016
300.015
300.014
300.013
300.012
300.011
300.01
300.01
300.009
300.008
300.007
300.007
300.006
300.005
300.005
300.004
300.004
300.003
300.003
300.002
300.002
300.002
300.001
300.001
300
299.046
299.154
299.256
299.353
299.445
299.531
299.613
299.689
299.76
299.827
299.888
299.945
299.997
300.044
300.088
300.127
300.162
300.194
300.222
300.247
300.268
300.287
300.303
300.316
300.327
300.336
300.342
300.347
300.35
300.351
300.351
300.349
300.347
300.343
300.338
300.333
300.326
300.319
300.312
300.304
300.296
300.287
300.278
300.269
300.26
300.251
300.241
300.232
300.223
300.214
300.204
300.196
300.187
300.178
300.17
300.162
300.154
300.146
300.138
300.131
300.124
300.117
300.111
300.105
300.099
300.093
300.088
300.082
300.077
300.073
300.068
300.064
300.06
300.056
300.052
300.048
300.045
300.042
300.039
300.036
300.033
300.031
300.029
300.026
300.024
300.022
300.02
300.018
300.016
300.015
300.013
300.012
300.01
300.009
300.007
300.006
300.005
300.003
300.002
300.001
298.411
298.59
298.76
298.922
299.075
299.219
299.355
299.482
299.601
299.711
299.813
299.908
299.994
300.074
300.146
300.211
300.27
300.323
300.37
300.411
300.447
300.478
300.505
300.527
300.545
300.559
300.57
300.578
300.583
300.585
300.585
300.582
300.578
300.571
300.564
300.554
300.544
300.532
300.52
300.507
300.493
300.478
300.464
300.448
300.433
300.418
300.402
300.387
300.371
300.356
300.341
300.326
300.311
300.297
300.283
300.269
300.256
300.243
300.231
300.219
300.207
300.196
300.185
300.175
300.165
300.155
300.146
300.137
300.129
300.121
300.113
300.106
300.099
300.093
300.087
300.081
300.075
300.07
300.065
300.06
300.056
300.052
300.048
300.044
300.04
300.037
300.033
300.03
300.027
300.025
300.022
300.019
300.017
300.014
300.012
300.01
300.008
300.005
300.003
300.001
297.776
298.026
298.264
298.491
298.705
298.907
299.097
299.275
299.441
299.595
299.738
299.871
299.992
300.103
300.204
300.296
300.378
300.452
300.518
300.575
300.626
300.669
300.706
300.737
300.763
300.783
300.798
300.809
300.816
300.819
300.818
300.815
300.809
300.8
300.789
300.776
300.761
300.745
300.728
300.709
300.69
300.669
300.649
300.628
300.606
300.584
300.563
300.541
300.519
300.498
300.477
300.456
300.436
300.416
300.396
300.377
300.358
300.34
300.323
300.306
300.29
300.274
300.259
300.244
300.23
300.217
300.204
300.192
300.18
300.169
300.159
300.149
300.139
300.13
300.121
300.113
300.105
300.098
300.091
300.084
300.078
300.072
300.067
300.061
300.056
300.051
300.047
300.042
300.038
300.034
300.031
300.027
300.023
300.02
300.017
300.014
300.011
300.007
300.004
300.001
297.142
297.463
297.769
298.06
298.335
298.595
298.839
299.068
299.281
299.48
299.664
299.834
299.99
300.132
300.262
300.38
300.486
300.581
300.665
300.739
300.804
300.86
300.908
300.948
300.98
301.006
301.026
301.04
301.048
301.052
301.052
301.047
301.039
301.028
301.014
300.997
300.978
300.958
300.935
300.911
300.886
300.86
300.834
300.807
300.779
300.751
300.723
300.695
300.668
300.64
300.613
300.586
300.56
300.534
300.509
300.484
300.46
300.437
300.415
300.393
300.372
300.352
300.333
300.314
300.296
300.279
300.263
300.247
300.232
300.218
300.204
300.191
300.179
300.167
300.156
300.145
300.135
300.126
300.117
300.108
300.1
300.093
300.086
300.079
300.072
300.066
300.06
300.055
300.049
300.044
300.039
300.035
300.03
300.026
300.022
300.018
300.014
300.01
300.006
300.002
296.508
296.9
297.274
297.63
297.966
298.283
298.582
298.861
299.122
299.365
299.589
299.797
299.987
300.162
300.321
300.464
300.594
300.71
300.813
300.903
300.983
301.051
301.109
301.158
301.198
301.229
301.253
301.27
301.281
301.286
301.285
301.28
301.27
301.256
301.239
301.218
301.195
301.17
301.143
301.113
301.083
301.051
301.019
300.985
300.952
300.918
300.884
300.85
300.816
300.782
300.749
300.716
300.684
300.652
300.622
300.592
300.563
300.534
300.507
300.48
300.455
300.43
300.406
300.384
300.362
300.341
300.321
300.302
300.283
300.266
300.249
300.233
300.218
300.204
300.19
300.178
300.165
300.154
300.143
300.132
300.123
300.113
300.104
300.096
300.088
300.081
300.073
300.067
300.06
300.054
300.048
300.042
300.037
300.032
300.026
300.021
300.017
300.012
300.007
300.002
295.875
296.339
296.781
297.2
297.598
297.972
298.325
298.655
298.963
299.249
299.515
299.76
299.985
300.191
300.379
300.548
300.701
300.838
300.96
301.067
301.161
301.241
301.31
301.368
301.415
301.452
301.48
301.501
301.513
301.519
301.518
301.511
301.5
301.484
301.463
301.439
301.412
301.382
301.35
301.315
301.279
301.242
301.203
301.164
301.124
301.084
301.044
301.003
300.963
300.924
300.884
300.846
300.808
300.771
300.734
300.699
300.665
300.631
300.599
300.567
300.537
300.508
300.48
300.453
300.427
300.403
300.379
300.356
300.335
300.314
300.294
300.276
300.258
300.241
300.225
300.21
300.195
300.182
300.169
300.156
300.145
300.134
300.123
300.114
300.104
300.095
300.087
300.079
300.071
300.064
300.057
300.05
300.044
300.037
300.031
300.025
300.02
300.014
300.008
300.003
295.243
295.778
296.287
296.771
297.23
297.662
298.068
298.449
298.804
299.134
299.441
299.723
299.983
300.22
300.437
300.633
300.809
300.967
301.107
301.231
301.339
301.432
301.511
301.577
301.631
301.675
301.707
301.73
301.745
301.751
301.75
301.743
301.729
301.711
301.687
301.66
301.628
301.594
301.556
301.517
301.475
301.432
301.388
301.342
301.296
301.25
301.204
301.157
301.111
301.065
301.02
300.975
300.932
300.889
300.847
300.806
300.766
300.728
300.69
300.654
300.62
300.586
300.554
300.523
300.493
300.464
300.437
300.411
300.386
300.362
300.339
300.318
300.297
300.278
300.259
300.242
300.225
300.209
300.195
300.18
300.167
300.154
300.142
300.131
300.12
300.11
300.1
300.091
300.082
300.074
300.065
300.058
300.05
300.043
300.036
300.029
300.023
300.016
300.01
300.003
294.612
295.218
295.795
296.343
296.862
297.352
297.812
298.243
298.645
299.02
299.366
299.686
299.981
300.25
300.495
300.716
300.916
301.095
301.254
301.394
301.516
301.621
301.711
301.786
301.848
301.897
301.934
301.96
301.976
301.983
301.982
301.974
301.959
301.938
301.911
301.88
301.844
301.805
301.763
301.718
301.671
301.622
301.572
301.52
301.468
301.416
301.363
301.311
301.258
301.206
301.155
301.105
301.055
301.007
300.959
300.913
300.868
300.824
300.782
300.741
300.702
300.664
300.627
300.592
300.558
300.526
300.495
300.465
300.437
300.41
300.384
300.36
300.337
300.315
300.294
300.274
300.255
300.237
300.22
300.204
300.189
300.175
300.161
300.148
300.136
300.124
300.113
300.103
300.093
300.083
300.074
300.065
300.057
300.049
300.041
300.033
300.026
300.018
300.011
300.004
293.983
294.659
295.304
295.916
296.496
297.042
297.556
298.038
298.487
298.905
299.292
299.65
299.978
300.279
300.552
300.8
301.023
301.223
301.4
301.557
301.693
301.811
301.911
301.995
302.064
302.118
302.159
302.189
302.207
302.215
302.214
302.205
302.188
302.164
302.134
302.099
302.06
302.016
301.969
301.918
301.866
301.811
301.755
301.698
301.64
301.581
301.522
301.464
301.405
301.347
301.29
301.234
301.178
301.124
301.071
301.02
300.969
300.921
300.873
300.828
300.784
300.741
300.7
300.661
300.623
300.587
300.553
300.52
300.488
300.458
300.429
300.402
300.376
300.352
300.328
300.306
300.285
300.265
300.246
300.228
300.211
300.195
300.18
300.166
300.152
300.139
300.127
300.115
300.104
300.093
300.083
300.073
300.064
300.054
300.046
300.037
300.029
300.02
300.012
300.004
293.355
294.102
294.814
295.49
296.13
296.734
297.301
297.833
298.329
298.791
299.219
299.613
299.976
300.308
300.61
300.884
301.13
301.351
301.546
301.719
301.87
302
302.111
302.203
302.279
302.339
302.385
302.417
302.437
302.446
302.445
302.435
302.416
302.39
302.357
302.318
302.274
302.226
302.174
302.119
302.061
302
301.938
301.875
301.811
301.746
301.681
301.616
301.552
301.488
301.425
301.363
301.301
301.242
301.183
301.126
301.071
301.017
300.965
300.914
300.865
300.818
300.773
300.73
300.688
300.648
300.61
300.574
300.539
300.506
300.474
300.444
300.415
300.388
300.362
300.338
300.315
300.293
300.272
300.252
300.233
300.216
300.199
300.183
300.168
300.153
300.14
300.127
300.114
300.103
300.091
300.081
300.07
300.06
300.05
300.041
300.032
300.022
300.013
300.004
292.729
293.546
294.325
295.065
295.765
296.426
297.047
297.629
298.172
298.677
299.145
299.577
299.974
300.337
300.667
300.967
301.236
301.478
301.692
301.881
302.046
302.188
302.309
302.411
302.494
302.56
302.61
302.645
302.667
302.677
302.676
302.664
302.644
302.615
302.579
302.537
302.489
302.436
302.379
302.318
302.255
302.189
302.121
302.052
301.982
301.911
301.84
301.769
301.698
301.628
301.559
301.491
301.424
301.359
301.295
301.232
301.171
301.113
301.055
301
300.947
300.896
300.846
300.799
300.753
300.71
300.668
300.628
300.59
300.553
300.519
300.486
300.455
300.425
300.397
300.37
300.344
300.32
300.297
300.276
300.255
300.236
300.217
300.2
300.184
300.168
300.153
300.139
300.125
300.112
300.1
300.088
300.077
300.066
300.055
300.045
300.034
300.025
300.015
300.005
292.104
292.992
293.838
294.641
295.402
296.119
296.793
297.425
298.015
298.563
299.072
299.541
299.971
300.366
300.725
301.05
301.343
301.605
301.838
302.043
302.222
302.376
302.508
302.618
302.708
302.779
302.834
302.872
302.896
302.907
302.905
302.893
302.871
302.84
302.801
302.755
302.703
302.645
302.583
302.517
302.448
302.377
302.303
302.228
302.152
302.075
301.998
301.921
301.844
301.768
301.693
301.619
301.546
301.475
301.406
301.338
301.272
301.208
301.146
301.086
301.028
300.973
300.919
300.867
300.818
300.771
300.725
300.682
300.64
300.601
300.563
300.528
300.494
300.461
300.431
300.402
300.374
300.348
300.323
300.299
300.277
300.256
300.236
300.217
300.199
300.182
300.166
300.151
300.136
300.122
300.109
300.096
300.083
300.071
300.06
300.048
300.037
300.027
300.016
300.005
291.482
292.439
293.352
294.219
295.039
295.813
296.541
297.222
297.858
298.45
298.998
299.504
299.969
300.395
300.782
301.133
301.449
301.731
301.982
302.204
302.397
302.564
302.706
302.824
302.921
302.999
303.057
303.099
303.124
303.136
303.134
303.121
303.097
303.063
303.021
302.972
302.916
302.854
302.787
302.716
302.642
302.564
302.485
302.404
302.322
302.239
302.155
302.072
301.989
301.907
301.826
301.747
301.668
301.591
301.517
301.443
301.372
301.303
301.236
301.172
301.109
301.049
300.991
300.936
300.882
300.831
300.782
300.736
300.691
300.648
300.608
300.569
300.533
300.498
300.465
300.433
300.403
300.375
300.348
300.323
300.299
300.276
300.255
300.234
300.215
300.197
300.179
300.163
300.147
300.132
300.117
300.103
300.09
300.077
300.065
300.052
300.04
300.029
300.017
300.006
290.862
291.889
292.868
293.798
294.678
295.508
296.289
297.02
297.702
298.337
298.925
299.468
299.967
300.423
300.839
301.215
301.554
301.857
302.127
302.364
302.572
302.75
302.903
303.03
303.134
303.217
303.28
303.324
303.352
303.364
303.363
303.348
303.323
303.287
303.241
303.188
303.128
303.062
302.99
302.914
302.834
302.751
302.666
302.579
302.491
302.402
302.312
302.223
302.134
302.046
301.959
301.874
301.79
301.707
301.627
301.549
301.472
301.398
301.326
301.257
301.19
301.126
301.064
301.004
300.947
300.892
300.839
300.789
300.741
300.696
300.652
300.611
300.571
300.534
300.498
300.465
300.433
300.402
300.374
300.347
300.321
300.296
300.273
300.251
300.231
300.211
300.192
300.174
300.157
300.141
300.126
300.111
300.096
300.083
300.069
300.056
300.043
300.031
300.018
300.006
290.243
291.34
292.385
293.378
294.318
295.204
296.038
296.818
297.547
298.225
298.853
299.432
299.965
300.452
300.896
301.297
301.659
301.983
302.271
302.524
302.745
302.936
303.099
303.235
303.346
303.435
303.502
303.549
303.579
303.592
303.59
303.575
303.547
303.509
303.461
303.404
303.34
303.269
303.192
303.111
303.026
302.937
302.846
302.753
302.659
302.564
302.469
302.373
302.279
302.185
302.092
302.001
301.911
301.823
301.737
301.653
301.572
301.493
301.416
301.342
301.271
301.202
301.136
301.072
301.011
300.952
300.896
300.843
300.791
300.743
300.696
300.652
300.61
300.57
300.532
300.496
300.462
300.43
300.399
300.37
300.343
300.317
300.292
300.268
300.246
300.225
300.205
300.186
300.168
300.151
300.134
300.118
300.103
300.088
300.074
300.06
300.046
300.033
300.02
300.007
289.628
290.793
291.905
292.96
293.959
294.902
295.788
296.617
297.392
298.113
298.78
299.396
299.963
300.48
300.952
301.379
301.764
302.108
302.414
302.683
302.919
303.122
303.295
303.439
303.557
303.651
303.723
303.773
303.805
303.819
303.817
303.8
303.771
303.73
303.679
303.619
303.55
303.475
303.394
303.307
303.217
303.123
303.026
302.927
302.827
302.726
302.625
302.523
302.423
302.323
302.224
302.127
302.031
301.938
301.847
301.758
301.671
301.587
301.506
301.427
301.351
301.278
301.207
301.139
301.074
301.012
300.953
300.896
300.841
300.79
300.74
300.693
300.648
300.606
300.566
300.527
300.491
300.457
300.424
300.393
300.364
300.336
300.31
300.285
300.262
300.239
300.218
300.198
300.179
300.16
300.143
300.126
300.109
300.094
300.079
300.064
300.049
300.035
300.021
300.007
289.014
290.249
291.426
292.544
293.602
294.6
295.538
296.418
297.238
298.001
298.708
299.361
299.96
300.509
301.008
301.461
301.868
302.233
302.557
302.842
303.091
303.306
303.489
303.642
303.768
303.867
303.943
303.996
304.03
304.044
304.042
304.025
303.994
303.951
303.897
303.833
303.76
303.68
303.594
303.503
303.407
303.307
303.205
303.1
302.994
302.887
302.78
302.672
302.566
302.46
302.355
302.253
302.152
302.053
301.956
301.862
301.77
301.681
301.595
301.511
301.431
301.353
301.279
301.207
301.138
301.072
301.009
300.949
300.891
300.836
300.784
300.734
300.687
300.642
300.599
300.559
300.52
300.484
300.449
300.417
300.386
300.356
300.329
300.302
300.277
300.254
300.231
300.21
300.189
300.17
300.151
300.133
300.116
300.099
300.083
300.067
300.052
300.037
300.022
300.007
288.404
289.707
290.95
292.13
293.246
294.3
295.291
296.218
297.085
297.89
298.636
299.325
299.958
300.537
301.064
301.542
301.972
302.357
302.699
303
303.263
303.49
303.683
303.845
303.977
304.082
304.162
304.218
304.253
304.269
304.267
304.249
304.216
304.17
304.113
304.046
303.969
303.885
303.794
303.697
303.596
303.491
303.383
303.272
303.16
303.048
302.934
302.821
302.708
302.597
302.486
302.378
302.271
302.167
302.064
301.965
301.868
301.774
301.683
301.595
301.51
301.428
301.35
301.274
301.201
301.132
301.065
301.001
300.941
300.883
300.827
300.775
300.725
300.678
300.632
300.59
300.549
300.511
300.474
300.44
300.407
300.376
300.347
300.319
300.293
300.268
300.244
300.221
300.2
300.179
300.16
300.141
300.122
300.105
300.088
300.071
300.055
300.039
300.023
300.008
287.796
289.168
290.475
291.717
292.893
294.001
295.044
296.02
296.932
297.78
298.565
299.29
299.956
300.565
301.12
301.623
302.075
302.48
302.84
303.157
303.434
303.673
303.876
304.046
304.185
304.296
304.38
304.439
304.476
304.493
304.491
304.471
304.437
304.389
304.329
304.258
304.177
304.088
303.993
303.891
303.784
303.674
303.56
303.444
303.326
303.207
303.088
302.969
302.85
302.733
302.617
302.502
302.39
302.28
302.173
302.068
301.966
301.867
301.771
301.679
301.589
301.503
301.42
301.341
301.264
301.191
301.121
301.054
300.99
300.929
300.871
300.816
300.763
300.713
300.666
300.621
300.578
300.537
300.499
300.463
300.428
300.396
300.365
300.336
300.308
300.282
300.257
300.233
300.21
300.189
300.168
300.148
300.129
300.11
300.092
300.075
300.058
300.041
300.025
300.008
287.192
288.631
290.003
291.307
292.54
293.704
294.798
295.823
296.78
297.67
298.494
299.255
299.954
300.593
301.176
301.703
302.178
302.603
302.981
303.314
303.604
303.855
304.068
304.247
304.393
304.509
304.597
304.659
304.698
304.715
304.713
304.693
304.657
304.606
304.543
304.468
304.384
304.291
304.191
304.084
303.972
303.856
303.736
303.614
303.491
303.366
303.241
303.116
302.991
302.868
302.746
302.626
302.508
302.393
302.28
302.17
302.063
301.96
301.859
301.762
301.668
301.578
301.491
301.407
301.327
301.25
301.176
301.106
301.039
300.975
300.914
300.856
300.801
300.748
300.699
300.651
300.607
300.564
300.524
300.486
300.45
300.416
300.383
300.352
300.323
300.296
300.269
300.244
300.221
300.198
300.176
300.155
300.135
300.116
300.097
300.079
300.061
300.043
300.026
300.009
286.59
288.098
289.534
290.899
292.19
293.409
294.554
295.627
296.629
297.56
298.423
299.22
299.952
300.621
301.231
301.783
302.28
302.725
303.121
303.469
303.773
304.036
304.259
304.446
304.599
304.721
304.813
304.878
304.919
304.937
304.934
304.913
304.875
304.823
304.756
304.678
304.59
304.492
304.387
304.276
304.158
304.037
303.912
303.784
303.655
303.524
303.393
303.262
303.132
303.003
302.875
302.75
302.626
302.505
302.387
302.272
302.16
302.052
301.946
301.845
301.746
301.652
301.561
301.473
301.389
301.309
301.232
301.158
301.088
301.021
300.957
300.896
300.838
300.783
300.731
300.682
300.635
300.591
300.548
300.509
300.471
300.435
300.401
300.369
300.339
300.31
300.282
300.256
300.231
300.207
300.184
300.163
300.142
300.121
300.102
300.082
300.064
300.045
300.027
300.009
285.992
287.567
289.067
290.493
291.842
293.115
294.311
295.432
296.478
297.451
298.353
299.185
299.949
300.649
301.286
301.863
302.382
302.847
303.26
303.624
303.942
304.216
304.449
304.645
304.804
304.931
305.027
305.096
305.138
305.157
305.154
305.132
305.093
305.038
304.969
304.887
304.795
304.693
304.583
304.466
304.344
304.217
304.086
303.953
303.818
303.681
303.544
303.408
303.272
303.137
303.004
302.872
302.743
302.617
302.494
302.374
302.257
302.143
302.033
301.927
301.824
301.725
301.63
301.539
301.451
301.367
301.287
301.21
301.136
301.066
301
300.936
300.876
300.818
300.764
300.712
300.663
300.617
300.573
300.531
300.492
300.454
300.419
300.385
300.354
300.323
300.295
300.267
300.241
300.216
300.193
300.17
300.148
300.127
300.106
300.086
300.066
300.047
300.028
300.009
285.398
287.039
288.603
290.089
291.495
292.822
294.07
295.238
296.329
297.343
298.283
299.15
299.947
300.676
301.34
301.942
302.483
302.968
303.398
303.778
304.109
304.395
304.638
304.842
305.008
305.14
305.241
305.312
305.356
305.376
305.373
305.35
305.309
305.252
305.179
305.094
304.998
304.892
304.778
304.656
304.528
304.396
304.26
304.121
303.98
303.838
303.695
303.552
303.411
303.27
303.131
302.994
302.86
302.728
302.6
302.474
302.353
302.234
302.12
302.009
301.902
301.799
301.699
301.604
301.513
301.425
301.341
301.261
301.185
301.112
301.042
300.976
300.913
300.853
300.796
300.743
300.692
300.643
300.597
300.554
300.513
300.474
300.437
300.402
300.369
300.337
300.307
300.279
300.252
300.226
300.201
300.177
300.154
300.132
300.111
300.09
300.069
300.049
300.029
300.01
284.806
286.514
288.142
289.688
291.151
292.532
293.83
295.045
296.18
297.236
298.213
299.116
299.945
300.704
301.395
302.02
302.584
303.088
303.536
303.931
304.275
304.573
304.826
305.038
305.211
305.348
305.453
305.527
305.573
305.594
305.591
305.567
305.524
305.464
305.389
305.301
305.2
305.09
304.971
304.844
304.712
304.574
304.432
304.288
304.141
303.993
303.844
303.696
303.549
303.402
303.258
303.115
302.976
302.839
302.705
302.575
302.448
302.325
302.205
302.09
301.979
301.871
301.768
301.669
301.574
301.483
301.395
301.312
301.232
301.157
301.084
301.015
300.95
300.888
300.829
300.773
300.719
300.669
300.621
300.576
300.533
300.493
300.454
300.418
300.384
300.351
300.32
300.29
300.262
300.235
300.209
300.184
300.16
300.137
300.115
300.093
300.072
300.051
300.031
300.01
284.219
285.993
287.683
289.289
290.809
292.243
293.591
294.854
296.032
297.129
298.144
299.082
299.943
300.731
301.449
302.098
302.684
303.207
303.673
304.083
304.441
304.75
305.012
305.232
305.412
305.555
305.664
305.741
305.788
305.81
305.807
305.782
305.738
305.675
305.597
305.506
305.402
305.287
305.163
305.032
304.894
304.751
304.604
304.453
304.301
304.147
303.993
303.839
303.686
303.534
303.384
303.236
303.091
302.948
302.81
302.674
302.542
302.415
302.291
302.171
302.055
301.944
301.837
301.734
301.635
301.54
301.449
301.363
301.28
301.201
301.126
301.055
300.987
300.922
300.861
300.802
300.747
300.695
300.645
300.599
300.554
300.512
300.472
300.434
300.398
300.364
300.332
300.301
300.272
300.244
300.217
300.191
300.167
300.143
300.119
300.097
300.075
300.053
300.032
300.011
283.636
285.475
287.228
288.893
290.469
291.956
293.354
294.663
295.886
297.023
298.076
299.048
299.941
300.758
301.502
302.176
302.783
303.326
303.808
304.234
304.605
304.925
305.198
305.426
305.612
305.761
305.873
305.953
306.002
306.025
306.022
305.996
305.95
305.885
305.804
305.709
305.601
305.482
305.354
305.218
305.075
304.926
304.774
304.618
304.46
304.301
304.141
303.981
303.822
303.664
303.509
303.355
303.205
303.057
302.913
302.773
302.636
302.504
302.375
302.251
302.131
302.016
301.905
301.798
301.695
301.597
301.503
301.413
301.327
301.246
301.168
301.094
301.023
300.956
300.893
300.832
300.775
300.721
300.669
300.621
300.575
300.531
300.489
300.45
300.413
300.378
300.344
300.312
300.282
300.253
300.225
300.198
300.173
300.148
300.124
300.101
300.078
300.055
300.033
300.011
283.056
284.961
286.776
288.5
290.132
291.671
293.119
294.474
295.74
296.917
298.008
299.014
299.939
300.785
301.555
302.253
302.881
303.444
303.943
304.384
304.768
305.099
305.382
305.618
305.811
305.965
306.081
306.164
306.215
306.238
306.235
306.208
306.16
306.094
306.01
305.911
305.8
305.676
305.544
305.402
305.254
305.101
304.943
304.782
304.618
304.453
304.287
304.122
303.957
303.794
303.633
303.474
303.318
303.166
303.017
302.871
302.73
302.592
302.459
302.331
302.207
302.087
301.972
301.861
301.755
301.654
301.556
301.463
301.374
301.29
301.209
301.132
301.059
300.99
300.924
300.862
300.802
300.746
300.693
300.643
300.595
300.55
300.507
300.466
300.428
300.391
300.356
300.323
300.292
300.262
300.233
300.205
300.179
300.153
300.128
300.104
300.08
300.057
300.034
300.011
282.481
284.45
286.327
288.11
289.797
291.389
292.885
294.287
295.595
296.812
297.94
298.981
299.937
300.812
301.608
302.329
302.979
303.561
304.077
304.532
304.93
305.273
305.564
305.809
306.008
306.167
306.288
306.373
306.426
306.45
306.446
306.419
306.369
306.3
306.214
306.112
305.996
305.869
305.732
305.586
305.433
305.274
305.111
304.944
304.775
304.604
304.433
304.262
304.092
303.923
303.756
303.592
303.431
303.273
303.119
302.969
302.822
302.68
302.543
302.41
302.282
302.158
302.039
301.925
301.815
301.71
301.609
301.513
301.421
301.334
301.25
301.171
301.095
301.024
300.955
300.891
300.83
300.772
300.717
300.664
300.615
300.568
300.524
300.482
300.442
300.404
300.369
300.334
300.302
300.271
300.241
300.212
300.185
300.158
300.133
300.108
300.083
300.059
300.035
300.012
281.91
283.943
285.881
287.722
289.464
291.108
292.653
294.101
295.452
296.709
297.873
298.947
299.935
300.838
301.66
302.405
303.076
303.677
304.21
304.68
305.09
305.444
305.746
305.998
306.204
306.368
306.492
306.581
306.635
306.66
306.656
306.628
306.577
306.506
306.416
306.311
306.192
306.06
305.919
305.768
305.61
305.446
305.277
305.105
304.93
304.754
304.577
304.401
304.225
304.051
303.879
303.709
303.543
303.38
303.221
303.065
302.914
302.768
302.626
302.489
302.356
302.228
302.105
301.987
301.874
301.765
301.661
301.562
301.467
301.377
301.291
301.209
301.131
301.057
300.987
300.92
300.857
300.797
300.74
300.686
300.635
300.587
300.541
300.498
300.457
300.418
300.381
300.345
300.312
300.28
300.249
300.219
300.191
300.164
300.137
300.111
300.086
300.061
300.036
300.012
281.344
283.441
285.439
287.338
289.135
290.83
292.423
293.916
295.309
296.605
297.806
298.914
299.933
300.864
301.712
302.481
303.173
303.792
304.342
304.827
305.25
305.615
305.926
306.186
306.399
306.567
306.696
306.787
306.843
306.868
306.865
306.836
306.783
306.709
306.617
306.509
306.386
306.25
306.104
305.948
305.785
305.616
305.442
305.265
305.085
304.903
304.721
304.538
304.357
304.178
304
303.825
303.654
303.486
303.321
303.161
303.006
302.854
302.708
302.566
302.43
302.298
302.171
302.049
301.933
301.821
301.714
301.611
301.513
301.42
301.331
301.247
301.166
301.09
301.018
300.949
300.883
300.822
300.763
300.708
300.655
300.605
300.558
300.513
300.471
300.431
300.392
300.356
300.321
300.288
300.257
300.226
300.197
300.169
300.141
300.115
300.089
300.063
300.038
300.013
280.782
282.942
285.001
286.956
288.807
290.554
292.195
293.733
295.168
296.503
297.74
298.882
299.931
300.89
301.764
302.555
303.268
303.906
304.473
304.972
305.408
305.784
306.104
306.372
306.591
306.765
306.897
306.991
307.049
307.075
307.072
307.041
306.987
306.912
306.817
306.705
306.578
306.438
306.288
306.128
305.96
305.786
305.606
305.423
305.238
305.051
304.863
304.675
304.489
304.303
304.121
303.941
303.764
303.591
303.421
303.257
303.096
302.94
302.79
302.644
302.503
302.367
302.237
302.111
301.991
301.875
301.765
301.66
301.559
301.463
301.371
301.284
301.202
301.123
301.048
300.977
300.91
300.846
300.786
300.729
300.675
300.623
300.575
300.529
300.485
300.444
300.404
300.367
300.331
300.297
300.264
300.233
300.203
300.174
300.146
300.118
300.091
300.065
300.039
300.013
280.225
282.447
284.566
286.578
288.483
290.28
291.969
293.551
295.028
296.402
297.675
298.849
299.929
300.916
301.815
302.629
303.363
304.019
304.602
305.116
305.565
305.952
306.281
306.557
306.782
306.961
307.097
307.194
307.254
307.28
307.277
307.246
307.19
307.112
307.014
306.899
306.769
306.625
306.47
306.305
306.132
305.953
305.769
305.581
305.39
305.197
305.004
304.811
304.619
304.428
304.24
304.055
303.873
303.695
303.521
303.351
303.186
303.026
302.87
302.72
302.575
302.436
302.301
302.172
302.049
301.93
301.816
301.708
301.604
301.505
301.411
301.322
301.236
301.155
301.079
301.006
300.936
300.871
300.809
300.75
300.694
300.642
300.592
300.544
300.499
300.457
300.416
300.377
300.341
300.306
300.272
300.24
300.209
300.179
300.15
300.121
300.094
300.067
300.04
300.013
279.673
281.957
284.135
286.203
288.161
290.008
291.745
293.371
294.889
296.301
297.61
298.817
299.927
300.942
301.866
302.703
303.457
304.131
304.731
305.259
305.72
306.118
306.456
306.74
306.972
307.156
307.295
307.394
307.456
307.484
307.48
307.448
307.391
307.31
307.21
307.092
306.958
306.81
306.651
306.481
306.304
306.119
305.93
305.736
305.54
305.342
305.143
304.945
304.748
304.552
304.359
304.168
303.981
303.798
303.619
303.445
303.275
303.11
302.951
302.796
302.647
302.504
302.366
302.233
302.106
301.984
301.867
301.755
301.649
301.547
301.451
301.358
301.271
301.188
301.109
301.034
300.963
300.895
300.831
300.771
300.714
300.659
300.608
300.559
300.513
300.469
300.428
300.388
300.35
300.314
300.28
300.246
300.215
300.184
300.154
300.125
300.096
300.069
300.041
300.014
279.126
281.472
283.708
285.832
287.843
289.739
291.522
293.193
294.752
296.202
297.545
298.785
299.925
300.967
301.916
302.776
303.55
304.243
304.858
305.401
305.874
306.283
306.63
306.921
307.159
307.348
307.492
307.594
307.657
307.685
307.681
307.648
307.589
307.507
307.404
307.283
307.145
306.993
306.83
306.656
306.473
306.284
306.09
305.891
305.689
305.486
305.282
305.078
304.875
304.674
304.476
304.28
304.088
303.9
303.716
303.537
303.363
303.194
303.03
302.872
302.719
302.571
302.429
302.293
302.162
302.037
301.917
301.803
301.693
301.589
301.49
301.395
301.305
301.22
301.138
301.062
300.989
300.919
300.854
300.792
300.733
300.677
300.624
300.574
300.527
300.482
300.439
300.398
300.36
300.323
300.287
300.253
300.22
300.189
300.158
300.128
300.099
300.07
300.042
300.014
278.584
280.991
283.285
285.464
287.527
289.473
291.302
293.016
294.616
296.103
297.482
298.754
299.923
300.992
301.966
302.848
303.642
304.353
304.984
305.541
306.026
306.446
306.802
307.101
307.345
307.539
307.686
307.791
307.856
307.885
307.881
307.847
307.787
307.702
307.596
307.472
307.331
307.175
307.007
306.829
306.641
306.447
306.248
306.044
305.837
305.628
305.419
305.21
305.002
304.796
304.592
304.391
304.194
304.001
303.813
303.629
303.45
303.277
303.109
302.946
302.789
302.638
302.493
302.353
302.219
302.09
301.967
301.849
301.737
301.63
301.528
301.431
301.339
301.251
301.168
301.089
301.014
300.943
300.876
300.812
300.752
300.695
300.641
300.589
300.541
300.494
300.451
300.409
300.369
300.331
300.295
300.26
300.226
300.194
300.162
300.132
300.102
300.072
300.043
300.014
278.047
280.514
282.866
285.1
287.214
289.209
291.084
292.841
294.481
296.006
297.419
298.722
299.921
301.017
302.015
302.919
303.733
304.462
305.109
305.68
306.178
306.607
306.973
307.279
307.529
307.728
307.879
307.986
308.053
308.082
308.078
308.044
307.982
307.895
307.787
307.659
307.514
307.355
307.183
307
306.808
306.609
306.404
306.195
305.983
305.769
305.555
305.341
305.127
304.916
304.707
304.501
304.3
304.102
303.908
303.72
303.537
303.359
303.187
303.02
302.859
302.704
302.555
302.412
302.274
302.142
302.016
301.896
301.781
301.671
301.567
301.467
301.373
301.283
301.197
301.116
301.04
300.967
300.898
300.833
300.771
300.712
300.657
300.604
300.554
300.507
300.462
300.419