/*--------------------------------*- C++ -*----------------------------------*\
| =========                 |                                                 |
| \\      /  F ield         | OpenFOAM: The Open Source CFD Toolbox           |
|  \\    /   O peration     | Version:  2406                                  |
|   \\  /    A nd           | Website:  www.openfoam.com                      |
|    \\/     M anipulation  |                                                 |
\*---------------------------------------------------------------------------*/
FoamFile
{
    version     2.0;
    format      ascii;
    arch        "LSB;label=32;scalar=64";
    class       volVectorField;
    location    "65";
    object      flux;
}
// * * * * * * * * * * * * * * * * * * * * * * * * * * * * * * * * * * * * * //

dimensions      [0 1 -1 1 0 0 0];

internalField   nonuniform List<vector> 
20000
(
(-0.00233318 0.133516 0)
(-0.00229073 0.128892 0)
(-0.00224653 0.124354 0)
(-0.00220081 0.119906 0)
(-0.00215381 0.115551 0)
(-0.00210563 0.111291 0)
(-0.00205642 0.107129 0)
(-0.00200667 0.103066 0)
(-0.00195638 0.099103 0)
(-0.00190546 0.0952412 0)
(-0.00185429 0.0914816 0)
(-0.0018031 0.0878244 0)
(-0.00175192 0.0842696 0)
(-0.0017008 0.0808172 0)
(-0.00164985 0.0774669 0)
(-0.00159922 0.0742182 0)
(-0.00154903 0.0710704 0)
(-0.00149935 0.0680225 0)
(-0.00145025 0.0650733 0)
(-0.00140177 0.0622218 0)
(-0.00135397 0.0594666 0)
(-0.00130693 0.0568063 0)
(-0.00126069 0.0542392 0)
(-0.00121531 0.0517638 0)
(-0.00117082 0.0493783 0)
(-0.00112726 0.0470808 0)
(-0.00108465 0.0448696 0)
(-0.00104303 0.0427425 0)
(-0.00100241 0.0406977 0)
(-0.000962798 0.0387331 0)
(-0.000924216 0.0368467 0)
(-0.000886671 0.0350365 0)
(-0.000850167 0.0333003 0)
(-0.000814709 0.031636 0)
(-0.000780297 0.0300416 0)
(-0.000746928 0.028515 0)
(-0.000714597 0.0270541 0)
(-0.000683299 0.0256568 0)
(-0.000653024 0.0243211 0)
(-0.000623761 0.0230449 0)
(-0.000595499 0.0218262 0)
(-0.000568224 0.020663 0)
(-0.00054192 0.0195534 0)
(-0.000516572 0.0184955 0)
(-0.000492162 0.0174873 0)
(-0.000468672 0.016527 0)
(-0.000446083 0.0156127 0)
(-0.000424374 0.0147427 0)
(-0.000403527 0.0139153 0)
(-0.000383519 0.0131287 0)
(-0.000364331 0.0123813 0)
(-0.00034594 0.0116715 0)
(-0.000328324 0.0109977 0)
(-0.000311462 0.0103583 0)
(-0.000295333 0.00975189 0)
(-0.000279913 0.00917703 0)
(-0.000265181 0.00863231 0)
(-0.000251115 0.00811637 0)
(-0.000237695 0.00762791 0)
(-0.000224897 0.00716565 0)
(-0.000212702 0.00672837 0)
(-0.000201089 0.00631489 0)
(-0.000190036 0.00592407 0)
(-0.000179524 0.0055548 0)
(-0.000169534 0.00520601 0)
(-0.000160045 0.0048767 0)
(-0.000151039 0.00456587 0)
(-0.000142498 0.00427258 0)
(-0.000134403 0.00399592 0)
(-0.000126738 0.003735 0)
(-0.000119485 0.003489 0)
(-0.000112628 0.00325709 0)
(-0.000106151 0.00303851 0)
(-0.00010004 0.00283251 0)
(-9.42779e-05 0.00263838 0)
(-8.88522e-05 0.00245542 0)
(-8.37488e-05 0.00228299 0)
(-7.89547e-05 0.00212045 0)
(-7.44575e-05 0.00196719 0)
(-7.02452e-05 0.00182264 0)
(-6.63064e-05 0.00168623 0)
(-6.26303e-05 0.00155743 0)
(-5.92067e-05 0.00143572 0)
(-5.6026e-05 0.00132062 0)
(-5.30791e-05 0.00121163 0)
(-5.03573e-05 0.00110831 0)
(-4.78527e-05 0.00101022 0)
(-4.55579e-05 0.000916913 0)
(-4.34659e-05 0.000827995 0)
(-4.15704e-05 0.000743061 0)
(-3.98656e-05 0.000661724 0)
(-3.83462e-05 0.000583608 0)
(-3.70075e-05 0.000508348 0)
(-3.58453e-05 0.000435587 0)
(-3.48559e-05 0.000364976 0)
(-3.40362e-05 0.000296172 0)
(-3.33836e-05 0.00022884 0)
(-3.28959e-05 0.000162646 0)
(-3.25717e-05 9.72639e-05 0)
(-3.24098e-05 3.23674e-05 0)
(-0.00699897 0.133483 0)
(-0.00687161 0.12886 0)
(-0.00673905 0.124323 0)
(-0.00660192 0.119876 0)
(-0.00646076 0.115523 0)
(-0.00631634 0.111264 0)
(-0.00616895 0.107103 0)
(-0.00601953 0.103041 0)
(-0.00586849 0.0990785 0)
(-0.00571587 0.0952178 0)
(-0.00556249 0.0914591 0)
(-0.0054089 0.0878027 0)
(-0.00525532 0.0842488 0)
(-0.00510194 0.0807972 0)
(-0.00494912 0.0774478 0)
(-0.00479728 0.0741999 0)
(-0.00464673 0.0710529 0)
(-0.0044977 0.0680057 0)
(-0.00435038 0.0650573 0)
(-0.00420495 0.0622065 0)
(-0.00406158 0.0594519 0)
(-0.00392046 0.0567923 0)
(-0.00378176 0.0542259 0)
(-0.00364562 0.0517511 0)
(-0.00351216 0.0493661 0)
(-0.00338149 0.0470692 0)
(-0.00325369 0.0448585 0)
(-0.00312883 0.042732 0)
(-0.00300697 0.0406877 0)
(-0.00288816 0.0387236 0)
(-0.00277242 0.0368376 0)
(-0.00265979 0.0350278 0)
(-0.00255029 0.0332921 0)
(-0.00244393 0.0316282 0)
(-0.0023407 0.0300342 0)
(-0.0022406 0.028508 0)
(-0.00214362 0.0270474 0)
(-0.00204973 0.0256505 0)
(-0.00195891 0.0243151 0)
(-0.00187113 0.0230392 0)
(-0.00178635 0.0218208 0)
(-0.00170453 0.0206579 0)
(-0.00162563 0.0195486 0)
(-0.00154959 0.0184909 0)
(-0.00147636 0.017483 0)
(-0.0014059 0.0165229 0)
(-0.00133814 0.0156089 0)
(-0.00127302 0.0147391 0)
(-0.00121048 0.0139119 0)
(-0.00115046 0.0131255 0)
(-0.0010929 0.0123783 0)
(-0.00103773 0.0116686 0)
(-0.000984891 0.0109949 0)
(-0.00093431 0.0103557 0)
(-0.000885925 0.00974948 0)
(-0.000839669 0.00917476 0)
(-0.000795477 0.00863018 0)
(-0.000753284 0.00811437 0)
(-0.000713025 0.00762603 0)
(-0.000674637 0.00716388 0)
(-0.000638055 0.00672671 0)
(-0.000603217 0.00631334 0)
(-0.000570062 0.00592261 0)
(-0.000538529 0.00555343 0)
(-0.00050856 0.00520473 0)
(-0.000480096 0.0048755 0)
(-0.00045308 0.00456475 0)
(-0.000427459 0.00427153 0)
(-0.000403177 0.00399493 0)
(-0.000380183 0.00373408 0)
(-0.000358426 0.00348814 0)
(-0.000337857 0.00325629 0)
(-0.000318428 0.00303776 0)
(-0.000300094 0.00283181 0)
(-0.00028281 0.00263773 0)
(-0.000266535 0.00245482 0)
(-0.000251226 0.00228243 0)
(-0.000236845 0.00211993 0)
(-0.000223354 0.00196671 0)
(-0.000210718 0.00182219 0)
(-0.000198903 0.00168581 0)
(-0.000187875 0.00155704 0)
(-0.000177606 0.00143537 0)
(-0.000168064 0.00132029 0)
(-0.000159224 0.00121133 0)
(-0.000151059 0.00110804 0)
(-0.000143546 0.00100997 0)
(-0.000136662 0.000916687 0)
(-0.000130387 0.000827791 0)
(-0.000124701 0.000742877 0)
(-0.000119587 0.00066156 0)
(-0.000115029 0.000583464 0)
(-0.000111013 0.000508223 0)
(-0.000107527 0.00043548 0)
(-0.000104559 0.000364886 0)
(-0.0001021 0.000296099 0)
(-0.000100143 0.000228783 0)
(-9.86797e-05 0.000162606 0)
(-9.77071e-05 9.724e-05 0)
(-9.72215e-05 3.23594e-05 0)
(-0.0116631 0.133417 0)
(-0.0114509 0.128796 0)
(-0.0112299 0.124262 0)
(-0.0110014 0.119817 0)
(-0.0107661 0.115466 0)
(-0.0105255 0.111209 0)
(-0.01028 0.10705 0)
(-0.0100309 0.10299 0)
(-0.00977908 0.0990296 0)
(-0.00952487 0.0951708 0)
(-0.00926937 0.091414 0)
(-0.00901341 0.0877594 0)
(-0.0087574 0.0842072 0)
(-0.00850178 0.0807574 0)
(-0.00824715 0.0774096 0)
(-0.00799416 0.0741633 0)
(-0.0077433 0.0710178 0)
(-0.00749496 0.0679721 0)
(-0.00724945 0.0650251 0)
(-0.00700709 0.0621758 0)
(-0.00676818 0.0594226 0)
(-0.00653302 0.0567642 0)
(-0.00630189 0.0541991 0)
(-0.00607503 0.0517255 0)
(-0.00585264 0.0493418 0)
(-0.00563489 0.047046 0)
(-0.00542193 0.0448364 0)
(-0.00521387 0.0427109 0)
(-0.0050108 0.0406676 0)
(-0.0048128 0.0387045 0)
(-0.00461994 0.0368195 0)
(-0.00443226 0.0350106 0)
(-0.00424979 0.0332756 0)
(-0.00407254 0.0316126 0)
(-0.00390052 0.0300194 0)
(-0.00373372 0.0284939 0)
(-0.0035721 0.0270341 0)
(-0.00341565 0.0256378 0)
(-0.00326431 0.0243031 0)
(-0.00311804 0.0230278 0)
(-0.00297676 0.02181 0)
(-0.00284042 0.0206477 0)
(-0.00270893 0.019539 0)
(-0.00258222 0.0184818 0)
(-0.0024602 0.0174743 0)
(-0.00234278 0.0165147 0)
(-0.00222986 0.0156012 0)
(-0.00212135 0.0147318 0)
(-0.00201714 0.013905 0)
(-0.00191712 0.013119 0)
(-0.00182121 0.0123722 0)
(-0.00172927 0.0116629 0)
(-0.00164122 0.0109895 0)
(-0.00155693 0.0103506 0)
(-0.0014763 0.00974467 0)
(-0.00139922 0.00917024 0)
(-0.00132558 0.00862592 0)
(-0.00125527 0.00811036 0)
(-0.00118818 0.00762226 0)
(-0.00112421 0.00716035 0)
(-0.00106325 0.00672339 0)
(-0.0010052 0.00631022 0)
(-0.000949947 0.00591968 0)
(-0.000897401 0.00555068 0)
(-0.00084746 0.00520216 0)
(-0.000800028 0.00487309 0)
(-0.00075501 0.00456249 0)
(-0.000712314 0.00426942 0)
(-0.000671851 0.00399296 0)
(-0.000633534 0.00373224 0)
(-0.000597278 0.00348641 0)
(-0.000563002 0.00325468 0)
(-0.000530626 0.00303626 0)
(-0.000500075 0.00283041 0)
(-0.000471273 0.00263642 0)
(-0.000444151 0.00245361 0)
(-0.000418641 0.0022813 0)
(-0.000394676 0.00211888 0)
(-0.000372196 0.00196574 0)
(-0.000351139 0.00182129 0)
(-0.00033145 0.00168498 0)
(-0.000313074 0.00155628 0)
(-0.000295961 0.00143466 0)
(-0.000280061 0.00131964 0)
(-0.00026533 0.00121074 0)
(-0.000251724 0.00110749 0)
(-0.000239204 0.00100947 0)
(-0.000227733 0.000916235 0)
(-0.000217276 0.000827382 0)
(-0.000207801 0.000742511 0)
(-0.000199279 0.000661234 0)
(-0.000191684 0.000583176 0)
(-0.000184992 0.000507972 0)
(-0.000179182 0.000435265 0)
(-0.000174237 0.000364706 0)
(-0.000170139 0.000295953 0)
(-0.000166877 0.00022867 0)
(-0.000164439 0.000162526 0)
(-0.000162818 9.7192e-05 0)
(-0.000162009 3.23435e-05 0)
(-0.0163243 0.133319 0)
(-0.0160274 0.128701 0)
(-0.015718 0.12417 0)
(-0.0153981 0.119729 0)
(-0.0150689 0.11538 0)
(-0.014732 0.111127 0)
(-0.0143885 0.106971 0)
(-0.0140398 0.102913 0)
(-0.0136873 0.0989563 0)
(-0.0133315 0.0951004 0)
(-0.012974 0.0913462 0)
(-0.0126157 0.0876944 0)
(-0.0122573 0.0841448 0)
(-0.0118995 0.0806976 0)
(-0.0115432 0.0773523 0)
(-0.0111891 0.0741084 0)
(-0.010838 0.0709652 0)
(-0.0104904 0.0679218 0)
(-0.0101467 0.064977 0)
(-0.0098075 0.0621297 0)
(-0.0094731 0.0593786 0)
(-0.00914396 0.0567222 0)
(-0.00882047 0.054159 0)
(-0.00850294 0.0516872 0)
(-0.00819168 0.0493052 0)
(-0.00788691 0.0470112 0)
(-0.00758883 0.0448032 0)
(-0.00729761 0.0426792 0)
(-0.00701339 0.0406375 0)
(-0.00673626 0.0386758 0)
(-0.00646632 0.0367922 0)
(-0.00620363 0.0349846 0)
(-0.00594823 0.033251 0)
(-0.00570015 0.0315892 0)
(-0.00545938 0.0299972 0)
(-0.00522591 0.0284728 0)
(-0.00499971 0.0270141 0)
(-0.00478073 0.0256188 0)
(-0.00456891 0.0242851 0)
(-0.00436417 0.0230108 0)
(-0.00416644 0.0217939 0)
(-0.0039756 0.0206325 0)
(-0.00379157 0.0195245 0)
(-0.00361422 0.0184681 0)
(-0.00344343 0.0174614 0)
(-0.00327908 0.0165025 0)
(-0.00312104 0.0155896 0)
(-0.00296915 0.0147209 0)
(-0.00282329 0.0138947 0)
(-0.00268331 0.0131093 0)
(-0.00254906 0.012363 0)
(-0.00242038 0.0116542 0)
(-0.00229713 0.0109814 0)
(-0.00217916 0.010343 0)
(-0.00206631 0.00973745 0)
(-0.00195842 0.00916344 0)
(-0.00185535 0.00861953 0)
(-0.00175694 0.00810436 0)
(-0.00166304 0.00761662 0)
(-0.0015735 0.00715504 0)
(-0.00148818 0.00671841 0)
(-0.00140693 0.00630555 0)
(-0.0013296 0.0059153 0)
(-0.00125605 0.00554657 0)
(-0.00118615 0.00519831 0)
(-0.00111976 0.00486948 0)
(-0.00105675 0.00455912 0)
(-0.000996994 0.00426626 0)
(-0.00094036 0.00399 0)
(-0.000886729 0.00372947 0)
(-0.000835983 0.00348383 0)
(-0.000788009 0.00325227 0)
(-0.000742694 0.00303401 0)
(-0.000699932 0.00282832 0)
(-0.00065962 0.00263447 0)
(-0.000621658 0.00245179 0)
(-0.000585952 0.00227961 0)
(-0.00055241 0.00211731 0)
(-0.000520945 0.00196428 0)
(-0.000491473 0.00181994 0)
(-0.000463915 0.00168373 0)
(-0.000438196 0.00155512 0)
(-0.000414243 0.0014336 0)
(-0.000391989 0.00131866 0)
(-0.00037137 0.00120984 0)
(-0.000352327 0.00110667 0)
(-0.000334804 0.00100872 0)
(-0.000318748 0.000915556 0)
(-0.000304111 0.00082677 0)
(-0.000290849 0.000741961 0)
(-0.000278921 0.000660745 0)
(-0.000268291 0.000582745 0)
(-0.000258925 0.000507596 0)
(-0.000250793 0.000434943 0)
(-0.000243871 0.000364436 0)
(-0.000238136 0.000295734 0)
(-0.00023357 0.000228501 0)
(-0.000230158 0.000162406 0)
(-0.000227889 9.71201e-05 0)
(-0.000226757 3.23195e-05 0)
(-0.0209814 0.133187 0)
(-0.0205998 0.128574 0)
(-0.0202023 0.124047 0)
(-0.019791 0.11961 0)
(-0.0193679 0.115266 0)
(-0.0189349 0.111017 0)
(-0.0184934 0.106865 0)
(-0.0180452 0.102812 0)
(-0.0175921 0.0988586 0)
(-0.0171349 0.0950064 0)
(-0.0166754 0.091256 0)
(-0.0162148 0.0876077 0)
(-0.0157542 0.0840617 0)
(-0.0152943 0.0806179 0)
(-0.0148363 0.0772759 0)
(-0.0143812 0.0740352 0)
(-0.01393 0.0708951 0)
(-0.0134832 0.0678547 0)
(-0.0130415 0.0649128 0)
(-0.0126055 0.0620683 0)
(-0.0121757 0.0593199 0)
(-0.0117526 0.0566662 0)
(-0.0113369 0.0541055 0)
(-0.0109288 0.0516362 0)
(-0.0105287 0.0492565 0)
(-0.010137 0.0469647 0)
(-0.00975386 0.0447589 0)
(-0.00937956 0.0426371 0)
(-0.00901425 0.0405973 0)
(-0.00865806 0.0386376 0)
(-0.00831111 0.0367559 0)
(-0.00797347 0.0349501 0)
(-0.00764521 0.0332181 0)
(-0.00732635 0.031558 0)
(-0.0070169 0.0299675 0)
(-0.00671682 0.0284447 0)
(-0.00642609 0.0269874 0)
(-0.00614463 0.0255935 0)
(-0.00587238 0.0242611 0)
(-0.00560923 0.022988 0)
(-0.00535509 0.0217724 0)
(-0.00510981 0.0206121 0)
(-0.00487327 0.0195052 0)
(-0.00464533 0.0184499 0)
(-0.00442582 0.0174441 0)
(-0.00421458 0.0164862 0)
(-0.00401144 0.0155742 0)
(-0.00381623 0.0147064 0)
(-0.00362876 0.013881 0)
(-0.00344884 0.0130964 0)
(-0.00327628 0.0123508 0)
(-0.0031109 0.0116427 0)
(-0.00295249 0.0109705 0)
(-0.00280086 0.0103327 0)
(-0.00265581 0.00972783 0)
(-0.00251714 0.00915439 0)
(-0.00238466 0.00861101 0)
(-0.00225818 0.00809635 0)
(-0.00213749 0.00760909 0)
(-0.00202241 0.00714798 0)
(-0.00191275 0.00671178 0)
(-0.00180831 0.00629932 0)
(-0.00170892 0.00590946 0)
(-0.00161439 0.00554109 0)
(-0.00152455 0.00519317 0)
(-0.00143922 0.00486467 0)
(-0.00135824 0.00455461 0)
(-0.00128143 0.00426204 0)
(-0.00120864 0.00398606 0)
(-0.0011397 0.00372579 0)
(-0.00107448 0.00348039 0)
(-0.00101282 0.00324906 0)
(-0.000954578 0.00303102 0)
(-0.000899616 0.00282552 0)
(-0.000847803 0.00263187 0)
(-0.000799012 0.00244937 0)
(-0.000753119 0.00227736 0)
(-0.000710008 0.00211522 0)
(-0.000669566 0.00196234 0)
(-0.000631686 0.00181814 0)
(-0.000596266 0.00168207 0)
(-0.000563209 0.00155359 0)
(-0.000532422 0.00143218 0)
(-0.00050382 0.00131736 0)
(-0.000477319 0.00120864 0)
(-0.000452843 0.00110558 0)
(-0.00043032 0.00100772 0)
(-0.000409683 0.000914652 0)
(-0.000390871 0.000825953 0)
(-0.000373826 0.000741228 0)
(-0.000358495 0.000660092 0)
(-0.000344832 0.000582169 0)
(-0.000332794 0.000507095 0)
(-0.000322342 0.000434513 0)
(-0.000313445 0.000364076 0)
(-0.000306074 0.000295442 0)
(-0.000300205 0.000228275 0)
(-0.00029582 0.000162245 0)
(-0.000292904 9.70242e-05 0)
(-0.000291449 3.22876e-05 0)
(-0.0256333 0.133022 0)
(-0.0251671 0.128415 0)
(-0.0246815 0.123894 0)
(-0.0241791 0.119463 0)
(-0.0236622 0.115124 0)
(-0.0231331 0.11088 0)
(-0.0225937 0.106733 0)
(-0.0220462 0.102685 0)
(-0.0214926 0.0987364 0)
(-0.0209341 0.094889 0)
(-0.0203726 0.0911433 0)
(-0.0198099 0.0874995 0)
(-0.0192471 0.0839579 0)
(-0.0186853 0.0805183 0)
(-0.0181258 0.0771804 0)
(-0.0175699 0.0739437 0)
(-0.0170185 0.0708075 0)
(-0.0164727 0.0677708 0)
(-0.0159331 0.0648326 0)
(-0.0154003 0.0619916 0)
(-0.0148753 0.0592466 0)
(-0.0143584 0.0565962 0)
(-0.0138505 0.0540386 0)
(-0.0133519 0.0515724 0)
(-0.0128631 0.0491957 0)
(-0.0123845 0.0469067 0)
(-0.0119165 0.0447036 0)
(-0.0114592 0.0425844 0)
(-0.0110129 0.0405472 0)
(-0.0105777 0.0385898 0)
(-0.0101538 0.0367104 0)
(-0.00974135 0.0349069 0)
(-0.00934031 0.0331771 0)
(-0.00895075 0.031519 0)
(-0.00857268 0.0299305 0)
(-0.00820607 0.0284095 0)
(-0.00785087 0.026954 0)
(-0.00750702 0.0255619 0)
(-0.0071744 0.0242311 0)
(-0.00685291 0.0229596 0)
(-0.00654241 0.0217455 0)
(-0.00624275 0.0205866 0)
(-0.00595377 0.0194811 0)
(-0.00567529 0.0184271 0)
(-0.00540711 0.0174226 0)
(-0.00514903 0.0164658 0)
(-0.00490086 0.015555 0)
(-0.00466236 0.0146882 0)
(-0.00443332 0.0138638 0)
(-0.00421351 0.0130802 0)
(-0.0040027 0.0123355 0)
(-0.00380064 0.0116283 0)
(-0.00360711 0.010957 0)
(-0.00342186 0.01032 0)
(-0.00324465 0.00971581 0)
(-0.00307524 0.00914308 0)
(-0.00291339 0.00860037 0)
(-0.00275886 0.00808635 0)
(-0.00261142 0.00759969 0)
(-0.00247082 0.00713914 0)
(-0.00233684 0.00670348 0)
(-0.00220925 0.00629153 0)
(-0.00208782 0.00590215 0)
(-0.00197233 0.00553425 0)
(-0.00186257 0.00518676 0)
(-0.00175832 0.00485866 0)
(-0.00165938 0.00454898 0)
(-0.00156554 0.00425678 0)
(-0.00147661 0.00398114 0)
(-0.0013924 0.00372119 0)
(-0.00131272 0.00347609 0)
(-0.00123738 0.00324504 0)
(-0.00116623 0.00302727 0)
(-0.00109908 0.00282203 0)
(-0.00103578 0.00262862 0)
(-0.000976168 0.00244634 0)
(-0.0009201 0.00227455 0)
(-0.000867431 0.00211261 0)
(-0.000818022 0.00195991 0)
(-0.000771744 0.0018159 0)
(-0.00072847 0.00167999 0)
(-0.000688083 0.00155167 0)
(-0.000650471 0.00143041 0)
(-0.000615526 0.00131573 0)
(-0.00058315 0.00120715 0)
(-0.000553247 0.00110421 0)
(-0.00052573 0.00100648 0)
(-0.000500518 0.000913522 0)
(-0.000477535 0.000824933 0)
(-0.00045671 0.000740313 0)
(-0.00043798 0.000659277 0)
(-0.000421288 0.00058145 0)
(-0.00040658 0.000506469 0)
(-0.000393812 0.000433977 0)
(-0.000382942 0.000363626 0)
(-0.000373937 0.000295077 0)
(-0.000366767 0.000227993 0)
(-0.000361409 0.000162045 0)
(-0.000357847 9.69044e-05 0)
(-0.000356069 3.22477e-05 0)
(-0.0302789 0.132825 0)
(-0.0297282 0.128224 0)
(-0.0291547 0.12371 0)
(-0.0285612 0.119285 0)
(-0.0279506 0.114953 0)
(-0.0273256 0.110715 0)
(-0.0266885 0.106575 0)
(-0.0260418 0.102532 0)
(-0.0253878 0.0985899 0)
(-0.0247281 0.0947482 0)
(-0.0240649 0.091008 0)
(-0.0234002 0.0873697 0)
(-0.0227354 0.0838333 0)
(-0.0220718 0.0803988 0)
(-0.0214109 0.0770659 0)
(-0.0207542 0.073834 0)
(-0.0201029 0.0707024 0)
(-0.0194581 0.0676702 0)
(-0.0188207 0.0647364 0)
(-0.0181914 0.0618997 0)
(-0.0175712 0.0591587 0)
(-0.0169607 0.0565122 0)
(-0.0163606 0.0539585 0)
(-0.0157717 0.0514959 0)
(-0.0151944 0.0491227 0)
(-0.0146291 0.0468371 0)
(-0.0140762 0.0446373 0)
(-0.013536 0.0425212 0)
(-0.0130088 0.040487 0)
(-0.0124948 0.0385326 0)
(-0.0119941 0.036656 0)
(-0.0115068 0.0348551 0)
(-0.0110331 0.0331279 0)
(-0.0105729 0.0314722 0)
(-0.0101263 0.0298861 0)
(-0.00969329 0.0283674 0)
(-0.00927373 0.026914 0)
(-0.00886755 0.025524 0)
(-0.00847465 0.0241952 0)
(-0.0080949 0.0229256 0)
(-0.00772812 0.0217132 0)
(-0.00737416 0.0205561 0)
(-0.0070328 0.0194522 0)
(-0.00670384 0.0183997 0)
(-0.00638706 0.0173967 0)
(-0.00608222 0.0164414 0)
(-0.00578906 0.0155319 0)
(-0.00550734 0.0146664 0)
(-0.00523679 0.0138433 0)
(-0.00497715 0.0130608 0)
(-0.00472812 0.0123172 0)
(-0.00448945 0.0116111 0)
(-0.00426085 0.0109407 0)
(-0.00404202 0.0103047 0)
(-0.00383269 0.0097014 0)
(-0.00363258 0.00912951 0)
(-0.0034414 0.00858761 0)
(-0.00325886 0.00807435 0)
(-0.0030847 0.00758841 0)
(-0.00291862 0.00712855 0)
(-0.00276036 0.00669354 0)
(-0.00260964 0.0062822 0)
(-0.00246621 0.0058934 0)
(-0.00232979 0.00552604 0)
(-0.00220013 0.00517906 0)
(-0.00207699 0.00485145 0)
(-0.00196012 0.00454223 0)
(-0.00184928 0.00425046 0)
(-0.00174423 0.00397523 0)
(-0.00164475 0.00371566 0)
(-0.00155063 0.00347093 0)
(-0.00146164 0.00324023 0)
(-0.00137759 0.00302278 0)
(-0.00129827 0.00281785 0)
(-0.0012235 0.00262472 0)
(-0.00115308 0.00244271 0)
(-0.00108685 0.00227117 0)
(-0.00102464 0.00210947 0)
(-0.000966276 0.00195701 0)
(-0.00091161 0.0018132 0)
(-0.000860494 0.0016775 0)
(-0.000812788 0.00154937 0)
(-0.000768359 0.00142829 0)
(-0.000727081 0.00131378 0)
(-0.000688837 0.00120536 0)
(-0.000653514 0.00110257 0)
(-0.000621011 0.00100499 0)
(-0.00059123 0.000912167 0)
(-0.000564081 0.000823709 0)
(-0.000539482 0.000739214 0)
(-0.000517358 0.000658298 0)
(-0.00049764 0.000580587 0)
(-0.000480267 0.000505717 0)
(-0.000465184 0.000433333 0)
(-0.000452345 0.000363087 0)
(-0.000441707 0.000294639 0)
(-0.000433238 0.000227655 0)
(-0.000426909 0.000161804 0)
(-0.000422702 9.67606e-05 0)
(-0.000420601 3.21999e-05 0)
(-0.034917 0.132595 0)
(-0.034282 0.128002 0)
(-0.0336206 0.123496 0)
(-0.0329362 0.119079 0)
(-0.0322321 0.114754 0)
(-0.0315114 0.110523 0)
(-0.0307767 0.10639 0)
(-0.0300309 0.102355 0)
(-0.0292768 0.0984191 0)
(-0.028516 0.0945841 0)
(-0.0277512 0.0908503 0)
(-0.0269847 0.0872183 0)
(-0.026218 0.0836881 0)
(-0.0254527 0.0802595 0)
(-0.0246906 0.0769324 0)
(-0.0239333 0.0737061 0)
(-0.0231823 0.0705799 0)
(-0.0224387 0.067553 0)
(-0.0217036 0.0646242 0)
(-0.020978 0.0617924 0)
(-0.0202627 0.0590562 0)
(-0.0195587 0.0564143 0)
(-0.0188668 0.053865 0)
(-0.0181876 0.0514066 0)
(-0.0175219 0.0490376 0)
(-0.01687 0.046756 0)
(-0.0162324 0.0445599 0)
(-0.0156095 0.0424475 0)
(-0.0150015 0.0404168 0)
(-0.0144087 0.0384658 0)
(-0.0138313 0.0365924 0)
(-0.0132695 0.0347947 0)
(-0.0127232 0.0330705 0)
(-0.0121925 0.0314177 0)
(-0.0116775 0.0298343 0)
(-0.0111781 0.0283182 0)
(-0.0106943 0.0268674 0)
(-0.0102259 0.0254798 0)
(-0.00977281 0.0241532 0)
(-0.00933488 0.0228858 0)
(-0.00891193 0.0216756 0)
(-0.00850374 0.0205204 0)
(-0.0081101 0.0194185 0)
(-0.00773075 0.0183678 0)
(-0.00736544 0.0173666 0)
(-0.0070139 0.0164129 0)
(-0.00667584 0.015505 0)
(-0.00635096 0.014641 0)
(-0.00603897 0.0138193 0)
(-0.00573955 0.0130381 0)
(-0.00545239 0.0122959 0)
(-0.00517715 0.011591 0)
(-0.00491353 0.0109218 0)
(-0.00466118 0.0102868 0)
(-0.00441979 0.00968459 0)
(-0.00418903 0.00911369 0)
(-0.00396856 0.00857273 0)
(-0.00375806 0.00806036 0)
(-0.00355721 0.00757526 0)
(-0.0033657 0.0071162 0)
(-0.00318319 0.00668194 0)
(-0.00300939 0.00627131 0)
(-0.00284398 0.00588318 0)
(-0.00268667 0.00551646 0)
(-0.00253715 0.00517009 0)
(-0.00239515 0.00484305 0)
(-0.00226037 0.00453436 0)
(-0.00213255 0.0042431 0)
(-0.00201141 0.00396834 0)
(-0.0018967 0.00370923 0)
(-0.00178815 0.00346492 0)
(-0.00168554 0.00323461 0)
(-0.00158861 0.00301754 0)
(-0.00149714 0.00281296 0)
(-0.00141091 0.00262017 0)
(-0.00132971 0.00243848 0)
(-0.00125334 0.00226724 0)
(-0.0011816 0.00210582 0)
(-0.00111429 0.00195362 0)
(-0.00105125 0.00181006 0)
(-0.000992306 0.00167459 0)
(-0.000937292 0.00154668 0)
(-0.000886057 0.00142581 0)
(-0.000838456 0.0013115 0)
(-0.000794354 0.00120327 0)
(-0.000753621 0.00110066 0)
(-0.000716138 0.00100324 0)
(-0.000681795 0.000910587 0)
(-0.000650487 0.000822282 0)
(-0.00062212 0.000737934 0)
(-0.000596607 0.000657158 0)
(-0.000573869 0.000579582 0)
(-0.000553835 0.000504841 0)
(-0.000536442 0.000432582 0)
(-0.000521636 0.000362458 0)
(-0.000509369 0.000294129 0)
(-0.000499602 0.000227261 0)
(-0.000492304 0.000161524 0)
(-0.000487452 9.6593e-05 0)
(-0.000485029 3.21441e-05 0)
(-0.0395466 0.132332 0)
(-0.0388274 0.127748 0)
(-0.0380783 0.123251 0)
(-0.0373032 0.118842 0)
(-0.0365057 0.114526 0)
(-0.0356894 0.110304 0)
(-0.0348572 0.106179 0)
(-0.0340126 0.102152 0)
(-0.0331585 0.098224 0)
(-0.0322968 0.0943966 0)
(-0.0314307 0.0906702 0)
(-0.0305625 0.0870454 0)
(-0.0296941 0.0835221 0)
(-0.0288274 0.0801004 0)
(-0.0279643 0.0767799 0)
(-0.0271066 0.07356 0)
(-0.026256 0.07044 0)
(-0.0254138 0.0674191 0)
(-0.0245813 0.0644961 0)
(-0.0237594 0.0616699 0)
(-0.0229493 0.0589392 0)
(-0.0221519 0.0563024 0)
(-0.0213683 0.0537582 0)
(-0.0205991 0.0513047 0)
(-0.019845 0.0489404 0)
(-0.0191067 0.0466633 0)
(-0.0183846 0.0444716 0)
(-0.0176791 0.0423634 0)
(-0.0169905 0.0403367 0)
(-0.0163192 0.0383896 0)
(-0.0156652 0.0365199 0)
(-0.0150288 0.0347257 0)
(-0.0144101 0.0330049 0)
(-0.0138091 0.0313554 0)
(-0.0132258 0.0297752 0)
(-0.0126602 0.0282621 0)
(-0.0121122 0.0268141 0)
(-0.0115817 0.0254292 0)
(-0.0110686 0.0241054 0)
(-0.0105726 0.0228405 0)
(-0.0100935 0.0216326 0)
(-0.00963123 0.0204797 0)
(-0.00918539 0.01938 0)
(-0.00875575 0.0183314 0)
(-0.008342 0.0173322 0)
(-0.00794385 0.0163804 0)
(-0.00756097 0.0154742 0)
(-0.00719302 0.014612 0)
(-0.00683966 0.0137919 0)
(-0.00650054 0.0130123 0)
(-0.0061753 0.0122715 0)
(-0.00586358 0.011568 0)
(-0.005565 0.0109001 0)
(-0.0052792 0.0102664 0)
(-0.0050058 0.00966539 0)
(-0.00474444 0.00909563 0)
(-0.00449474 0.00855574 0)
(-0.00425633 0.00804438 0)
(-0.00402885 0.00756025 0)
(-0.00381194 0.00710209 0)
(-0.00360524 0.00666869 0)
(-0.0034084 0.00625888 0)
(-0.00322106 0.00587152 0)
(-0.00304289 0.00550552 0)
(-0.00287355 0.00515984 0)
(-0.00271272 0.00483345 0)
(-0.00256007 0.00452537 0)
(-0.0024153 0.00423468 0)
(-0.0022781 0.00396047 0)
(-0.00214817 0.00370187 0)
(-0.00202524 0.00345805 0)
(-0.00190902 0.0032282 0)
(-0.00179924 0.00301156 0)
(-0.00169564 0.00280739 0)
(-0.00159798 0.00261498 0)
(-0.00150602 0.00243364 0)
(-0.00141952 0.00226274 0)
(-0.00133826 0.00210164 0)
(-0.00126203 0.00194974 0)
(-0.00119063 0.00180647 0)
(-0.00112387 0.00167127 0)
(-0.00106156 0.00154361 0)
(-0.00100354 0.00142299 0)
(-0.000949625 0.0013089 0)
(-0.000899675 0.00120089 0)
(-0.000853541 0.00109848 0)
(-0.000811089 0.00100126 0)
(-0.000772192 0.000908781 0)
(-0.000736734 0.000820652 0)
(-0.000704606 0.000736471 0)
(-0.00067571 0.000655855 0)
(-0.000649957 0.000578433 0)
(-0.000627266 0.00050384 0)
(-0.000607568 0.000431725 0)
(-0.000590798 0.00036174 0)
(-0.000576904 0.000293546 0)
(-0.000565843 0.00022681 0)
(-0.000557577 0.000161204 0)
(-0.000552082 9.64015e-05 0)
(-0.000549338 3.20804e-05 0)
(-0.0441664 0.132036 0)
(-0.0433632 0.127463 0)
(-0.0425265 0.122976 0)
(-0.0416609 0.118577 0)
(-0.0407702 0.11427 0)
(-0.0398586 0.110058 0)
(-0.0389292 0.105942 0)
(-0.037986 0.101924 0)
(-0.037032 0.0980046 0)
(-0.0360697 0.0941858 0)
(-0.0351024 0.0904678 0)
(-0.0341328 0.086851 0)
(-0.033163 0.0833356 0)
(-0.032195 0.0799215 0)
(-0.0312311 0.0766084 0)
(-0.0302732 0.0733957 0)
(-0.0293232 0.0702827 0)
(-0.0283826 0.0672685 0)
(-0.0274528 0.0643521 0)
(-0.0265349 0.0615322 0)
(-0.0256302 0.0588076 0)
(-0.0247397 0.0561767 0)
(-0.0238645 0.0536381 0)
(-0.0230055 0.0511902 0)
(-0.0221633 0.0488311 0)
(-0.0213388 0.0465591 0)
(-0.0205323 0.0443723 0)
(-0.0197444 0.0422688 0)
(-0.0189753 0.0402466 0)
(-0.0182255 0.0383038 0)
(-0.0174952 0.0364383 0)
(-0.0167845 0.0346482 0)
(-0.0160935 0.0329312 0)
(-0.0154222 0.0312854 0)
(-0.0147708 0.0297087 0)
(-0.0141392 0.028199 0)
(-0.0135271 0.0267543 0)
(-0.0129347 0.0253724 0)
(-0.0123616 0.0240515 0)
(-0.0118076 0.0227895 0)
(-0.0112727 0.0215843 0)
(-0.0107563 0.020434 0)
(-0.0102584 0.0193367 0)
(-0.00977858 0.0182905 0)
(-0.0093165 0.0172935 0)
(-0.00887184 0.0163438 0)
(-0.00844423 0.0154397 0)
(-0.0080333 0.0145793 0)
(-0.00763866 0.0137611 0)
(-0.00725993 0.0129832 0)
(-0.00689669 0.0122441 0)
(-0.00654855 0.0115421 0)
(-0.00621509 0.0108758 0)
(-0.00589591 0.0102435 0)
(-0.00559057 0.0096438 0)
(-0.00529868 0.00907531 0)
(-0.00501981 0.00853663 0)
(-0.00475355 0.00802641 0)
(-0.0044995 0.00754336 0)
(-0.00425725 0.00708623 0)
(-0.0040264 0.0066538 0)
(-0.00380656 0.0062449 0)
(-0.00359734 0.00585841 0)
(-0.00339835 0.00549323 0)
(-0.00320923 0.00514831 0)
(-0.00302961 0.00482265 0)
(-0.00285913 0.00451527 0)
(-0.00269745 0.00422523 0)
(-0.00254422 0.00395163 0)
(-0.00239912 0.00369361 0)
(-0.00226182 0.00345033 0)
(-0.00213202 0.00322099 0)
(-0.00200942 0.00300483 0)
(-0.00189372 0.00280112 0)
(-0.00178466 0.00260914 0)
(-0.00168195 0.00242821 0)
(-0.00158534 0.00225769 0)
(-0.00149459 0.00209695 0)
(-0.00140946 0.00194539 0)
(-0.00132972 0.00180244 0)
(-0.00125516 0.00166754 0)
(-0.00118558 0.00154017 0)
(-0.00112077 0.00141981 0)
(-0.00106056 0.00130598 0)
(-0.00100477 0.0011982 0)
(-0.000953251 0.00109603 0)
(-0.00090584 0.00099902 0)
(-0.000862399 0.000906752 0)
(-0.000822798 0.000818819 0)
(-0.000786917 0.000734826 0)
(-0.000754645 0.000654391 0)
(-0.000725884 0.000577141 0)
(-0.000700543 0.000502715 0)
(-0.000678543 0.000430761 0)
(-0.000659814 0.000360932 0)
(-0.000644298 0.000292891 0)
(-0.000631944 0.000226304 0)
(-0.000622713 0.000160844 0)
(-0.000616575 9.61863e-05 0)
(-0.000613511 3.20088e-05 0)
(-0.0487753 0.131708 0)
(-0.0478882 0.127146 0)
(-0.0469643 0.12267 0)
(-0.0460083 0.118282 0)
(-0.0450247 0.113987 0)
(-0.0440179 0.109785 0)
(-0.0429916 0.105679 0)
(-0.0419499 0.10167 0)
(-0.0408964 0.0977611 0)
(-0.0398337 0.0939517 0)
(-0.0387654 0.090243 0)
(-0.0376946 0.0866352 0)
(-0.0366236 0.0831285 0)
(-0.0355547 0.0797229 0)
(-0.0344901 0.076418 0)
(-0.0334323 0.0732133 0)
(-0.0323832 0.0701081 0)
(-0.0313445 0.0671014 0)
(-0.0303176 0.0641922 0)
(-0.0293039 0.0613793 0)
(-0.0283048 0.0586614 0)
(-0.0273214 0.0560371 0)
(-0.0263548 0.0535048 0)
(-0.0254061 0.051063 0)
(-0.0244761 0.0487097 0)
(-0.0235655 0.0464434 0)
(-0.0226749 0.044262 0)
(-0.0218047 0.0421637 0)
(-0.0209555 0.0401466 0)
(-0.0201274 0.0382086 0)
(-0.0193209 0.0363478 0)
(-0.018536 0.0345621 0)
(-0.0177729 0.0328494 0)
(-0.0170316 0.0312076 0)
(-0.0163122 0.0296348 0)
(-0.0156146 0.0281289 0)
(-0.0149387 0.0266878 0)
(-0.0142844 0.0253094 0)
(-0.0136515 0.0239918 0)
(-0.0130398 0.0227328 0)
(-0.012449 0.0215306 0)
(-0.0118788 0.0203832 0)
(-0.0113289 0.0192887 0)
(-0.010799 0.018245 0)
(-0.0102887 0.0172505 0)
(-0.00979764 0.0163032 0)
(-0.00932541 0.0154013 0)
(-0.0088716 0.0145431 0)
(-0.00843578 0.0137269 0)
(-0.00801752 0.012951 0)
(-0.00761638 0.0122137 0)
(-0.00723191 0.0115135 0)
(-0.00686366 0.0108487 0)
(-0.00651116 0.010218 0)
(-0.00617396 0.00961984 0)
(-0.00585161 0.00905276 0)
(-0.00554364 0.00851542 0)
(-0.0052496 0.00800647 0)
(-0.00496904 0.00752462 0)
(-0.00470151 0.00706862 0)
(-0.00444657 0.00663726 0)
(-0.00420379 0.00622938 0)
(-0.00397273 0.00584385 0)
(-0.00375298 0.00547958 0)
(-0.00354413 0.00513552 0)
(-0.00334576 0.00481067 0)
(-0.00315749 0.00450405 0)
(-0.00297894 0.00421473 0)
(-0.00280972 0.00394181 0)
(-0.00264948 0.00368443 0)
(-0.00249785 0.00344175 0)
(-0.00235451 0.00321299 0)
(-0.00221911 0.00299737 0)
(-0.00209134 0.00279416 0)
(-0.00197089 0.00260265 0)
(-0.00185747 0.00242218 0)
(-0.00175078 0.00225208 0)
(-0.00165056 0.00209174 0)
(-0.00155654 0.00194056 0)
(-0.00146848 0.00179796 0)
(-0.00138614 0.0016634 0)
(-0.00130929 0.00153634 0)
(-0.00123772 0.00141628 0)
(-0.00117123 0.00130273 0)
(-0.00110962 0.00119523 0)
(-0.00105273 0.00109331 0)
(-0.00100037 0.000996538 0)
(-0.000952393 0.000904499 0)
(-0.00090866 0.000816785 0)
(-0.000869034 0.000733001 0)
(-0.000833395 0.000652765 0)
(-0.000801632 0.000575707 0)
(-0.000773647 0.000501466 0)
(-0.000749351 0.00042969 0)
(-0.000728668 0.000360035 0)
(-0.000711532 0.000292163 0)
(-0.000697889 0.000225742 0)
(-0.000687695 0.000160444 0)
(-0.000680917 9.59473e-05 0)
(-0.000677533 3.19292e-05 0)
(-0.0533721 0.131348 0)
(-0.0524015 0.126798 0)
(-0.0513905 0.122334 0)
(-0.0503444 0.117959 0)
(-0.0492681 0.113674 0)