/*--------------------------------*- C++ -*----------------------------------*\
| =========                 |                                                 |
| \\      /  F ield         | OpenFOAM: The Open Source CFD Toolbox           |
|  \\    /   O peration     | Version:  2406                                  |
|   \\  /    A nd           | Website:  www.openfoam.com                      |
|    \\/     M anipulation  |                                                 |
\*---------------------------------------------------------------------------*/
FoamFile
{
    version     2.0;
    format      ascii;
    arch        "LSB;label=32;scalar=64";
    class       volVectorField;
    location    "55";
    object      flux;
}
// * * * * * * * * * * * * * * * * * * * * * * * * * * * * * * * * * * * * * //

dimensions      [0 1 -1 1 0 0 0];

internalField   nonuniform List<vector> 
20000
(
(-0.000892149 0.0257238 0)
(-0.000851233 0.0239804 0)
(-0.000810199 0.0223191 0)
(-0.000769274 0.0207398 0)
(-0.000728686 0.0192422 0)
(-0.000688754 0.0178252 0)
(-0.000649637 0.0164873 0)
(-0.000611418 0.0152269 0)
(-0.000574264 0.0140418 0)
(-0.00053831 0.01293 0)
(-0.000503644 0.0118887 0)
(-0.000470326 0.0109155 0)
(-0.000438401 0.0100075 0)
(-0.0004079 0.00916201 0)
(-0.000378845 0.00837604 0)
(-0.000351243 0.00764672 0)
(-0.000325091 0.00697115 0)
(-0.000300374 0.00634644 0)
(-0.000277073 0.00576973 0)
(-0.000255157 0.00523822 0)
(-0.000234591 0.00474916 0)
(-0.000215334 0.00429991 0)
(-0.000197343 0.00388788 0)
(-0.000180569 0.00351059 0)
(-0.000164962 0.00316565 0)
(-0.00015047 0.00285078 0)
(-0.00013704 0.00256381 0)
(-0.000124618 0.00230266 0)
(-0.000113151 0.00206537 0)
(-0.000102584 0.00185008 0)
(-9.28649e-05 0.00165506 0)
(-8.3942e-05 0.00147864 0)
(-7.57645e-05 0.00131931 0)
(-6.82834e-05 0.00117561 0)
(-6.14512e-05 0.00104619 0)
(-5.52224e-05 0.000929816 0)
(-4.95534e-05 0.000825316 0)
(-4.44026e-05 0.000731615 0)
(-3.97303e-05 0.000647716 0)
(-3.54992e-05 0.000572703 0)
(-3.16738e-05 0.000505728 0)
(-2.82208e-05 0.000446016 0)
(-2.5109e-05 0.000392852 0)
(-2.23092e-05 0.000345586 0)
(-1.9794e-05 0.000303621 0)
(-1.75381e-05 0.000266415 0)
(-1.55178e-05 0.000233473 0)
(-1.37115e-05 0.000204347 0)
(-1.20988e-05 0.000178631 0)
(-1.06613e-05 0.000155955 0)
(-9.38184e-06 0.000135988 0)
(-8.24478e-06 0.00011843 0)
(-7.23578e-06 0.000103011 0)
(-6.34176e-06 8.94887e-05 0)
(-5.55078e-06 7.76456e-05 0)
(-4.852e-06 6.7287e-05 0)
(-4.23557e-06 5.82388e-05 0)
(-3.69259e-06 5.03457e-05 0)
(-3.21498e-06 4.34694e-05 0)
(-2.79549e-06 3.74866e-05 0)
(-2.42756e-06 3.22881e-05 0)
(-2.10533e-06 2.7777e-05 0)
(-1.82351e-06 2.38673e-05 0)
(-1.57738e-06 2.04834e-05 0)
(-1.36272e-06 1.75582e-05 0)
(-1.17577e-06 1.50329e-05 0)
(-1.01318e-06 1.28554e-05 0)
(-8.71972e-07 1.09804e-05 0)
(-7.49496e-07 9.36776e-06 0)
(-6.43416e-07 7.98258e-06 0)
(-5.5166e-07 6.79425e-06 0)
(-4.72401e-07 5.77607e-06 0)
(-4.0403e-07 4.90476e-06 0)
(-3.4513e-07 4.16005e-06 0)
(-2.94456e-07 3.52433e-06 0)
(-2.50918e-07 2.9823e-06 0)
(-2.1356e-07 2.52072e-06 0)
(-1.81547e-07 2.12811e-06 0)
(-1.54152e-07 1.79458e-06 0)
(-1.30739e-07 1.51155e-06 0)
(-1.10756e-07 1.27165e-06 0)
(-9.37247e-08 1.06855e-06 0)
(-7.9229e-08 8.96777e-07 0)
(-6.69093e-08 7.51652e-07 0)
(-5.6455e-08 6.29156e-07 0)
(-4.75981e-08 5.25846e-07 0)
(-4.01082e-08 4.38775e-07 0)
(-3.37871e-08 3.65423e-07 0)
(-2.84655e-08 3.03634e-07 0)
(-2.39983e-08 2.51567e-07 0)
(-2.02624e-08 2.07647e-07 0)
(-1.71533e-08 1.70523e-07 0)
(-1.45829e-08 1.39038e-07 0)
(-1.24775e-08 1.12195e-07 0)
(-1.07762e-08 8.91307e-08 0)
(-9.42926e-09 6.90925e-08 0)
(-8.39692e-09 5.14159e-08 0)
(-7.64851e-09 3.55068e-08 0)
(-7.16167e-09 2.08236e-08 0)
(-6.92172e-09 6.86176e-09 0)
(-0.00267627 0.0257175 0)
(-0.00255352 0.0239745 0)
(-0.00243034 0.0223135 0)
(-0.00230759 0.0207348 0)
(-0.00218592 0.0192375 0)
(-0.00206612 0.0178208 0)
(-0.00194873 0.0164833 0)
(-0.00183408 0.0152231 0)
(-0.00172265 0.0140384 0)
(-0.0016148 0.0129268 0)
(-0.00151081 0.0118858 0)
(-0.00141086 0.0109128 0)
(-0.00131509 0.0100051 0)
(-0.0012236 0.00915974 0)
(-0.00113644 0.00837397 0)
(-0.00105364 0.00764483 0)
(-0.000975191 0.00696943 0)
(-0.000901049 0.00634487 0)
(-0.00083115 0.0057683 0)
(-0.000765407 0.00523692 0)
(-0.000703714 0.00474799 0)
(-0.000645949 0.00429885 0)
(-0.000591979 0.00388692 0)
(-0.000541661 0.00350972 0)
(-0.000494844 0.00316487 0)
(-0.000451373 0.00285008 0)
(-0.000411086 0.00256317 0)
(-0.000373824 0.00230209 0)
(-0.000339424 0.00206486 0)
(-0.000307726 0.00184962 0)
(-0.000278572 0.00165465 0)
(-0.000251805 0.00147828 0)
(-0.000227275 0.00131898 0)
(-0.000204833 0.00117532 0)
(-0.000184338 0.00104593 0)
(-0.000165654 0.000929586 0)
(-0.000148648 0.000825112 0)
(-0.000133197 0.000731434 0)
(-0.000119181 0.000647557 0)
(-0.000106489 0.000572562 0)
(-9.50135e-05 0.000505604 0)
(-8.46555e-05 0.000445906 0)
(-7.53209e-05 0.000392755 0)
(-6.6922e-05 0.000345501 0)
(-5.93771e-05 0.000303546 0)
(-5.26098e-05 0.000266349 0)
(-4.65496e-05 0.000233416 0)
(-4.1131e-05 0.000204297 0)
(-3.62934e-05 0.000178587 0)
(-3.19812e-05 0.000155917 0)
(-2.81432e-05 0.000135955 0)
(-2.47323e-05 0.000118401 0)
(-2.17056e-05 0.000102986 0)
(-1.90237e-05 8.94667e-05 0)
(-1.6651e-05 7.76265e-05 0)
(-1.45548e-05 6.72704e-05 0)
(-1.27057e-05 5.82245e-05 0)
(-1.10768e-05 5.03334e-05 0)
(-9.64414e-06 4.34587e-05 0)
(-8.38577e-06 3.74774e-05 0)
(-7.28209e-06 3.22802e-05 0)
(-6.31546e-06 2.77701e-05 0)
(-5.47007e-06 2.38615e-05 0)
(-4.73174e-06 2.04784e-05 0)
(-4.08782e-06 1.75539e-05 0)
(-3.52703e-06 1.50292e-05 0)
(-3.0393e-06 1.28523e-05 0)
(-2.6157e-06 1.09777e-05 0)
(-2.2483e-06 9.36546e-06 0)
(-1.93009e-06 7.98062e-06 0)
(-1.65484e-06 6.79259e-06 0)
(-1.41709e-06 5.77466e-06 0)
(-1.21199e-06 4.90356e-06 0)
(-1.03531e-06 4.15904e-06 0)
(-8.83296e-07 3.52347e-06 0)
(-7.52691e-07 2.98157e-06 0)
(-6.40626e-07 2.5201e-06 0)
(-5.44597e-07 2.1276e-06 0)
(-4.62417e-07 1.79414e-06 0)
(-3.92184e-07 1.51118e-06 0)
(-3.32241e-07 1.27134e-06 0)
(-2.81151e-07 1.06829e-06 0)
(-2.37668e-07 8.9656e-07 0)
(-2.00712e-07 7.5147e-07 0)
(-1.69351e-07 6.29004e-07 0)
(-1.42783e-07 5.25719e-07 0)
(-1.20315e-07 4.38669e-07 0)
(-1.01353e-07 3.65335e-07 0)
(-8.53896e-08 3.03561e-07 0)
(-7.19892e-08 2.51507e-07 0)
(-6.07824e-08 2.07597e-07 0)
(-5.14557e-08 1.70482e-07 0)
(-4.37451e-08 1.39005e-07 0)
(-3.74295e-08 1.12168e-07 0)
(-3.23261e-08 8.91096e-08 0)
(-2.82855e-08 6.90762e-08 0)
(-2.51888e-08 5.14039e-08 0)
(-2.29438e-08 3.54986e-08 0)
(-2.14834e-08 2.08189e-08 0)
(-2.07637e-08 6.86025e-09 0)
(-0.00445972 0.0257048 0)
(-0.0042552 0.0239627 0)
(-0.0040499 0.0223025 0)
(-0.00384533 0.0207245 0)
(-0.00364264 0.019228 0)
(-0.00344299 0.017812 0)
(-0.00324732 0.0164751 0)
(-0.00305628 0.0152156 0)
(-0.0028706 0.0140315 0)
(-0.0026909 0.0129204 0)
(-0.00251761 0.0118799 0)
(-0.00235106 0.0109074 0)
(-0.00219146 0.0100001 0)
(-0.002039 0.00915522 0)
(-0.00189376 0.00836983 0)
(-0.00175578 0.00764106 0)
(-0.00162505 0.00696599 0)
(-0.0015015 0.00634174 0)
(-0.00138502 0.00576546 0)
(-0.00127547 0.00523434 0)
(-0.00117266 0.00474565 0)
(-0.0010764 0.00429673 0)
(-0.00098647 0.003885 0)
(-0.00090262 0.00350799 0)
(-0.000824605 0.00316331 0)
(-0.000752164 0.00284867 0)
(-0.000685031 0.00256191 0)
(-0.000622937 0.00230095 0)
(-0.000565614 0.00206384 0)
(-0.000512793 0.00184871 0)
(-0.00046421 0.00165383 0)
(-0.000419606 0.00147755 0)
(-0.000378729 0.00131833 0)
(-0.000341332 0.00117474 0)
(-0.00030718 0.00104542 0)
(-0.000276044 0.000929128 0)
(-0.000247706 0.000824705 0)
(-0.000221958 0.000731073 0)
(-0.000198603 0.000647237 0)
(-0.000177452 0.000572279 0)
(-0.00015833 0.000505354 0)
(-0.000141069 0.000445686 0)
(-0.000125514 0.000392562 0)
(-0.000111518 0.00034533 0)
(-9.89455e-05 0.000303397 0)
(-8.76686e-05 0.000266218 0)
(-7.757e-05 0.000233301 0)
(-6.85404e-05 0.000204196 0)
(-6.04791e-05 0.000178499 0)
(-5.32933e-05 0.00015584 0)
(-4.68976e-05 0.000135888 0)
(-4.12137e-05 0.000118343 0)
(-3.617e-05 0.000102935 0)
(-3.1701e-05 8.94227e-05 0)
(-2.77471e-05 7.75883e-05 0)
(-2.4254e-05 6.72373e-05 0)
(-2.11726e-05 5.81958e-05 0)
(-1.84584e-05 5.03086e-05 0)
(-1.60709e-05 4.34373e-05 0)
(-1.3974e-05 3.7459e-05 0)
(-1.21348e-05 3.22643e-05 0)
(-1.0524e-05 2.77565e-05 0)
(-9.11528e-06 2.38498e-05 0)
(-7.88494e-06 2.04683e-05 0)
(-6.81192e-06 1.75453e-05 0)
(-5.87742e-06 1.50218e-05 0)
(-5.06467e-06 1.2846e-05 0)
(-4.35879e-06 1.09723e-05 0)
(-3.74656e-06 9.36087e-06 0)
(-3.21629e-06 7.97671e-06 0)
(-2.75762e-06 6.78926e-06 0)
(-2.36143e-06 5.77184e-06 0)
(-2.01966e-06 4.90117e-06 0)
(-1.72523e-06 4.157e-06 0)
(-1.47192e-06 3.52175e-06 0)
(-1.25428e-06 2.98012e-06 0)
(-1.06754e-06 2.51888e-06 0)
(-9.07513e-07 2.12656e-06 0)
(-7.70569e-07 1.79326e-06 0)
(-6.53533e-07 1.51044e-06 0)
(-5.53645e-07 1.27073e-06 0)
(-4.68509e-07 1.06777e-06 0)
(-3.96049e-07 8.96124e-07 0)
(-3.34465e-07 7.51105e-07 0)
(-2.82206e-07 6.28699e-07 0)
(-2.37933e-07 5.25464e-07 0)
(-2.00492e-07 4.38457e-07 0)
(-1.68895e-07 3.65158e-07 0)
(-1.42293e-07 3.03415e-07 0)
(-1.19963e-07 2.51386e-07 0)
(-1.01288e-07 2.07497e-07 0)
(-8.57457e-08 1.704e-07 0)
(-7.28967e-08 1.38938e-07 0)
(-6.23724e-08 1.12114e-07 0)
(-5.38681e-08 8.9067e-08 0)
(-4.7135e-08 6.90433e-08 0)
(-4.19746e-08 5.13795e-08 0)
(-3.82335e-08 3.54818e-08 0)
(-3.58e-08 2.08091e-08 0)
(-3.46009e-08 6.85705e-09 0)
(-0.00624203 0.0256858 0)
(-0.00595579 0.0239449 0)
(-0.00566848 0.022286 0)
(-0.00538214 0.0207092 0)
(-0.00509845 0.0192137 0)
(-0.004819 0.0177988 0)
(-0.00454511 0.0164629 0)
(-0.00427772 0.0152044 0)
(-0.00401785 0.0140211 0)
(-0.00376634 0.0129108 0)
(-0.0035238 0.0118711 0)
(-0.00329067 0.0108993 0)
(-0.0030673 0.00999272 0)
(-0.00285389 0.00914844 0)
(-0.00265061 0.00836363 0)
(-0.00245749 0.0076354 0)
(-0.00227451 0.00696083 0)
(-0.00210158 0.00633704 0)
(-0.00193855 0.00576119 0)
(-0.00178522 0.00523046 0)
(-0.00164132 0.00474213 0)
(-0.00150659 0.00429355 0)
(-0.00138072 0.00388212 0)
(-0.00126336 0.00350539 0)
(-0.00115416 0.00316096 0)
(-0.00105277 0.00284656 0)
(-0.000958806 0.00256001 0)
(-0.000871897 0.00229925 0)
(-0.000791664 0.00206231 0)
(-0.000717733 0.00184734 0)
(-0.000649734 0.00165261 0)
(-0.000587304 0.00147646 0)
(-0.00053009 0.00131736 0)
(-0.000477747 0.00117387 0)
(-0.000429946 0.00104464 0)
(-0.000386366 0.00092844 0)
(-0.000346703 0.000824095 0)
(-0.000310665 0.000730532 0)
(-0.000277975 0.000646758 0)
(-0.000248372 0.000571856 0)
(-0.000221607 0.00050498 0)
(-0.000197448 0.000445356 0)
(-0.000175676 0.000392271 0)
(-0.000156087 0.000345075 0)
(-0.00013849 0.000303172 0)
(-0.000122706 0.000266021 0)
(-0.000108571 0.000233128 0)
(-9.59329e-05 0.000204045 0)
(-8.46499e-05 0.000178367 0)
(-7.45922e-05 0.000155725 0)
(-6.56405e-05 0.000135787 0)
(-5.7685e-05 0.000118255 0)
(-5.06255e-05 0.000102859 0)
(-4.43704e-05 8.93566e-05 0)
(-3.88363e-05 7.7531e-05 0)
(-3.39473e-05 6.71877e-05 0)
(-2.96344e-05 5.81529e-05 0)
(-2.58354e-05 5.02715e-05 0)
(-2.24938e-05 4.34053e-05 0)
(-1.95588e-05 3.74313e-05 0)
(-1.69846e-05 3.22405e-05 0)
(-1.473e-05 2.7736e-05 0)
(-1.27583e-05 2.38322e-05 0)
(-1.10362e-05 2.04532e-05 0)
(-9.53435e-06 1.75324e-05 0)
(-8.22636e-06 1.50107e-05 0)
(-7.08879e-06 1.28365e-05 0)
(-6.1008e-06 1.09642e-05 0)
(-5.2439e-06 9.35398e-06 0)
(-4.5017e-06 7.97085e-06 0)
(-3.85972e-06 6.78427e-06 0)
(-3.30519e-06 5.76759e-06 0)
(-2.82682e-06 4.89757e-06 0)
(-2.41472e-06 4.15395e-06 0)
(-2.06018e-06 3.51916e-06 0)
(-1.75556e-06 2.97793e-06 0)
(-1.49418e-06 2.51703e-06 0)
(-1.27021e-06 2.125e-06 0)
(-1.07853e-06 1.79195e-06 0)
(-9.14723e-07 1.50934e-06 0)
(-7.74914e-07 1.2698e-06 0)
(-6.55753e-07 1.06699e-06 0)
(-5.54333e-07 8.9547e-07 0)
(-4.68137e-07 7.50557e-07 0)
(-3.94993e-07 6.2824e-07 0)
(-3.33025e-07 5.25081e-07 0)
(-2.80621e-07 4.38137e-07 0)
(-2.36395e-07 3.64892e-07 0)
(-1.99162e-07 3.03194e-07 0)
(-1.67907e-07 2.51203e-07 0)
(-1.41768e-07 2.07347e-07 0)
(-1.20015e-07 1.70277e-07 0)
(-1.02031e-07 1.38837e-07 0)
(-8.73003e-08 1.12033e-07 0)
(-7.53971e-08 8.90028e-08 0)
(-6.5973e-08 6.89936e-08 0)
(-5.87503e-08 5.13426e-08 0)
(-5.35141e-08 3.54564e-08 0)
(-5.01081e-08 2.07942e-08 0)
(-4.84299e-08 6.85216e-09 0)
(-0.00802281 0.0256604 0)
(-0.00765491 0.0239213 0)
(-0.00728566 0.022264 0)
(-0.00691763 0.0206887 0)
(-0.006553 0.0191948 0)
(-0.00619382 0.0177812 0)
(-0.00584177 0.0164467 0)
(-0.0054981 0.0151893 0)
(-0.00516411 0.0140072 0)
(-0.00484085 0.0128981 0)
(-0.00452912 0.0118594 0)
(-0.00422948 0.0108886 0)
(-0.00394237 0.00998285 0)
(-0.00366808 0.0091394 0)
(-0.0034068 0.00835537 0)
(-0.00315858 0.00762785 0)
(-0.00292341 0.00695395 0)
(-0.00270115 0.00633078 0)
(-0.0024916 0.00575549 0)
(-0.00229452 0.00522529 0)
(-0.00210958 0.00473745 0)
(-0.00193641 0.0042893 0)
(-0.00177462 0.00387829 0)
(-0.00162378 0.00350193 0)
(-0.00148343 0.00315784 0)
(-0.00135312 0.00284375 0)
(-0.00123235 0.00255748 0)
(-0.00112064 0.00229698 0)
(-0.00101752 0.00206027 0)
(-0.000922495 0.00184552 0)
(-0.000835097 0.00165097 0)
(-0.000754856 0.001475 0)
(-0.000681319 0.00131605 0)
(-0.000614045 0.00117271 0)
(-0.000552606 0.00104361 0)
(-0.000496593 0.000927523 0)
(-0.000445614 0.000823281 0)
(-0.000399295 0.000729811 0)
(-0.000357279 0.00064612 0)
(-0.00031923 0.000571291 0)
(-0.00028483 0.000504482 0)
(-0.000253778 0.000444916 0)
(-0.000225795 0.000391884 0)
(-0.000200617 0.000344734 0)
(-0.000177999 0.000302873 0)
(-0.000157713 0.000265758 0)
(-0.000139546 0.000232898 0)
(-0.000123302 0.000203844 0)
(-0.0001088 0.000178191 0)
(-9.58728e-05 0.000155571 0)
(-8.43671e-05 0.000135653 0)
(-7.4142e-05 0.000118138 0)
(-6.50685e-05 0.000102757 0)
(-5.70289e-05 8.92685e-05 0)
(-4.9916e-05 7.74545e-05 0)
(-4.36321e-05 6.71214e-05 0)
(-3.80888e-05 5.80956e-05 0)
(-3.3206e-05 5.02219e-05 0)
(-2.89111e-05 4.33625e-05 0)
(-2.51387e-05 3.73945e-05 0)
(-2.18301e-05 3.22088e-05 0)
(-1.89324e-05 2.77087e-05 0)
(-1.63981e-05 2.38087e-05 0)
(-1.41847e-05 2.04331e-05 0)
(-1.22544e-05 1.75151e-05 0)
(-1.05733e-05 1.4996e-05 0)
(-9.11117e-06 1.28239e-05 0)
(-7.84132e-06 1.09535e-05 0)
(-6.73994e-06 9.34479e-06 0)
(-5.786e-06 7.96302e-06 0)
(-4.96087e-06 6.77761e-06 0)
(-4.24813e-06 5.76193e-06 0)
(-3.6333e-06 4.89276e-06 0)
(-3.10363e-06 4.14988e-06 0)
(-2.64794e-06 3.51571e-06 0)
(-2.25641e-06 2.97501e-06 0)
(-1.92047e-06 2.51456e-06 0)
(-1.63259e-06 2.12292e-06 0)
(-1.38623e-06 1.7902e-06 0)
(-1.17569e-06 1.50786e-06 0)
(-9.95993e-07 1.26856e-06 0)
(-8.42836e-07 1.06595e-06 0)
(-7.12481e-07 8.94596e-07 0)
(-6.01695e-07 7.49825e-07 0)
(-5.07683e-07 6.27628e-07 0)
(-4.28036e-07 5.2457e-07 0)
(-3.60681e-07 4.37711e-07 0)
(-3.03838e-07 3.64538e-07 0)
(-2.55982e-07 3.029e-07 0)
(-2.1581e-07 2.5096e-07 0)
(-1.82214e-07 2.07146e-07 0)
(-1.54255e-07 1.70112e-07 0)
(-1.3114e-07 1.38703e-07 0)
(-1.12207e-07 1.11925e-07 0)
(-9.69078e-08 8.89169e-08 0)
(-8.47952e-08 6.89271e-08 0)
(-7.55118e-08 5.12932e-08 0)
(-6.87819e-08 3.54223e-08 0)
(-6.44042e-08 2.07743e-08 0)
(-6.22473e-08 6.84559e-09 0)
(-0.00980162 0.0256287 0)
(-0.00935216 0.0238917 0)
(-0.00890104 0.0222365 0)
(-0.0084514 0.0206631 0)
(-0.00800593 0.019171 0)
(-0.00756711 0.0177592 0)
(-0.00713698 0.0164263 0)
(-0.00671712 0.0151706 0)
(-0.00630909 0.0139899 0)
(-0.00591417 0.0128822 0)
(-0.00553332 0.0118448 0)
(-0.00516724 0.0108751 0)
(-0.00481647 0.00997051 0)
(-0.00448137 0.00912811 0)
(-0.00416215 0.00834504 0)
(-0.0038589 0.00761843 0)
(-0.00357158 0.00694536 0)
(-0.00330004 0.00632296 0)
(-0.00304404 0.00574838 0)
(-0.00280326 0.00521883 0)
(-0.00257731 0.00473159 0)
(-0.00236575 0.004284 0)
(-0.00216809 0.0038735 0)
(-0.0019838 0.0034976 0)
(-0.00181234 0.00315394 0)
(-0.00165313 0.00284024 0)
(-0.00150558 0.00255432 0)
(-0.00136911 0.00229414 0)
(-0.00124312 0.00205773 0)
(-0.00112703 0.00184324 0)
(-0.00102025 0.00164893 0)
(-0.000922223 0.00147318 0)
(-0.000832381 0.00131443 0)
(-0.00075019 0.00117126 0)
(-0.000675129 0.00104232 0)
(-0.000606697 0.000926377 0)
(-0.000544415 0.000822264 0)
(-0.000487826 0.000728909 0)
(-0.000436495 0.000645322 0)
(-0.000390009 0.000570586 0)
(-0.000347982 0.000503859 0)
(-0.000310046 0.000444367 0)
(-0.000275859 0.0003914 0)
(-0.000245098 0.000344309 0)
(-0.000217465 0.000302499 0)
(-0.000192681 0.00026543 0)
(-0.000170486 0.00023261 0)
(-0.00015064 0.000203592 0)
(-0.000132923 0.000177971 0)
(-0.00011713 0.000155379 0)
(-0.000103073 0.000135486 0)
(-9.05808e-05 0.000117993 0)
(-7.94955e-05 0.000102631 0)
(-6.96734e-05 8.91584e-05 0)
(-6.09833e-05 7.7359e-05 0)
(-5.33062e-05 6.70387e-05 0)
(-4.65339e-05 5.80239e-05 0)
(-4.05684e-05 5.016e-05 0)
(-3.53212e-05 4.33091e-05 0)
(-3.07125e-05 3.73484e-05 0)
(-2.66703e-05 3.21691e-05 0)
(-2.31301e-05 2.76746e-05 0)
(-2.00339e-05 2.37794e-05 0)
(-1.73298e-05 2.0408e-05 0)
(-1.49715e-05 1.74936e-05 0)
(-1.29176e-05 1.49775e-05 0)
(-1.11313e-05 1.28081e-05 0)
(-9.5799e-06 1.094e-05 0)
(-8.23433e-06 9.33331e-06 0)
(-7.06888e-06 7.95323e-06 0)
(-6.06081e-06 6.76929e-06 0)
(-5.19004e-06 5.75486e-06 0)
(-4.43888e-06 4.88676e-06 0)
(-3.79177e-06 4.14479e-06 0)
(-3.23505e-06 3.5114e-06 0)
(-2.75671e-06 2.97137e-06 0)
(-2.34628e-06 2.51148e-06 0)
(-1.99457e-06 2.12032e-06 0)
(-1.69359e-06 1.78801e-06 0)
(-1.43637e-06 1.50602e-06 0)
(-1.21683e-06 1.267e-06 0)
(-1.02971e-06 1.06465e-06 0)
(-8.70456e-07 8.93503e-07 0)
(-7.35105e-07 7.4891e-07 0)
(-6.20248e-07 6.26862e-07 0)
(-5.22942e-07 5.2393e-07 0)
(-4.40653e-07 4.37178e-07 0)
(-3.71207e-07 3.64094e-07 0)
(-3.1274e-07 3.02531e-07 0)
(-2.63661e-07 2.50655e-07 0)
(-2.22616e-07 2.06894e-07 0)
(-1.88457e-07 1.69905e-07 0)
(-1.60217e-07 1.38535e-07 0)
(-1.37086e-07 1.1179e-07 0)
(-1.18395e-07 8.88093e-08 0)
(-1.03597e-07 6.88438e-08 0)
(-9.22551e-08 5.12312e-08 0)
(-8.4033e-08 3.53795e-08 0)
(-7.86848e-08 2.07492e-08 0)
(-7.60497e-08 6.83733e-09 0)
(-0.011578 0.0255906 0)
(-0.0110471 0.0238562 0)
(-0.0105142 0.0222035 0)
(-0.00998309 0.0206325 0)
(-0.00945688 0.0191426 0)
(-0.00893852 0.0177329 0)
(-0.00843044 0.016402 0)
(-0.00793449 0.0151481 0)
(-0.00745252 0.0139692 0)
(-0.00698603 0.0128631 0)
(-0.00653616 0.0118272 0)
(-0.00610373 0.010859 0)
(-0.00568939 0.00995571 0)
(-0.00529355 0.00911456 0)
(-0.00491648 0.00833266 0)
(-0.00455827 0.00760712 0)
(-0.00421888 0.00693505 0)
(-0.00389812 0.00631357 0)
(-0.00359573 0.00573985 0)
(-0.00331131 0.00521109 0)
(-0.00304441 0.00472457 0)
(-0.00279451 0.00427764 0)
(-0.00256102 0.00386775 0)
(-0.00234334 0.00349241 0)
(-0.0021408 0.00314926 0)
(-0.00195273 0.00283602 0)
(-0.00177844 0.00255053 0)
(-0.00161724 0.00229073 0)
(-0.00146842 0.00205467 0)
(-0.00133129 0.0018405 0)
(-0.00120516 0.00164649 0)
(-0.00108936 0.00147099 0)
(-0.000983238 0.00131248 0)
(-0.000886151 0.00116952 0)
(-0.000797486 0.00104078 0)
(-0.000716652 0.000925003 0)
(-0.000643082 0.000821044 0)
(-0.000576237 0.000727828 0)
(-0.000515602 0.000644364 0)
(-0.000460693 0.000569739 0)
(-0.000411048 0.000503112 0)
(-0.000366237 0.000443708 0)
(-0.000325854 0.00039082 0)
(-0.000289519 0.000343798 0)
(-0.000256878 0.00030205 0)
(-0.000227601 0.000265037 0)
(-0.000201384 0.000232266 0)
(-0.000177941 0.000203291 0)
(-0.000157013 0.000177707 0)
(-0.000138358 0.000155149 0)
(-0.000121753 0.000135285 0)
(-0.000106997 0.000117818 0)
(-9.39029e-05 0.000102479 0)
(-8.23006e-05 8.90263e-05 0)
(-7.20357e-05 7.72444e-05 0)
(-6.29672e-05 6.69394e-05 0)
(-5.49675e-05 5.7938e-05 0)
(-4.79208e-05 5.00858e-05 0)
(-4.17227e-05 4.3245e-05 0)
(-3.62787e-05 3.72931e-05 0)
(-3.15039e-05 3.21215e-05 0)
(-2.73221e-05 2.76337e-05 0)
(-2.36647e-05 2.37442e-05 0)
(-2.04706e-05 2.03778e-05 0)
(-1.76849e-05 1.74677e-05 0)
(-1.52587e-05 1.49554e-05 0)
(-1.31487e-05 1.27892e-05 0)
(-1.13161e-05 1.09238e-05 0)
(-9.72669e-06 9.31952e-06 0)
(-8.35002e-06 7.94149e-06 0)
(-7.15925e-06 6.75929e-06 0)
(-6.13066e-06 5.74637e-06 0)
(-5.24337e-06 4.87955e-06 0)
(-4.47898e-06 4.13867e-06 0)
(-3.82136e-06 3.50622e-06 0)
(-3.25633e-06 2.96699e-06 0)
(-2.77151e-06 2.50778e-06 0)
(-2.35607e-06 2.1172e-06 0)
(-2.00054e-06 1.78538e-06 0)
(-1.69669e-06 1.5038e-06 0)
(-1.43736e-06 1.26514e-06 0)
(-1.21634e-06 1.06308e-06 0)
(-1.02822e-06 8.92191e-07 0)
(-8.68336e-07 7.4781e-07 0)
(-7.32662e-07 6.25943e-07 0)
(-6.1772e-07 5.23162e-07 0)
(-5.20517e-07 4.36537e-07 0)
(-4.38485e-07 3.63561e-07 0)
(-3.69421e-07 3.02088e-07 0)
(-3.11448e-07 2.50288e-07 0)
(-2.62964e-07 2.06592e-07 0)
(-2.22614e-07 1.69657e-07 0)
(-1.89256e-07 1.38333e-07 0)
(-1.61932e-07 1.11627e-07 0)
(-1.39854e-07 8.86799e-08 0)
(-1.22373e-07 6.87435e-08 0)
(-1.08976e-07 5.11567e-08 0)
(-9.92639e-08 3.53281e-08 0)
(-9.29464e-08 2.0719e-08 0)
(-8.98338e-08 6.8274e-09 0)
(-0.0133516 0.0255463 0)
(-0.0127393 0.0238149 0)
(-0.0121248 0.022165 0)
(-0.0115123 0.0205967 0)
(-0.0109055 0.0191094 0)
(-0.0103077 0.0177022 0)
(-0.00972181 0.0163736 0)
(-0.00914991 0.0151218 0)
(-0.00859412 0.013945 0)
(-0.00805617 0.0128408 0)
(-0.00753738 0.0118067 0)
(-0.00703872 0.0108402 0)
(-0.0065609 0.00993846 0)
(-0.00610443 0.00909876 0)
(-0.00566959 0.00831822 0)
(-0.00525651 0.00759394 0)
(-0.00486513 0.00692303 0)
(-0.00449524 0.00630263 0)
(-0.00414652 0.0057299 0)
(-0.00381854 0.00520206 0)
(-0.00351076 0.00471638 0)
(-0.00322258 0.00427023 0)
(-0.00295333 0.00386105 0)
(-0.00270229 0.00348636 0)
(-0.00246873 0.0031438 0)
(-0.00225185 0.00283111 0)
(-0.00205087 0.00254611 0)
(-0.00186497 0.00228676 0)
(-0.00169335 0.00205111 0)
(-0.00153522 0.00183731 0)
(-0.00138977 0.00164363 0)
(-0.00125623 0.00146844 0)
(-0.00113385 0.0013102 0)
(-0.00102189 0.00116749 0)
(-0.000919646 0.00103897 0)
(-0.000826429 0.0009234 0)
(-0.00074159 0.000819622 0)
(-0.000664506 0.000726567 0)
(-0.000594583 0.000643248 0)
(-0.000531262 0.000568752 0)
(-0.000474013 0.00050224 0)
(-0.000422338 0.000442939 0)
(-0.000375769 0.000390143 0)
(-0.000333868 0.000343203 0)
(-0.000296227 0.000301527 0)
(-0.000262466 0.000264578 0)
(-0.000232232 0.000231863 0)
(-0.000205199 0.000202939 0)
(-0.000181065 0.000177399 0)
(-0.000159551 0.00015488 0)
(-0.000140404 0.000135051 0)
(-0.000123387 0.000117614 0)
(-0.000108287 0.000102301 0)
(-9.49076e-05 8.88723e-05 0)
(-8.30703e-05 7.71108e-05 0)
(-7.26127e-05 6.68236e-05 0)
(-6.33875e-05 5.78378e-05 0)
(-5.52615e-05 4.99991e-05 0)
(-4.81139e-05 4.31702e-05 0)
(-4.18359e-05 3.72286e-05 0)
(-3.63298e-05 3.2066e-05 0)
(-3.15074e-05 2.75859e-05 0)
(-2.72898e-05 2.37032e-05 0)
(-2.36063e-05 2.03426e-05 0)
(-2.03939e-05 1.74375e-05 0)
(-1.75961e-05 1.49296e-05 0)
(-1.51629e-05 1.27671e-05 0)
(-1.30496e-05 1.0905e-05 0)
(-1.12167e-05 9.30344e-06 0)
(-9.62911e-06 7.92779e-06 0)
(-8.25593e-06 6.74763e-06 0)
(-7.06978e-06 5.73646e-06 0)
(-6.04657e-06 4.87113e-06 0)
(-5.16509e-06 4.13154e-06 0)
(-4.40673e-06 3.50018e-06 0)
(-3.75515e-06 2.96188e-06 0)
(-3.19607e-06 2.50347e-06 0)
(-2.71698e-06 2.11356e-06 0)
(-2.30699e-06 1.7823e-06 0)
(-1.9566e-06 1.50122e-06 0)
(-1.65755e-06 1.26297e-06 0)
(-1.40266e-06 1.06125e-06 0)
(-1.18573e-06 8.90658e-07 0)
(-1.00135e-06 7.46527e-07 0)
(-8.44897e-07 6.24868e-07 0)
(-7.12347e-07 5.22265e-07 0)
(-6.00254e-07 4.35789e-07 0)
(-5.05655e-07 3.62938e-07 0)
(-4.26012e-07 3.01571e-07 0)
(-3.59158e-07 2.4986e-07 0)
(-3.03247e-07 2.06238e-07 0)
(-2.56716e-07 1.69367e-07 0)
(-2.18248e-07 1.38096e-07 0)
(-1.86739e-07 1.11436e-07 0)
(-1.61278e-07 8.85286e-08 0)
(-1.4112e-07 6.86263e-08 0)
(-1.25671e-07 5.10695e-08 0)
(-1.14471e-07 3.52679e-08 0)
(-1.07185e-07 2.06838e-08 0)
(-1.03596e-07 6.81577e-09 0)
(-0.0151218 0.0254957 0)
(-0.0144284 0.0237677 0)
(-0.0137324 0.0221211 0)
(-0.0130387 0.0205559 0)
(-0.0123514 0.0190716 0)
(-0.0116744 0.0176671 0)
(-0.0110108 0.0163411 0)
(-0.0103631 0.0150919 0)
(-0.00973359 0.0139173 0)
(-0.00912433 0.0128153 0)
(-0.00853675 0.0117833 0)
(-0.00797197 0.0108187 0)
(-0.00743079 0.00991875 0)
(-0.00691379 0.00908072 0)
(-0.00642131 0.00830172 0)
(-0.00595346 0.00757888 0)
(-0.00551018 0.0069093 0)
(-0.00509125 0.00629013 0)
(-0.0046963 0.00571854 0)
(-0.00432483 0.00519174 0)
(-0.00397624 0.00470703 0)
(-0.00364985 0.00426176 0)
(-0.0033449 0.00385339 0)
(-0.00306058 0.00347945 0)
(-0.00279605 0.00313757 0)
(-0.00255042 0.00282549 0)
(-0.00232279 0.00254106 0)
(-0.00211224 0.00228223 0)
(-0.00191787 0.00204705 0)
(-0.00173877 0.00183367 0)
(-0.00157403 0.00164038 0)
(-0.00142279 0.00146553 0)
(-0.00128418 0.00130761 0)
(-0.00115738 0.00116518 0)
(-0.00104158 0.00103691 0)
(-0.000936003 0.00092157 0)
(-0.000839916 0.000817997 0)
(-0.00075261 0.000725127 0)
(-0.000673417 0.000641973 0)
(-0.000601701 0.000567625 0)
(-0.000536861 0.000501245 0)
(-0.000478334 0.000442061 0)
(-0.000425591 0.000389369 0)
(-0.000378134 0.000342522 0)
(-0.000335502 0.00030093 0)
(-0.000297265 0.000264054 0)
(-0.000263023 0.000231404 0)
(-0.000232405 0.000202536 0)
(-0.000205071 0.000177048 0)
(-0.000180706 0.000154573 0)
(-0.00015902 0.000134783 0)
(-0.000139747 0.000117381 0)
(-0.000122645 0.000102099 0)
(-0.000107491 8.86963e-05 0)
(-9.40843e-05 7.69581e-05 0)
(-8.22402e-05 6.66913e-05 0)
(-7.1792e-05 5.77233e-05 0)
(-6.25885e-05 4.99002e-05 0)
(-5.44932e-05 4.30847e-05 0)
(-4.73829e-05 3.7155e-05 0)
(-4.11467e-05 3.20025e-05 0)
(-3.56849e-05 2.75313e-05 0)
(-3.09081e-05 2.36563e-05 0)
(-2.67362e-05 2.03023e-05 0)
(-2.30979e-05 1.74031e-05 0)
(-1.99292e-05 1.49e-05 0)
(-1.71733e-05 1.27419e-05 0)
(-1.47798e-05 1.08834e-05 0)
(-1.27039e-05 9.28506e-06 0)
(-1.09058e-05 7.91213e-06 0)
(-9.35058e-06 6.73431e-06 0)
(-8.00716e-06 5.72513e-06 0)
(-6.84829e-06 4.86152e-06 0)
(-5.84993e-06 4.12339e-06 0)
(-4.99102e-06 3.49328e-06 0)
(-4.25305e-06 2.95604e-06 0)
(-3.61984e-06 2.49853e-06 0)
(-3.07723e-06 2.10939e-06 0)
(-2.61288e-06 1.77879e-06 0)
(-2.21603e-06 1.49826e-06 0)
(-1.87733e-06 1.26048e-06 0)
(-1.58865e-06 1.05916e-06 0)
(-1.34294e-06 8.88906e-07 0)
(-1.13413e-06 7.45058e-07 0)
(-9.56924e-07 6.2364e-07 0)
(-8.068e-07 5.21238e-07 0)
(-6.79844e-07 4.34933e-07 0)
(-5.72702e-07 3.62225e-07 0)
(-4.82499e-07 3.00979e-07 0)
(-4.06781e-07 2.4937e-07 0)
(-3.43456e-07 2.05834e-07 0)
(-2.90756e-07 1.69035e-07 0)
(-2.47187e-07 1.37826e-07 0)
(-2.115e-07 1.11218e-07 0)
(-1.82663e-07 8.83554e-08 0)
(-1.59832e-07 6.84921e-08 0)
(-1.42335e-07 5.09697e-08 0)
(-1.2965e-07 3.5199e-08 0)
(-1.21398e-07 2.06433e-08 0)
(-1.17333e-07 6.80246e-09 0)
(-0.0168883 0.0254387 0)
(-0.0161139 0.0237146 0)
(-0.0153366 0.0220717 0)
(-0.0145618 0.02051 0)
(-0.0137943 0.019029 0)
(-0.0130382 0.0176276 0)
(-0.0122971 0.0163046 0)
(-0.0115737 0.0150582 0)
(-0.0108707 0.0138863 0)
(-0.0101902 0.0127867 0)
(-0.00953401 0.011757 0)
(-0.00890325 0.0107945 0)
(-0.00829885 0.0098966 0)
(-0.00772146 0.00906044 0)
(-0.00717144 0.00828318 0)
(-0.00664893 0.00756195 0)
(-0.00615387 0.00689387 0)
(-0.00568601 0.00627608 0)
(-0.00524491 0.00570577 0)
(-0.00483005 0.00518015 0)
(-0.00444074 0.00469652 0)
(-0.00407622 0.00425225 0)
(-0.00373564 0.00384478 0)
(-0.00341812 0.00347167 0)
(-0.00312268 0.00313056 0)
(-0.00284836 0.00281918 0)
(-0.00259413 0.00253539 0)
(-0.00235899 0.00227713 0)
(-0.00214191 0.00204247 0)
(-0.00194189 0.00182958 0)
(-0.00175791 0.00163671 0)
(-0.001589 0.00146226 0)
(-0.0014342 0.00130469 0)
(-0.00129259 0.00116258 0)
(-0.00116325 0.0010346 0)
(-0.00104535 0.000919512 0)
(-0.000938034 0.00081617 0)
(-0.000840529 0.000723508 0)
(-0.000752085 0.00064054 0)
(-0.000671991 0.000566358 0)
(-0.000599577 0.000500125 0)
(-0.000534213 0.000441074 0)
(-0.000475308 0.0003885 0)
(-0.000422307 0.000341758 0)
(-0.000374695 0.000300258 0)
(-0.000331991 0.000263464 0)
(-0.000293749 0.000230887 0)
(-0.000259555 0.000202084 0)
(-0.000229028 0.000176653 0)
(-0.000201816 0.000154228 0)
(-0.000177596 0.000134483 0)
(-0.000156072 0.000117119 0)
(-0.000136972 0.000101871 0)
(-0.000120048 8.84984e-05 0)
(-0.000105075 7.67864e-05 0)
(-9.18475e-05 6.65425e-05 0)
(-8.01787e-05 5.75946e-05 0)
(-6.99e-05 4.97889e-05 0)
(-6.08591e-05 4.29887e-05 0)
(-5.29181e-05 3.70721e-05 0)
(-4.59534e-05 3.19312e-05 0)
(-3.98536e-05 2.747e-05 0)
(-3.45187e-05 2.36036e-05 0)
(-2.98596e-05 2.02571e-05 0)
(-2.57962e-05 1.73643e-05 0)
(-2.22573e-05 1.48668e-05 0)
(-1.91795e-05 1.27135e-05 0)
(-1.65064e-05 1.08592e-05 0)
(-1.41879e-05 9.26438e-06 0)
(-1.21799e-05 7.89452e-06 0)
(-1.04429e-05 6.71932e-06 0)
(-8.94257e-06 5.71239e-06 0)
(-7.64831e-06 4.8507e-06 0)
(-6.53334e-06 4.11422e-06 0)
(-5.57408e-06 3.48551e-06 0)
(-4.7499e-06 2.94947e-06 0)
(-4.04271e-06 2.49298e-06 0)
(-3.43672e-06 2.1047e-06 0)
(-2.91812e-06 1.77484e-06 0)
(-2.47491e-06 1.49493e-06 0)
(-2.09664e-06 1.25768e-06 0)
(-1.77424e-06 1.05681e-06 0)
(-1.49983e-06 8.86934e-07 0)
(-1.26662e-06 7.43406e-07 0)
(-1.06872e-06 6.22258e-07 0)
(-9.01054e-07 5.20084e-07 0)
(-7.59268e-07 4.3397e-07 0)
(-6.39609e-07 3.61423e-07 0)
(-5.38868e-07 3.00313e-07 0)
(-4.54303e-07 2.48818e-07 0)
(-3.83581e-07 2.05379e-07 0)
(-3.24724e-07 1.68662e-07 0)
(-2.76065e-07 1.37521e-07 0)
(-2.3621e-07 1.10972e-07 0)
(-2.04004e-07 8.81604e-08 0)
(-1.78506e-07 6.8341e-08 0)
(-1.58964e-07 5.08572e-08 0)
(-1.44797e-07 3.51213e-08 0)
(-1.35582e-07 2.05978e-08 0)
(-1.31042e-07 6.78746e-09 0)
(-0.0186507 0.0253755 0)
(-0.0177954 0.0236557 0)
(-0.016937 0.0220169 0)
(-0.0160814 0.020459 0)
(-0.0152338 0.0189817 0)
(-0.0143988 0.0175838 0)
(-0.0135803 0.0162641 0)
(-0.0127814 0.0150207 0)
(-0.0120051 0.0138518 0)
(-0.0112536 0.0127549 0)
(-0.0105289 0.0117278 0)
(-0.00983233 0.0107677 0)
(-0.00916487 0.00987201 0)
(-0.00852721 0.00903792 0)
(-0.0079198 0.0082626 0)
(-0.00734277 0.00754316 0)
(-0.00679605 0.00687674 0)
(-0.00627936 0.00626049 0)
(-0.00579224 0.00569159 0)
(-0.00533408 0.00516727 0)
(-0.00490414 0.00468485 0)
(-0.00450158 0.00424168 0)
(-0.00412547 0.00383523 0)
(-0.00377481 0.00346305 0)
(-0.00344854 0.00312278 0)
(-0.00314559 0.00281218 0)
(-0.00286483 0.00252909 0)
(-0.00260516 0.00227147 0)
(-0.00236543 0.0020374 0)
(-0.00214453 0.00182503 0)
(-0.00194135 0.00163264 0)
(-0.00175482 0.00145862 0)
(-0.00158386 0.00130144 0)
(-0.00142747 0.00115969 0)
(-0.00128464 0.00103203 0)
(-0.00115443 0.000917227 0)
(-0.00103592 0.000814142 0)
(-0.000928241 0.00072171 0)
(-0.000830567 0.000638948 0)
(-0.000742115 0.000564951 0)
(-0.000662144 0.000498883 0)