/*--------------------------------*- C++ -*----------------------------------*\
| =========                 |                                                 |
| \\      /  F ield         | OpenFOAM: The Open Source CFD Toolbox           |
|  \\    /   O peration     | Version:  2406                                  |
|   \\  /    A nd           | Website:  www.openfoam.com                      |
|    \\/     M anipulation  |                                                 |
\*---------------------------------------------------------------------------*/
FoamFile
{
    version     2.0;
    format      ascii;
    arch        "LSB;label=32;scalar=64";
    class       volScalarField;
    location    "120";
    object      DT;
}
// * * * * * * * * * * * * * * * * * * * * * * * * * * * * * * * * * * * * * //

dimensions      [0 2 -1 0 0 0 0];

internalField   uniform 0.000143284;

boundaryField
{
    left
    {
        type            calculated;
        value           uniform 0.000143284;
    }
    right
    {
        type            calculated;
        value           uniform 0.000143284;
    }
    top
    {
        type            calculated;
        value           uniform 0.000143284;
    }
    bottom
    {
        type            calculated;
        value           uniform 0.000143284;
    }
    frontAndBack
    {
        type            empty;
    }
}


// ************************************************************************* //
