/*--------------------------------*- C++ -*----------------------------------*\
| =========                 |                                                 |
| \\      /  F ield         | OpenFOAM: The Open Source CFD Toolbox           |
|  \\    /   O peration     | Version:  2406                                  |
|   \\  /    A nd           | Website:  www.openfoam.com                      |
|    \\/     M anipulation  |                                                 |
\*---------------------------------------------------------------------------*/
FoamFile
{
    version     2.0;
    format      ascii;
    arch        "LSB;label=32;scalar=64";
    class       volVectorField;
    location    "10";
    object      flux;
}
// * * * * * * * * * * * * * * * * * * * * * * * * * * * * * * * * * * * * * //

dimensions      [0 1 -1 1 0 0 0];

internalField   nonuniform List<vector> 
20000
(
(-0.000742205 0.0129765 0)
(-0.000671295 0.011566 0)
(-0.000605996 0.0102915 0)
(-0.000546012 0.00914217 0)
(-0.000491036 0.00810761 0)
(-0.000440746 0.00717816 0)
(-0.000394857 0.00634473 0)
(-0.000353081 0.00559882 0)
(-0.000315126 0.0049325 0)
(-0.000280718 0.0043384 0)
(-0.000249613 0.00380968 0)
(-0.000221545 0.00334001 0)
(-0.000196257 0.00292357 0)
(-0.000173542 0.00255502 0)
(-0.000153188 0.00222944 0)
(-0.000134978 0.00194231 0)
(-0.000118715 0.00168956 0)
(-0.000104228 0.00146748 0)
(-9.13527e-05 0.00127268 0)
(-7.99335e-05 0.00110209 0)
(-6.98229e-05 0.000952961 0)
(-6.08872e-05 0.000822816 0)
(-5.30061e-05 0.000709429 0)
(-4.60701e-05 0.000610805 0)
(-3.99785e-05 0.000525159 0)
(-3.46383e-05 0.0004509 0)
(-2.99649e-05 0.000386614 0)
(-2.58819e-05 0.000331047 0)
(-2.23209e-05 0.000283093 0)
(-1.92207e-05 0.00024177 0)
(-1.65266e-05 0.000206215 0)
(-1.41896e-05 0.000175668 0)
(-1.2166e-05 0.00014946 0)
(-1.04167e-05 0.000127006 0)
(-8.90682e-06 0.000107796 0)
(-7.60563e-06 9.13812e-05 0)
(-6.48595e-06 7.73748e-05 0)
(-5.52386e-06 6.5439e-05 0)
(-4.69838e-06 5.52808e-05 0)
(-3.99115e-06 4.66466e-05 0)
(-3.38611e-06 3.93172e-05 0)
(-2.86922e-06 3.31031e-05 0)
(-2.42827e-06 2.7841e-05 0)
(-2.05263e-06 2.33906e-05 0)
(-1.73306e-06 1.9631e-05 0)
(-1.46155e-06 1.64588e-05 0)
(-1.23118e-06 1.37852e-05 0)
(-1.03597e-06 1.15344e-05 0)
(-8.70756e-07 9.64157e-06 0)
(-7.31101e-07 8.05156e-06 0)
(-6.13194e-07 6.71734e-06 0)
(-5.13766e-07 5.59894e-06 0)
(-4.30018e-07 4.66241e-06 0)
(-3.59557e-07 3.87897e-06 0)
(-3.00343e-07 3.22426e-06 0)
(-2.50634e-07 2.67767e-06 0)
(-2.08951e-07 2.22179e-06 0)
(-1.74034e-07 1.84192e-06 0)
(-1.44816e-07 1.52569e-06 0)
(-1.20392e-07 1.26269e-06 0)
(-9.9996e-08 1.04415e-06 0)
(-8.29809e-08 8.6273e-07 0)
(-6.88001e-08 7.12251e-07 0)
(-5.69929e-08 5.87546e-07 0)
(-4.71713e-08 4.84293e-07 0)
(-3.90092e-08 3.98872e-07 0)
(-3.22324e-08 3.28265e-07 0)
(-2.66109e-08 2.6995e-07 0)
(-2.19519e-08 2.21827e-07 0)
(-1.8094e-08 1.82148e-07 0)
(-1.49023e-08 1.49456e-07 0)
(-1.2264e-08 1.22542e-07 0)
(-1.00849e-08 1.00402e-07 0)
(-8.28673e-09 8.22043e-08 0)
(-6.80404e-09 6.72573e-08 0)
(-5.58249e-09 5.49896e-08 0)
(-4.5769e-09 4.49285e-08 0)
(-3.74975e-09 3.6683e-08 0)
(-3.06992e-09 2.99303e-08 0)
(-2.5116e-09 2.4404e-08 0)
(-2.05344e-09 1.98844e-08 0)
(-1.67776e-09 1.61907e-08 0)
(-1.36996e-09 1.31737e-08 0)
(-1.11799e-09 1.07111e-08 0)
(-9.11887e-10 8.702e-09 0)
(-7.43477e-10 7.0637e-09 0)
(-6.05999e-10 5.72823e-09 0)
(-4.93889e-10 4.63984e-09 0)
(-4.02622e-10 3.75274e-09 0)
(-3.28452e-10 3.0294e-09 0)
(-2.68316e-10 2.439e-09 0)
(-2.19725e-10 1.95619e-09 0)
(-1.80667e-10 1.56012e-09 0)
(-1.49489e-10 1.23355e-09 0)
(-1.24869e-10 9.62196e-10 0)
(-1.05776e-10 7.34093e-10 0)
(-9.14167e-11 5.39084e-10 0)
(-8.11275e-11 3.68472e-10 0)
(-7.45091e-11 2.14582e-10 0)
(-7.12552e-11 7.04461e-11 0)
(-0.00222643 0.0129733 0)
(-0.00201373 0.0115632 0)
(-0.00181785 0.010289 0)
(-0.00163789 0.0091399 0)
(-0.00147297 0.0081056 0)
(-0.00132213 0.00717639 0)
(-0.00118448 0.00634316 0)
(-0.00105915 0.00559744 0)
(-0.000945301 0.00493129 0)
(-0.0008421 0.00433732 0)
(-0.000748776 0.00380873 0)
(-0.000664565 0.00333919 0)
(-0.000588724 0.00292286 0)
(-0.000520594 0.00255439 0)
(-0.000459528 0.00222888 0)
(-0.000404894 0.00194183 0)
(-0.000356113 0.00168915 0)
(-0.000312659 0.00146712 0)
(-0.000274039 0.00127236 0)
(-0.000239782 0.00110181 0)
(-0.00020945 0.000952724 0)
(-0.000182645 0.000822613 0)
(-0.000159005 0.000709255 0)
(-0.000138199 0.000610656 0)
(-0.000119926 0.00052503 0)
(-0.000103907 0.000450788 0)
(-8.98875e-05 0.000386517 0)
(-7.76392e-05 0.000330965 0)
(-6.69568e-05 0.000283022 0)
(-5.7657e-05 0.00024171 0)
(-4.95755e-05 0.000206164 0)
(-4.25654e-05 0.000175625 0)
(-3.64952e-05 0.000149423 0)
(-3.12476e-05 0.000126975 0)
(-2.67184e-05 0.000107769 0)
(-2.28151e-05 9.13585e-05 0)
(-1.94563e-05 7.73556e-05 0)
(-1.65702e-05 6.54226e-05 0)
(-1.4094e-05 5.5267e-05 0)
(-1.19724e-05 4.6635e-05 0)
(-1.01574e-05 3.93074e-05 0)
(-8.60692e-06 3.30948e-05 0)
(-7.2842e-06 2.78341e-05 0)
(-6.15737e-06 2.33848e-05 0)
(-5.19874e-06 1.96262e-05 0)
(-4.38429e-06 1.64548e-05 0)
(-3.69325e-06 1.37818e-05 0)
(-3.10766e-06 1.15315e-05 0)
(-2.61206e-06 9.63921e-06 0)
(-2.19313e-06 8.04959e-06 0)
(-1.83943e-06 6.7157e-06 0)
(-1.54117e-06 5.59757e-06 0)
(-1.28995e-06 4.66127e-06 0)
(-1.07858e-06 3.87802e-06 0)
(-9.00956e-07 3.22348e-06 0)
(-7.51842e-07 2.67702e-06 0)
(-6.26802e-07 2.22125e-06 0)
(-5.2206e-07 1.84147e-06 0)
(-4.34413e-07 1.52532e-06 0)
(-3.61147e-07 1.26239e-06 0)
(-2.99964e-07 1.0439e-06 0)
(-2.48923e-07 8.62523e-07 0)
(-2.06384e-07 7.1208e-07 0)
(-1.70965e-07 5.87406e-07 0)
(-1.41503e-07 4.84177e-07 0)
(-1.17019e-07 3.98778e-07 0)
(-9.66897e-08 3.28187e-07 0)
(-7.98265e-08 2.69887e-07 0)
(-6.58506e-08 2.21775e-07 0)
(-5.42779e-08 1.82105e-07 0)
(-4.47035e-08 1.49421e-07 0)
(-3.67891e-08 1.22513e-07 0)
(-3.02525e-08 1.00379e-07 0)
(-2.48584e-08 8.21855e-08 0)
(-2.04107e-08 6.7242e-08 0)
(-1.67463e-08 5.49772e-08 0)
(-1.37297e-08 4.49184e-08 0)
(-1.12485e-08 3.66748e-08 0)
(-9.20912e-09 2.99237e-08 0)
(-7.53428e-09 2.43986e-08 0)
(-6.15989e-09 1.98801e-08 0)
(-5.03292e-09 1.61872e-08 0)
(-4.10961e-09 1.31709e-08 0)
(-3.35374e-09 1.07088e-08 0)
(-2.7355e-09 8.70018e-09 0)
(-2.23029e-09 7.06223e-09 0)
(-1.81786e-09 5.72706e-09 0)
(-1.4816e-09 4.63889e-09 0)
(-1.20781e-09 3.75199e-09 0)
(-9.85294e-10 3.02881e-09 0)
(-8.04906e-10 2.43852e-09 0)
(-6.59159e-10 1.9558e-09 0)
(-5.41968e-10 1.55981e-09 0)
(-4.48427e-10 1.23332e-09 0)
(-3.74588e-10 9.62025e-10 0)
(-3.17332e-10 7.33957e-10 0)
(-2.74211e-10 5.38999e-10 0)
(-2.43372e-10 3.68433e-10 0)
(-2.23517e-10 2.14564e-10 0)
(-2.13776e-10 7.04461e-11 0)
(-0.00371009 0.0129669 0)
(-0.00335564 0.0115575 0)
(-0.00302928 0.0102839 0)
(-0.0027294 0.00913539 0)
(-0.00245454 0.00810159 0)
(-0.00220318 0.00717284 0)
(-0.0019738 0.00634004 0)
(-0.00176496 0.00559468 0)
(-0.00157524 0.00492885 0)
(-0.00140327 0.00433518 0)
(-0.00124775 0.00380685 0)
(-0.00110742 0.00333754 0)
(-0.00098105 0.00292142 0)
(-0.000867521 0.00255313 0)
(-0.000765753 0.00222778 0)
(-0.000674707 0.00194087 0)
(-0.000593422 0.00168832 0)
(-0.000521016 0.0014664 0)
(-0.00045666 0.00127173 0)
(-0.000399572 0.00110127 0)
(-0.000349024 0.000952252 0)
(-0.000304356 0.000822207 0)
(-0.000264963 0.000708907 0)
(-0.000230295 0.000610355 0)
(-0.000199846 0.000524771 0)
(-0.000173151 0.000450565 0)
(-0.000149788 0.000386326 0)
(-0.000129377 0.000330801 0)
(-0.000111576 0.000282883 0)
(-9.60786e-05 0.000241591 0)
(-8.2612e-05 0.000206063 0)
(-7.09307e-05 0.000175539 0)
(-6.08156e-05 0.00014935 0)
(-5.20711e-05 0.000126913 0)
(-4.45235e-05 0.000107716 0)
(-3.80191e-05 9.13133e-05 0)
(-3.24218e-05 7.73172e-05 0)
(-2.76125e-05 6.53901e-05 0)
(-2.3486e-05 5.52395e-05 0)
(-1.99507e-05 4.66118e-05 0)
(-1.69262e-05 3.92879e-05 0)
(-1.43425e-05 3.30784e-05 0)
(-1.21383e-05 2.78204e-05 0)
(-1.02606e-05 2.33733e-05 0)
(-8.66313e-06 1.96165e-05 0)
(-7.30595e-06 1.64466e-05 0)
(-6.1544e-06 1.3775e-05 0)
(-5.17858e-06 1.15259e-05 0)
(-4.35271e-06 9.63447e-06 0)
(-3.65461e-06 8.04564e-06 0)
(-3.06522e-06 6.7124e-06 0)
(-2.5682e-06 5.59482e-06 0)
(-2.14956e-06 4.65898e-06 0)
(-1.79735e-06 3.87612e-06 0)
(-1.50135e-06 3.2219e-06 0)
(-1.25286e-06 2.67571e-06 0)
(-1.0445e-06 2.22016e-06 0)
(-8.69957e-07 1.84057e-06 0)
(-7.23903e-07 1.52458e-06 0)
(-6.01813e-07 1.26177e-06 0)
(-4.99859e-07 1.0434e-06 0)
(-4.14804e-07 8.62105e-07 0)
(-3.43917e-07 7.11735e-07 0)
(-2.84895e-07 5.87122e-07 0)
(-2.358e-07 4.83944e-07 0)
(-1.94999e-07 3.98586e-07 0)
(-1.61123e-07 3.2803e-07 0)
(-1.33023e-07 2.69757e-07 0)
(-1.09733e-07 2.2167e-07 0)
(-9.04486e-08 1.82018e-07 0)
(-7.44939e-08 1.4935e-07 0)
(-6.13054e-08 1.22456e-07 0)
(-5.04129e-08 1.00332e-07 0)
(-4.14241e-08 8.2147e-08 0)
(-3.40124e-08 6.72106e-08 0)
(-2.79061e-08 5.49516e-08 0)
(-2.28793e-08 4.48976e-08 0)
(-1.87445e-08 3.66579e-08 0)
(-1.53461e-08 2.99099e-08 0)
(-1.25552e-08 2.43875e-08 0)
(-1.02649e-08 1.9871e-08 0)
(-8.38693e-09 1.61798e-08 0)
(-6.8483e-09 1.3165e-08 0)
(-5.58872e-09 1.0704e-08 0)
(-4.55848e-09 8.69631e-09 0)
(-3.71659e-09 7.05912e-09 0)
(-3.02933e-09 5.72454e-09 0)
(-2.46896e-09 4.63687e-09 0)
(-2.01271e-09 3.75037e-09 0)
(-1.64193e-09 3.02751e-09 0)
(-1.34132e-09 2.43748e-09 0)
(-1.09843e-09 1.95499e-09 0)
(-9.03144e-10 1.55917e-09 0)
(-7.47283e-10 1.23281e-09 0)
(-6.24232e-10 9.6164e-10 0)
(-5.28809e-10 7.33676e-10 0)
(-4.56941e-10 5.38796e-10 0)
(-4.05562e-10 3.68294e-10 0)
(-3.72492e-10 2.14485e-10 0)
(-3.56265e-10 7.04283e-11 0)
(-0.00519283 0.0129573 0)
(-0.00469671 0.0115489 0)
(-0.00423993 0.0102763 0)
(-0.00382023 0.00912864 0)
(-0.00343553 0.0080956 0)
(-0.00308369 0.00716753 0)
(-0.00276264 0.00633534 0)
(-0.00247033 0.00559053 0)
(-0.00220479 0.0049252 0)
(-0.0019641 0.00433198 0)
(-0.00174642 0.00380404 0)
(-0.00155 0.00333507 0)
(-0.00137313 0.00291925 0)
(-0.00121423 0.00255124 0)
(-0.00107179 0.00222613 0)
(-0.000944352 0.00193944 0)
(-0.000830586 0.00168707 0)
(-0.000729246 0.00146531 0)
(-0.000639169 0.00127079 0)
(-0.000559262 0.00110045 0)
(-0.000488511 0.000951548 0)
(-0.000425991 0.000821599 0)
(-0.000370856 0.000708383 0)
(-0.000322335 0.000609904 0)
(-0.000279717 0.000524382 0)
(-0.000242352 0.000450231 0)
(-0.000209652 0.000386039 0)
(-0.000181082 0.000330556 0)
(-0.000156167 0.000282673 0)
(-0.000134476 0.000241413 0)
(-0.000115628 0.000205911 0)
(-9.92786e-05 0.000175409 0)
(-8.51211e-05 0.00014924 0)
(-7.28819e-05 0.000126819 0)
(-6.23179e-05 0.000107636 0)
(-5.32137e-05 9.12455e-05 0)
(-4.53795e-05 7.72597e-05 0)
(-3.86479e-05 6.53415e-05 0)
(-3.28723e-05 5.51984e-05 0)
(-2.79241e-05 4.65771e-05 0)
(-2.36908e-05 3.92587e-05 0)
(-2.00744e-05 3.30539e-05 0)
(-1.69894e-05 2.77997e-05 0)
(-1.43612e-05 2.33559e-05 0)
(-1.21254e-05 1.9602e-05 0)
(-1.02258e-05 1.64345e-05 0)
(-8.61402e-06 1.37649e-05 0)
(-7.24822e-06 1.15174e-05 0)
(-6.09229e-06 9.62736e-06 0)
(-5.11519e-06 8.03971e-06 0)
(-4.29025e-06 6.70746e-06 0)
(-3.59459e-06 5.5907e-06 0)
(-3.00865e-06 4.65555e-06 0)
(-2.51567e-06 3.87328e-06 0)
(-2.10137e-06 3.21953e-06 0)
(-1.75358e-06 2.67375e-06 0)
(-1.46194e-06 2.21854e-06 0)
(-1.21764e-06 1.83923e-06 0)
(-1.01322e-06 1.52347e-06 0)
(-8.42332e-07 1.26085e-06 0)
(-6.99631e-07 1.04264e-06 0)
(-5.80583e-07 8.61478e-07 0)
(-4.81366e-07 7.11219e-07 0)
(-3.98756e-07 5.86697e-07 0)
(-3.3004e-07 4.83594e-07 0)
(-2.72933e-07 3.98298e-07 0)
(-2.25518e-07 3.27794e-07 0)
(-1.86187e-07 2.69564e-07 0)
(-1.5359e-07 2.21511e-07 0)
(-1.26598e-07 1.81889e-07 0)
(-1.04266e-07 1.49244e-07 0)
(-8.5807e-08 1.22369e-07 0)
(-7.05612e-08 1.00261e-07 0)
(-5.79799e-08 8.20891e-08 0)
(-4.7606e-08 6.71634e-08 0)
(-3.90592e-08 5.49132e-08 0)
(-3.20235e-08 4.48663e-08 0)
(-2.62362e-08 3.66325e-08 0)
(-2.14795e-08 2.98892e-08 0)
(-1.75732e-08 2.43707e-08 0)
(-1.43675e-08 1.98574e-08 0)
(-1.1739e-08 1.61688e-08 0)
(-9.58541e-09 1.31561e-08 0)
(-7.82243e-09 1.06968e-08 0)
(-6.38042e-09 8.69048e-09 0)
(-5.20205e-09 7.0544e-09 0)
(-4.2401e-09 5.72075e-09 0)
(-3.45578e-09 4.63382e-09 0)
(-2.81717e-09 3.74791e-09 0)
(-2.29818e-09 3.02555e-09 0)
(-1.87743e-09 2.43592e-09 0)
(-1.53747e-09 1.95373e-09 0)
(-1.26414e-09 1.55817e-09 0)
(-1.04595e-09 1.23204e-09 0)
(-8.73734e-10 9.61048e-10 0)
(-7.40169e-10 7.33226e-10 0)
(-6.39589e-10 5.38479e-10 0)
(-5.67686e-10 3.68058e-10 0)
(-5.21389e-10 2.1435e-10 0)
(-4.98683e-10 7.03749e-11 0)
(-0.00667432 0.0129445 0)
(-0.00603664 0.0115375 0)
(-0.00544952 0.0102661 0)
(-0.0049101 0.00911962 0)
(-0.00441566 0.00808761 0)
(-0.00396345 0.00716045 0)
(-0.0035508 0.00632908 0)
(-0.00317509 0.00558501 0)
(-0.0028338 0.00492034 0)
(-0.00252444 0.0043277 0)
(-0.00224466 0.00380028 0)
(-0.00199221 0.00333177 0)
(-0.00176488 0.00291637 0)
(-0.00156064 0.00254872 0)
(-0.00137756 0.00222393 0)
(-0.00121377 0.00193752 0)
(-0.00106755 0.0016854 0)
(-0.000937297 0.00146386 0)
(-0.00082152 0.00126953 0)
(-0.000718813 0.00109936 0)
(-0.000627877 0.000950608 0)
(-0.00054752 0.000820789 0)
(-0.000476659 0.000707683 0)
(-0.000414296 0.000609301 0)
(-0.000359519 0.000523864 0)
(-0.000311494 0.000449785 0)
(-0.000269463 0.000385657 0)
(-0.000232743 0.000330229 0)
(-0.000200719 0.000282394 0)
(-0.000172841 0.000241175 0)
(-0.000148616 0.000205708 0)
(-0.000127602 0.000175236 0)
(-0.000109406 0.000149093 0)
(-9.36748e-05 0.000126694 0)
(-8.00969e-05 0.00010753 0)
(-6.83953e-05 9.11552e-05 0)
(-5.83259e-05 7.71832e-05 0)
(-4.96738e-05 6.52767e-05 0)
(-4.22504e-05 5.51437e-05 0)
(-3.58904e-05 4.6531e-05 0)
(-3.04495e-05 3.92198e-05 0)
(-2.58014e-05 3.30212e-05 0)
(-2.18362e-05 2.77722e-05 0)
(-1.84583e-05 2.33329e-05 0)
(-1.55846e-05 1.95826e-05 0)
(-1.31431e-05 1.64183e-05 0)
(-1.10715e-05 1.37513e-05 0)
(-9.31607e-06 1.1506e-05 0)
(-7.83037e-06 9.61788e-06 0)
(-6.57451e-06 8.0318e-06 0)
(-5.51422e-06 6.70086e-06 0)
(-4.6201e-06 5.58521e-06 0)
(-3.86699e-06 4.65098e-06 0)
(-3.23337e-06 3.86948e-06 0)
(-2.70087e-06 3.21638e-06 0)
(-2.25386e-06 2.67113e-06 0)
(-1.87902e-06 2.21636e-06 0)
(-1.56503e-06 1.83743e-06 0)
(-1.30228e-06 1.52198e-06 0)
(-1.08264e-06 1.25962e-06 0)
(-8.99231e-07 1.04162e-06 0)
(-7.46221e-07 8.6064e-07 0)
(-6.18698e-07 7.10528e-07 0)
(-5.1252e-07 5.86129e-07 0)
(-4.24199e-07 4.83126e-07 0)
(-3.508e-07 3.97914e-07 0)
(-2.89858e-07 3.27478e-07 0)
(-2.39305e-07 2.69305e-07 0)
(-1.97409e-07 2.21298e-07 0)
(-1.62716e-07 1.81715e-07 0)
(-1.34014e-07 1.49101e-07 0)
(-1.10288e-07 1.22252e-07 0)
(-9.06925e-08 1.00166e-07 0)
(-7.45218e-08 8.20114e-08 0)
(-6.11883e-08 6.71e-08 0)
(-5.02031e-08 5.48615e-08 0)
(-4.116e-08 4.48243e-08 0)
(-3.37216e-08 3.65982e-08 0)
(-2.76079e-08 2.98614e-08 0)
(-2.2587e-08 2.43481e-08 0)
(-1.84668e-08 1.98391e-08 0)
(-1.50883e-08 1.61539e-08 0)
(-1.23203e-08 1.3144e-08 0)
(-1.00543e-08 1.06871e-08 0)
(-8.20089e-09 8.68259e-09 0)
(-6.68632e-09 7.04804e-09 0)
(-5.44992e-09 5.71561e-09 0)
(-4.44179e-09 4.62967e-09 0)
(-3.62099e-09 3.74458e-09 0)
(-2.95392e-09 3.02288e-09 0)
(-2.41312e-09 2.43377e-09 0)
(-1.97617e-09 1.95203e-09 0)
(-1.62484e-09 1.55684e-09 0)
(-1.34441e-09 1.23099e-09 0)
(-1.12305e-09 9.60229e-10 0)
(-9.51376e-10 7.32606e-10 0)
(-8.22106e-10 5.38022e-10 0)
(-7.29687e-10 3.67766e-10 0)
(-6.70169e-10 2.14182e-10 0)
(-6.41004e-10 7.0325e-11 0)
(-0.00815417 0.0129286 0)
(-0.00737509 0.0115232 0)
(-0.00665777 0.0102535 0)
(-0.00599876 0.00910834 0)
(-0.00539469 0.00807761 0)
(-0.00484222 0.0071516 0)
(-0.00433808 0.00632126 0)
(-0.00387907 0.00557811 0)
(-0.0034621 0.00491426 0)
(-0.00308416 0.00432235 0)
(-0.00274235 0.00379558 0)
(-0.00243392 0.00332765 0)
(-0.00215618 0.00291276 0)
(-0.00190667 0.00254557 0)
(-0.00168299 0.00222118 0)
(-0.00148288 0.00193513 0)
(-0.00130424 0.00168332 0)
(-0.00114512 0.00146205 0)
(-0.00100367 0.00126796 0)
(-0.000878187 0.00109801 0)
(-0.000767087 0.000949435 0)
(-0.000668916 0.000819775 0)
(-0.000582344 0.000706809 0)
(-0.000506155 0.000608548 0)
(-0.000439233 0.000523216 0)
(-0.000380559 0.000449229 0)
(-0.000329208 0.00038518 0)
(-0.000284345 0.000329821 0)
(-0.000245221 0.000282045 0)
(-0.000211162 0.000240877 0)
(-0.000181566 0.000205454 0)
(-0.000155894 0.00017502 0)
(-0.000133664 0.000148908 0)
(-0.000114445 0.000126537 0)
(-9.78563e-05 0.000107397 0)
(-8.35601e-05 9.10424e-05 0)
(-7.1258e-05 7.70876e-05 0)
(-6.06874e-05 6.51959e-05 0)
(-5.1618e-05 5.50754e-05 0)
(-4.38479e-05 4.64734e-05 0)
(-3.72006e-05 3.91712e-05 0)
(-3.1522e-05 3.29803e-05 0)
(-2.66777e-05 2.77379e-05 0)
(-2.25508e-05 2.3304e-05 0)
(-1.904e-05 1.95585e-05 0)
(-1.60572e-05 1.6398e-05 0)
(-1.35263e-05 1.37343e-05 0)
(-1.13816e-05 1.14918e-05 0)
(-9.56651e-06 9.60603e-06 0)
(-8.03221e-06 8.02191e-06 0)
(-6.73684e-06 6.69262e-06 0)
(-5.64447e-06 5.57834e-06 0)
(-4.72438e-06 4.64527e-06 0)
(-3.95027e-06 3.86472e-06 0)
(-3.29971e-06 3.21243e-06 0)
(-2.75359e-06 2.66785e-06 0)
(-2.29564e-06 2.21365e-06 0)
(-1.91203e-06 1.83518e-06 0)
(-1.59102e-06 1.52012e-06 0)
(-1.32269e-06 1.25808e-06 0)
(-1.09861e-06 1.04035e-06 0)
(-9.11675e-07 8.59592e-07 0)
(-7.55878e-07 7.09664e-07 0)
(-6.26158e-07 5.85417e-07 0)
(-5.18254e-07 4.8254e-07 0)
(-4.28581e-07 3.97432e-07 0)
(-3.54127e-07 3.27082e-07 0)
(-2.92366e-07 2.6898e-07 0)
(-2.4118e-07 2.21032e-07 0)
(-1.98795e-07 1.81496e-07 0)
(-1.63729e-07 1.48922e-07 0)
(-1.34742e-07 1.22106e-07 0)
(-1.10802e-07 1.00046e-07 0)
(-9.10458e-08 8.19138e-08 0)
(-7.47559e-08 6.70203e-08 0)
(-6.1335e-08 5.47966e-08 0)
(-5.02868e-08 4.47713e-08 0)
(-4.1199e-08 3.65551e-08 0)
(-3.37297e-08 2.98264e-08 0)
(-2.75955e-08 2.43196e-08 0)
(-2.25616e-08 1.9816e-08 0)
(-1.84341e-08 1.61352e-08 0)
(-1.50523e-08 1.31288e-08 0)
(-1.22839e-08 1.06747e-08 0)
(-1.00194e-08 8.67262e-09 0)
(-8.16904e-09 7.03997e-09 0)
(-6.65848e-09 5.7091e-09 0)
(-5.4268e-09 4.62442e-09 0)
(-4.42397e-09 3.74035e-09 0)
(-3.60899e-09 3.01946e-09 0)
(-2.94827e-09 2.43105e-09 0)
(-2.41441e-09 1.94986e-09 0)
(-1.98518e-09 1.55511e-09 0)
(-1.64256e-09 1.22963e-09 0)
(-1.37212e-09 9.5917e-10 0)
(-1.16238e-09 7.31812e-10 0)
(-1.00443e-09 5.37434e-10 0)
(-8.91532e-10 3.67367e-10 0)
(-8.18827e-10 2.13951e-10 0)
(-7.83183e-10 7.02466e-11 0)
(-0.009632 0.0129094 0)
(-0.00871173 0.0115061 0)
(-0.00786439 0.0102382 0)
(-0.00708595 0.00909483 0)
(-0.0063724 0.00806563 0)
(-0.0057198 0.00714099 0)
(-0.00512429 0.00631188 0)
(-0.0045821 0.00556983 0)
(-0.00408956 0.00490696 0)
(-0.00364311 0.00431594 0)
(-0.00323936 0.00378995 0)
(-0.00287502 0.00332272 0)
(-0.00254696 0.00290844 0)
(-0.00225222 0.00254179 0)
(-0.001988 0.00221789 0)
(-0.00175163 0.00193225 0)
(-0.00154062 0.00168082 0)
(-0.00135265 0.00145988 0)
(-0.00118557 0.00126608 0)
(-0.00103734 0.00109638 0)
(-0.000906108 0.000948026 0)
(-0.000790146 0.000818559 0)
(-0.000687886 0.00070576 0)
(-0.000597889 0.000607645 0)
(-0.000518838 0.000522439 0)
(-0.00044953 0.000448562 0)
(-0.000388871 0.000384609 0)
(-0.000335878 0.000329332 0)
(-0.000289663 0.000281627 0)
(-0.000249432 0.00024052 0)
(-0.000214473 0.00020515 0)
(-0.000184148 0.00017476 0)
(-0.000157889 0.000148688 0)
(-0.000135187 0.000126349 0)
(-0.000115592 0.000107237 0)
(-9.87043e-05 9.09071e-05 0)
(-8.41724e-05 7.6973e-05 0)
(-7.1686e-05 6.5099e-05 0)
(-6.09729e-05 5.49935e-05 0)
(-5.17946e-05 4.64043e-05 0)
(-4.39425e-05 3.9113e-05 0)
(-3.72347e-05 3.29313e-05 0)
(-3.15125e-05 2.76967e-05 0)
(-2.66377e-05 2.32695e-05 0)
(-2.24906e-05 1.95295e-05 0)
(-1.89672e-05 1.63737e-05 0)
(-1.59777e-05 1.3714e-05 0)
(-1.34444e-05 1.14748e-05 0)
(-1.13003e-05 9.59181e-06 0)
(-9.48793e-06 8.01004e-06 0)
(-7.95779e-06 6.68272e-06 0)
(-6.66745e-06 5.5701e-06 0)
(-5.58061e-06 4.6384e-06 0)
(-4.6662e-06 3.85902e-06 0)
(-3.89774e-06 3.20769e-06 0)
(-3.25264e-06 2.66392e-06 0)
(-2.71169e-06 2.21039e-06 0)
(-2.25856e-06 1.83248e-06 0)
(-1.87938e-06 1.51788e-06 0)
(-1.56241e-06 1.25624e-06 0)
(-1.29772e-06 1.03882e-06 0)
(-1.07691e-06 8.58332e-07 0)
(-8.92873e-07 7.08625e-07 0)
(-7.39644e-07 5.84561e-07 0)
(-6.12183e-07 4.81836e-07 0)
(-5.06258e-07 3.96853e-07 0)
(-4.1831e-07 3.26606e-07 0)
(-3.45356e-07 2.68589e-07 0)
(-2.84892e-07 2.20711e-07 0)
(-2.34825e-07 1.81233e-07 0)
(-1.93404e-07 1.48707e-07 0)
(-1.59164e-07 1.2193e-07 0)
(-1.30885e-07 9.99024e-08 0)
(-1.07548e-07 8.17961e-08 0)
(-8.83055e-08 6.69243e-08 0)
(-7.24521e-08 5.47182e-08 0)
(-5.94015e-08 4.47075e-08 0)
(-4.86666e-08 3.65032e-08 0)
(-3.98434e-08 2.97841e-08 0)
(-3.25974e-08 2.42852e-08 0)
(-2.66512e-08 1.9788e-08 0)
(-2.17755e-08 1.61125e-08 0)
(-1.77807e-08 1.31104e-08 0)
(-1.45105e-08 1.06598e-08 0)
(-1.18357e-08 8.66053e-09 0)
(-9.64984e-09 7.03019e-09 0)
(-7.86546e-09 5.7012e-09 0)
(-6.41054e-09 4.61806e-09 0)
(-5.22594e-09 3.73522e-09 0)
(-4.26323e-09 3.01533e-09 0)
(-3.48273e-09 2.42773e-09 0)
(-2.85211e-09 1.94721e-09 0)
(-2.34507e-09 1.553e-09 0)
(-1.94034e-09 1.22797e-09 0)
(-1.62087e-09 9.57887e-10 0)
(-1.37312e-09 7.30824e-10 0)
(-1.18654e-09 5.36729e-10 0)
(-1.05317e-09 3.66879e-10 0)
(-9.67296e-10 2.13666e-10 0)
(-9.25195e-10 7.01539e-11 0)
(-0.0111075 0.012887 0)
(-0.0100462 0.0114862 0)
(-0.00906908 0.0102205 0)
(-0.00817138 0.00907907 0)
(-0.00734853 0.00805165 0)
(-0.00659597 0.00712862 0)
(-0.00590924 0.00630094 0)
(-0.00528399 0.00556018 0)
(-0.004716 0.00489846 0)
(-0.00420117 0.00430846 0)
(-0.00373557 0.00378338 0)
(-0.00331542 0.00331696 0)
(-0.00293711 0.0029034 0)
(-0.00259722 0.00253739 0)
(-0.00229253 0.00221404 0)
(-0.00201995 0.00192891 0)
(-0.00177661 0.00167791 0)
(-0.00155985 0.00145735 0)
(-0.00136717 0.00126389 0)
(-0.00119624 0.00109448 0)
(-0.00104491 0.000946384 0)
(-0.000911182 0.000817141 0)
(-0.000793258 0.000704537 0)
(-0.000689476 0.000606592 0)
(-0.000598315 0.000521534 0)
(-0.000518389 0.000447785 0)
(-0.000448439 0.000383942 0)
(-0.000387327 0.000328761 0)
(-0.000334033 0.000281139 0)
(-0.00028764 0.000240103 0)
(-0.000247326 0.000204794 0)
(-0.000212356 0.000174458 0)
(-0.000182075 0.00014843 0)
(-0.000155895 0.00012613 0)
(-0.000133298 0.000107051 0)
(-0.000113824 9.07494e-05 0)
(-9.70661e-05 7.68395e-05 0)
(-8.26669e-05 6.4986e-05 0)
(-7.03127e-05 5.48981e-05 0)
(-5.97284e-05 4.63238e-05 0)
(-5.06736e-05 3.90452e-05 0)
(-4.29383e-05 3.28742e-05 0)
(-3.63395e-05 2.76487e-05 0)
(-3.07181e-05 2.32291e-05 0)
(-2.59357e-05 1.94956e-05 0)
(-2.18726e-05 1.63454e-05 0)
(-1.84252e-05 1.36902e-05 0)
(-1.55038e-05 1.1455e-05 0)
(-1.30313e-05 9.57523e-06 0)
(-1.09413e-05 7.99619e-06 0)
(-9.17678e-06 6.67117e-06 0)
(-7.68879e-06 5.56048e-06 0)
(-6.43546e-06 4.6304e-06 0)
(-5.38098e-06 3.85236e-06 0)
(-4.49481e-06 3.20216e-06 0)
(-3.7509e-06 2.65933e-06 0)
(-3.12708e-06 2.20658e-06 0)
(-2.60453e-06 1.82933e-06 0)
(-2.16727e-06 1.51527e-06 0)
(-1.80175e-06 1.25408e-06 0)
(-1.49651e-06 1.03704e-06 0)
(-1.24187e-06 8.56861e-07 0)
(-1.02965e-06 7.07412e-07 0)
(-8.52948e-07 5.83561e-07 0)
(-7.05962e-07 4.81013e-07 0)
(-5.83811e-07 3.96176e-07 0)
(-4.82391e-07 3.2605e-07 0)
(-3.98261e-07 2.68132e-07 0)
(-3.28535e-07 2.20336e-07 0)
(-2.70799e-07 1.80926e-07 0)
(-2.23032e-07 1.48455e-07 0)
(-1.83547e-07 1.21724e-07 0)
(-1.50936e-07 9.97339e-08 0)
(-1.24024e-07 8.16584e-08 0)
(-1.01834e-07 6.68118e-08 0)
(-8.35518e-08 5.46265e-08 0)
(-6.85019e-08 4.46327e-08 0)
(-5.61224e-08 3.64422e-08 0)
(-4.59477e-08 2.97345e-08 0)
(-3.75915e-08 2.42448e-08 0)
(-3.07344e-08 1.97552e-08 0)
(-2.51117e-08 1.60858e-08 0)
(-2.0505e-08 1.30888e-08 0)
(-1.67337e-08 1.06423e-08 0)
(-1.36491e-08 8.64634e-09 0)
(-1.11284e-08 7.01871e-09 0)
(-9.07061e-09 5.69192e-09 0)
(-7.39279e-09 4.61055e-09 0)
(-6.0267e-09 3.72918e-09 0)
(-4.91648e-09 3.01047e-09 0)
(-4.01639e-09 2.42383e-09 0)
(-3.28914e-09 1.94408e-09 0)
(-2.70441e-09 1.55052e-09 0)
(-2.23768e-09 1.22601e-09 0)
(-1.86926e-09 9.56369e-10 0)
(-1.58354e-09 7.2968e-10 0)
(-1.36838e-09 5.35873e-10 0)
(-1.21458e-09 3.66312e-10 0)
(-1.11556e-09 2.13331e-10 0)
(-1.067e-09 7.0047e-11 0)
(-0.0125802 0.0128614 0)
(-0.0113782 0.0114634 0)
(-0.0102715 0.0102002 0)
(-0.00925481 0.00906107 0)
(-0.00832285 0.00803569 0)
(-0.00747051 0.00711449 0)
(-0.00669273 0.00628845 0)
(-0.00598458 0.00554916 0)
(-0.00534128 0.00488875 0)
(-0.00475819 0.00429992 0)
(-0.00423086 0.00377588 0)
(-0.00375501 0.00331038 0)
(-0.00332653 0.00289765 0)
(-0.00294158 0.00253236 0)
(-0.00259649 0.00220965 0)
(-0.00228777 0.00192508 0)
(-0.00201217 0.00167458 0)
(-0.00176667 0.00145447 0)
(-0.00154844 0.00126138 0)
(-0.00135485 0.00109231 0)
(-0.00118345 0.000944508 0)
(-0.00103199 0.00081552 0)
(-0.000898435 0.00070314 0)
(-0.000780892 0.000605389 0)
(-0.000677645 0.0005205 0)
(-0.000587121 0.000446897 0)
(-0.000507895 0.000383181 0)
(-0.000438681 0.00032811 0)
(-0.000378321 0.000280582 0)
(-0.000325777 0.000239628 0)
(-0.000280118 0.000204389 0)
(-0.000240513 0.000174112 0)
(-0.000206216 0.000148136 0)
(-0.000176565 0.00012588 0)
(-0.000150972 0.000106839 0)
(-0.000128916 9.05694e-05 0)
(-0.000109936 7.6687e-05 0)
(-9.36274e-05 6.4857e-05 0)
(-7.96351e-05 5.47891e-05 0)
(-6.76475e-05 4.62319e-05 0)
(-5.73921e-05 3.89677e-05 0)
(-4.86312e-05 3.2809e-05 0)
(-4.11576e-05 2.75939e-05 0)
(-3.47908e-05 2.31831e-05 0)
(-2.93744e-05 1.9457e-05 0)
(-2.47726e-05 1.6313e-05 0)
(-2.08681e-05 1.36631e-05 0)
(-1.75594e-05 1.14323e-05 0)
(-1.47591e-05 9.55628e-06 0)
(-1.2392e-05 7.98037e-06 0)
(-1.03935e-05 6.65798e-06 0)
(-8.70823e-06 5.54949e-06 0)
(-7.28872e-06 4.62125e-06 0)
(-6.09444e-06 3.84475e-06 0)
(-5.09077e-06 3.19584e-06 0)
(-4.24822e-06 2.65409e-06 0)
(-3.5417e-06 2.20223e-06 0)
(-2.94987e-06 1.82572e-06 0)
(-2.45463e-06 1.51229e-06 0)
(-2.04065e-06 1.25161e-06 0)
(-1.69494e-06 1.035e-06 0)
(-1.40654e-06 8.55179e-07 0)
(-1.16617e-06 7.06024e-07 0)
(-9.66043e-07 5.82418e-07 0)
(-7.99569e-07 4.80071e-07 0)
(-6.61221e-07 3.95401e-07 0)
(-5.46354e-07 3.25413e-07 0)
(-4.51069e-07 2.67609e-07 0)
(-3.72098e-07 2.19907e-07 0)
(-3.06706e-07 1.80574e-07 0)
(-2.52606e-07 1.48167e-07 0)
(-2.07886e-07 1.21488e-07 0)
(-1.7095e-07 9.95408e-08 0)
(-1.4047e-07 8.15006e-08 0)
(-1.15337e-07 6.6683e-08 0)
(-9.46313e-08 5.45213e-08 0)
(-7.75857e-08 4.45469e-08 0)
(-6.35648e-08 3.63724e-08 0)
(-5.20408e-08 2.96776e-08 0)
(-4.25766e-08 2.41986e-08 0)
(-3.48102e-08 1.97176e-08 0)
(-2.84419e-08 1.60553e-08 0)
(-2.32243e-08 1.3064e-08 0)
(-1.89529e-08 1.06222e-08 0)
(-1.54592e-08 8.63002e-09 0)
(-1.26043e-08 7.00551e-09 0)
(-1.02736e-08 5.68123e-09 0)
(-8.37329e-09 4.60193e-09 0)
(-6.82603e-09 3.72221e-09 0)
(-5.56857e-09 3.00487e-09 0)
(-4.54911e-09 2.41933e-09 0)
(-3.72542e-09 1.94049e-09 0)
(-3.06313e-09 1.54766e-09 0)
(-2.53449e-09 1.22376e-09 0)
(-2.11721e-09 9.54605e-10 0)
(-1.79361e-09 7.28337e-10 0)
(-1.54991e-09 5.34904e-10 0)
(-1.37572e-09 3.65642e-10 0)
(-1.26356e-09 2.12953e-10 0)
(-1.20858e-09 6.99258e-11 0)
(-0.0140498 0.0128327 0)
(-0.0127074 0.0114378 0)
(-0.0114714 0.0101775 0)
(-0.0103359 0.00904084 0)
(-0.00929512 0.00801775 0)
(-0.0083432 0.0070986 0)
(-0.00747457 0.00627441 0)
(-0.00668369 0.00553677 0)
(-0.00596525 0.00487783 0)
(-0.00531404 0.00429031 0)
(-0.0047251 0.00376745 0)
(-0.00419366 0.00330299 0)
(-0.00371513 0.00289118 0)
(-0.00328521 0.0025267 0)
(-0.0028998 0.00220472 0)
(-0.00255502 0.00192078 0)
(-0.00224723 0.00167084 0)
(-0.00197305 0.00145122 0)
(-0.00172933 0.00125857 0)
(-0.00151312 0.00108987 0)
(-0.0013217 0.000942398 0)
(-0.00115255 0.000813699 0)
(-0.00100339 0.00070157 0)
(-0.000872116 0.000604037 0)
(-0.000756807 0.000519337 0)
(-0.000655707 0.000445899 0)
(-0.000567226 0.000382326 0)
(-0.000489926 0.000327377 0)
(-0.000422515 0.000279956 0)
(-0.000363833 0.000239093 0)
(-0.000312842 0.000203932 0)
(-0.000268609 0.000173723 0)
(-0.000230306 0.000147805 0)
(-0.000197192 0.000125599 0)
(-0.000168609 0.0001066 0)
(-0.000143976 9.0367e-05 0)
(-0.000122778 7.65156e-05 0)
(-0.000104565 6.47121e-05 0)
(-8.89378e-05 5.46667e-05 0)
(-7.55498e-05 4.61285e-05 0)
(-6.40964e-05 3.88807e-05 0)
(-5.43121e-05 3.27357e-05 0)
(-4.59654e-05 2.75323e-05 0)
(-3.8855e-05 2.31313e-05 0)
(-3.28058e-05 1.94136e-05 0)
(-2.76665e-05 1.62766e-05 0)
(-2.33059e-05 1.36326e-05 0)
(-1.96106e-05 1.14068e-05 0)
(-1.64832e-05 9.53497e-06 0)
(-1.38396e-05 7.96259e-06 0)
(-1.16077e-05 6.64315e-06 0)
(-9.72552e-06 5.53713e-06 0)
(-8.14019e-06 4.61096e-06 0)
(-6.80639e-06 3.8362e-06 0)
(-5.68548e-06 3.18873e-06 0)
(-4.7445e-06 2.64819e-06 0)
(-3.95544e-06 2.19734e-06 0)
(-3.29447e-06 1.82167e-06 0)
(-2.74138e-06 1.50894e-06 0)
(-2.27904e-06 1.24884e-06 0)
(-1.89295e-06 1.03271e-06 0)
(-1.57085e-06 8.53285e-07 0)
(-1.30241e-06 7.04463e-07 0)
(-1.0789e-06 5.81131e-07 0)
(-8.92979e-07 4.79012e-07 0)
(-7.38469e-07 3.94529e-07 0)
(-6.10183e-07 3.24696e-07 0)
(-5.03766e-07 2.6702e-07 0)
(-4.1557e-07 2.19424e-07 0)
(-3.42539e-07 1.80178e-07 0)
(-2.82118e-07 1.47842e-07 0)
(-2.32173e-07 1.21222e-07 0)
(-1.90923e-07 9.93233e-08 0)
(-1.56882e-07 8.13228e-08 0)
(-1.28813e-07 6.65377e-08 0)
(-1.05688e-07 5.44028e-08 0)
(-8.66508e-08 4.44502e-08 0)
(-7.09918e-08 3.62935e-08 0)
(-5.81214e-08 2.96134e-08 0)
(-4.75515e-08 2.41463e-08 0)
(-3.88776e-08 1.96751e-08 0)
(-3.17653e-08 1.60208e-08 0)
(-2.59381e-08 1.30359e-08 0)
(-2.11676e-08 1.05994e-08 0)
(-1.72657e-08 8.61161e-09 0)
(-1.40772e-08 6.99058e-09 0)
(-1.14742e-08 5.66916e-09 0)
(-9.3518e-09 4.59216e-09 0)
(-7.62375e-09 3.71434e-09 0)
(-6.21936e-09 2.99853e-09 0)
(-5.08077e-09 2.41424e-09 0)
(-4.16081e-09 1.93642e-09 0)
(-3.42114e-09 1.54442e-09 0)
(-2.83073e-09 1.2212e-09 0)
(-2.36468e-09 9.5262e-10 0)
(-2.00325e-09 7.26822e-10 0)
(-1.73108e-09 5.33785e-10 0)
(-1.53653e-09 3.64879e-10 0)
(-1.41127e-09 2.12511e-10 0)
(-1.34988e-09 6.97725e-11 0)
(-0.0155159 0.0128008 0)
(-0.0140335 0.0114094 0)
(-0.0126685 0.0101522 0)
(-0.0114145 0.00901837 0)
(-0.0102651 0.00799782 0)
(-0.00921384 0.00708096 0)
(-0.00825456 0.00625882 0)
(-0.00738116 0.00552301 0)
(-0.00658774 0.00486571 0)
(-0.00586857 0.00427965 0)
(-0.00521818 0.00375809 0)
(-0.00463128 0.00329478 0)
(-0.00410282 0.00288399 0)
(-0.00362803 0.00252043 0)
(-0.00320241 0.00219924 0)
(-0.00282164 0.00191601 0)
(-0.00248173 0.00166669 0)
(-0.00217894 0.00144761 0)
(-0.00190979 0.00125544 0)
(-0.00167102 0.00108716 0)
(-0.00145962 0.000940057 0)
(-0.00127282 0.000811677 0)
(-0.0011081 0.000699826 0)
(-0.000963125 0.000602536 0)
(-0.000835782 0.000518047 0)
(-0.000724132 0.000444791 0)