/*--------------------------------*- C++ -*----------------------------------*\
| =========                 |                                                 |
| \\      /  F ield         | OpenFOAM: The Open Source CFD Toolbox           |
|  \\    /   O peration     | Version:  2406                                  |
|   \\  /    A nd           | Website:  www.openfoam.com                      |
|    \\/     M anipulation  |                                                 |
\*---------------------------------------------------------------------------*/
FoamFile
{
    version     2.0;
    format      ascii;
    arch        "LSB;label=32;scalar=64";
    class       volScalarField;
    location    "165";
    object      gradTx;
}
// * * * * * * * * * * * * * * * * * * * * * * * * * * * * * * * * * * * * * //

dimensions      [0 -1 0 1 0 0 0];

internalField   nonuniform List<scalar> 
20000
(
6.92266
6.76924
6.61036
6.44672
6.27913
6.1081
5.93405
5.7583
5.58112
5.40244
5.22317
5.04407
4.86537
4.68727
4.51012
4.33437
4.16038
3.98844
3.81877
3.65156
3.487
3.3253
3.16663
3.01115
2.85901
2.71031
2.56516
2.42362
2.28577
2.15166
2.02132
1.89479
1.77209
1.65321
1.53816
1.42693
1.31949
1.21583
1.1159
1.01966
0.927072
0.838079
0.752624
0.670644
0.592074
0.516845
0.444883
0.376115
0.310461
0.247843
0.188178
0.131385
0.0773785
0.0260744
-0.0226126
-0.0687682
-0.112478
-0.153827
-0.192902
-0.229786
-0.264564
-0.297319
-0.328133
-0.357088
-0.384262
-0.409735
-0.433583
-0.455881
-0.476704
-0.496123
-0.514209
-0.531029
-0.54665
-0.561136
-0.57455
-0.586951
-0.598396
-0.608943
-0.618645
-0.627553
-0.635715
-0.643179
-0.64999
-0.656189
-0.661817
-0.666911
-0.671506
-0.675635
-0.679329
-0.682616
-0.685522
-0.68807
-0.690282
-0.692176
-0.693769
-0.695075
-0.696105
-0.69687
-0.697376
-0.697628
20.7663
20.3061
19.8295
19.3386
18.8356
18.3227
17.8011
17.2736
16.7416
16.2059
15.6684
15.1311
14.5949
14.0606
13.5292
13.002
12.4802
11.9644
11.4554
10.9538
10.4601
9.97506
9.4991
9.03272
8.57633
8.13027
7.69484
7.27027
6.85675
6.45445
6.06347
5.68391
5.31582
4.95922
4.6141
4.28043
3.95815
3.64718
3.34741
3.05873
2.78099
2.51403
2.25768
2.01177
1.77608
1.55041
1.33454
1.12825
0.931307
0.743467
0.564489
0.394122
0.232116
0.0782165
-0.0678325
-0.206288
-0.337406
-0.461445
-0.578659
-0.689302
-0.793628
-0.891885
-0.984319
-1.07118
-1.15269
-1.2291
-1.30064
-1.36753
-1.42999
-1.48825
-1.5425
-1.59296
-1.63982
-1.68327
-1.72351
-1.76071
-1.79504
-1.82668
-1.85578
-1.8825
-1.90699
-1.92938
-1.94981
-1.96841
-1.98529
-2.00057
-2.01435
-2.02674
-2.03782
-2.04768
-2.0564
-2.06404
-2.07067
-2.07636
-2.08113
-2.08505
-2.08814
-2.09044
-2.09196
-2.09271
34.605
33.838
33.0436
32.2257
31.3874
30.5327
29.6639
28.7846
27.8979
27.0053
26.1099
25.2145
24.3208
23.4303
22.5449
21.6665
20.7969
19.9374
19.0892
18.2533
17.4307
16.6224
15.8292
15.052
14.2915
13.5482
12.8226
12.1151
11.426
10.7556
10.1041
9.47163
8.85824
8.264
7.6889
7.13287
6.59583
6.07763
5.5781
5.09704
4.63422
4.18936
3.76219
3.35239
2.95964
2.58359
2.22387
1.88011
1.55192
1.23891
0.940659
0.656762
0.386796
0.130339
-0.113036
-0.343756
-0.562251
-0.768948
-0.964272
-1.14865
-1.3225
-1.48623
-1.64026
-1.785
-1.92084
-2.04817
-2.16738
-2.27884
-2.38293
-2.48001
-2.57041
-2.65449
-2.73258
-2.80499
-2.87204
-2.93403
-2.99124
-3.04397
-3.09246
-3.13699
-3.17779
-3.2151
-3.24915
-3.28014
-3.30827
-3.33373
-3.3567
-3.37734
-3.39581
-3.41224
-3.42676
-3.4395
-3.45056
-3.46002
-3.46799
-3.47452
-3.47967
-3.48349
-3.48602
-3.48728
48.435
47.3617
46.2497
45.1049
43.9316
42.7351
41.5192
40.2885
39.0473
37.7981
36.545
35.2917
34.0406
32.7942
31.555
30.3256
29.1085
27.9055
26.7183
25.5483
24.3969
23.2655
22.1554
21.0677
20.0032
18.9628
17.9473
16.957
15.9925
15.0542
14.1423
13.257
12.3985
11.5668
10.7618
9.98356
9.23188
8.50658
7.80742
7.1341
6.4863
5.86366
5.26576
4.69219
4.14247
3.61613
3.11265
2.6315
2.17216
1.73404
1.3166
0.91924
0.541381
0.18243
-0.158211
-0.48114
-0.786958
-1.07626
-1.34965
-1.60771
-1.85104
-2.08021
-2.2958
-2.49838
-2.68851
-2.86673
-3.03358
-3.18959
-3.33528
-3.47115
-3.59769
-3.71537
-3.82466
-3.92602
-4.01986
-4.10663
-4.18671
-4.2605
-4.32838
-4.3907
-4.44781
-4.50003
-4.54769
-4.59106
-4.63043
-4.66607
-4.69822
-4.72711
-4.75296
-4.77595
-4.79628
-4.81411
-4.82959
-4.84284
-4.85398
-4.86312
-4.87033
-4.87568
-4.87922
-4.88098
62.2529
60.8736
59.4445
57.9729
56.4649
54.927
53.3642
51.7825
50.1871
48.5815
46.971
45.3601
43.7521
42.15
40.5573
38.9773
37.413
35.8668
34.3408
32.8369
31.3571
29.903
28.4762
27.0781
25.7099
24.3728
23.0675
21.7947
20.5551
19.349
18.177
17.0391
15.9357
14.8666
13.8321
12.8318
11.8657
10.9334
10.0348
9.1694
8.33679
7.53651
6.76804
6.03083
5.32428
4.64778
4.00066
3.38225
2.79185
2.22875
1.69221
1.18149
0.695833
0.234476
-0.203347
-0.618405
-1.01147
-1.38331
-1.73469
-2.06638
-2.37912
-2.67367
-2.95077
-3.21115
-3.45551
-3.68458
-3.89903
-4.09956
-4.28681
-4.46144
-4.62408
-4.77533
-4.91581
-5.04608
-5.1667
-5.27821
-5.38114
-5.47599
-5.56323
-5.64333
-5.71673
-5.78386
-5.8451
-5.90085
-5.95146
-5.99726
-6.03858
-6.07571
-6.10893
-6.13849
-6.16462
-6.18754
-6.20743
-6.22446
-6.23878
-6.25053
-6.25979
-6.26667
-6.27122
-6.27349
76.0554
74.3703
72.6245
70.8266
68.9843
67.1054
65.1961
63.2637
61.3145
59.353
57.3854
55.4173
53.4527
51.4954
49.5497
47.6194
45.7082
43.8192
41.9548
40.1175
38.3095
36.533
34.7899
33.0818
31.4103
29.7767
28.182
26.627
25.1125
23.6391
22.2072
20.817
19.4689
18.1629
16.8989
15.6768
14.4965
13.3576
12.2597
11.2024
10.1852
9.2075
8.26865
7.36798
6.50478
5.67828
4.88768
4.13216
3.41086
2.72291
2.06741
1.44345
0.850112
0.286463
-0.248434
-0.755518
-1.23573
-1.69002
-2.11931
-2.52453
-2.90662
-3.26648
-3.60502
-3.92312
-4.22167
-4.50152
-4.76353
-5.00851
-5.23728
-5.45063
-5.64932
-5.83412
-6.00574
-6.16489
-6.31225
-6.44849
-6.57424
-6.69012
-6.7967
-6.89457
-6.98424
-7.06625
-7.14107
-7.20918
-7.27101
-7.32697
-7.37745
-7.42282
-7.4634
-7.49951
-7.53144
-7.55943
-7.58373
-7.60454
-7.62204
-7.63639
-7.64771
-7.65611
-7.66167
-7.66444
89.8392
87.8486
85.7866
83.6628
81.4867
79.2672
77.012
74.7293
72.4268
70.1099
67.7857
65.4608
63.1401
60.8282
58.5298
56.2497
53.9922
51.7608
49.5585
47.3882
45.2525
43.154
41.095
39.0774
37.103
35.1733
33.2895
31.4527
29.6638
27.9233
26.2319
24.5898
22.9974
21.4546
19.9616
18.518
17.1238
15.7785
14.4816
13.2327
12.0311
10.8762
9.76721
8.70332
7.68367
6.70738
5.7735
4.88105
4.02903
3.21639
2.44209
1.70505
1.00418
0.33838
-0.293459
-0.892445
-1.45969
-1.99631
-2.5034
-2.98207
-3.4334
-3.85848
-4.25837
-4.63413
-4.98678
-5.31736
-5.62684
-5.91623
-6.18646
-6.43847
-6.67318
-6.89146
-7.09419
-7.28218
-7.45625
-7.61719
-7.76573
-7.9026
-8.0285
-8.1441
-8.25003
-8.3469
-8.43528
-8.51574
-8.58877
-8.65487
-8.7145
-8.76809
-8.81603
-8.85869
-8.8964
-8.92947
-8.95817
-8.98275
-9.00342
-9.02037
-9.03374
-9.04367
-9.05023
-9.0535
103.601
101.305
98.9275
96.4784
93.969
91.4095
88.8088
86.1765
83.5212
80.8494
78.1692
75.4882
72.812
70.1459
67.4955
64.8662
62.2629
59.6896
57.1499
54.6471
52.1843
49.7644
47.39
45.0633
42.7865
40.5612
38.3889
36.2707
34.2077
32.2007
30.2501
28.3565
26.5201
24.7411
23.0193
21.3546
19.7468
18.1954
16.6999
15.2597
13.8741
12.5423
11.2634
10.0365
8.86067
7.73483
6.65789
5.62874
4.6462
3.70909
2.81618
1.96624
1.158
0.390213
-0.338411
-1.02915
-1.68329
-2.3021
-2.88687
-3.43886
-3.95933
-4.44953
-4.91068
-5.34399
-5.75067
-6.13188
-6.48877
-6.82248
-7.13411
-7.42473
-7.69539
-7.94711
-8.18089
-8.39768
-8.59842
-8.784
-8.95529
-9.11313
-9.25832
-9.39163
-9.51378
-9.62549
-9.72741
-9.82019
-9.90441
-9.98064
-10.0494
-10.1112
-10.1665
-10.2157
-10.2592
-10.2973
-10.3304
-10.3587
-10.3826
-10.4021
-10.4175
-10.429
-10.4366
-10.4403
117.337
114.737
112.044
109.27
106.428
103.529
100.584
97.6024
94.5951
91.569
88.5335
85.497
82.4659
79.4463
76.4445
73.4667
70.5181
67.6036
64.7272
61.8926
59.1033
56.3625
53.6732
51.0381
48.4594
45.9391
43.4788
41.0798
38.7432
36.47
34.2609
32.1162
30.0363
28.0214
26.0714
24.186
22.365
20.6079
18.9141
17.2829
15.7136
14.2052
12.7567
11.3672
10.0355
8.76036
7.54064
6.37503
5.26222
4.20086
3.18957
2.22693
1.31154
0.441949
-0.383281
-1.1656
-1.90647
-2.60733
-3.26964
-3.89481
-4.48429
-5.03948
-5.56177
-6.05254
-6.51313
-6.94488
-7.3491
-7.72706
-8.08
-8.40915
-8.7157
-9.00079
-9.26557
-9.5111
-9.73845
-9.94864
-10.1426
-10.3214
-10.4859
-10.6368
-10.7752
-10.9017
-11.0171
-11.1222
-11.2176
-11.3039
-11.3818
-11.4518
-11.5144
-11.5701
-11.6194
-11.6626
-11.7001
-11.7322
-11.7592
-11.7813
-11.7988
-11.8117
-11.8203
-11.8246
131.044
128.141
125.133
122.035
118.861
115.623
112.334
109.004
105.646
102.266
98.8759
95.4846
92.0995
88.7272
85.3747
82.049
78.756
75.501
72.2886
69.1228
66.0076
62.9467
59.9433
57.0004
54.1204
51.3057
48.5579
45.8787
43.2692
40.7304
38.2632
35.868
33.5452
31.2948
29.117
27.0114
24.9776
23.0153
21.1236
19.3019
17.5492
15.8646
14.247
12.6951
11.2078
9.78374
8.42153
7.11976
5.87695
4.6916
3.56217
2.48708
1.46475
0.493577
-0.428056
-1.30177
-2.12918
-2.91192
-3.65159
-4.3498
-5.00814
-5.62819
-6.21149
-6.75959
-7.27399
-7.75618
-8.20761
-8.62972
-9.0239
-9.3915
-9.73385
-10.0523
-10.348
-10.6222
-10.8761
-11.1108
-11.3275
-11.5272
-11.7108
-11.8794
-12.0339
-12.1752
-12.3042
-12.4215
-12.528
-12.6245
-12.7114
-12.7896
-12.8595
-12.9218
-12.9768
-13.025
-13.0669
-13.1027
-13.1329
-13.1576
-13.1771
-13.1916
-13.2012
-13.2059
144.719
141.513
138.191
134.77
131.264
127.689
124.056
120.379
116.67
112.938
109.194
105.449
101.71
97.9861
94.2838
90.6111
86.9745
83.3798
79.8321
76.3359
72.8957
69.5154
66.1986
62.9485
59.7681
56.6596
53.6251
50.6663
47.7845
44.9808
42.2561
39.6109
37.0457
34.5606
32.1554
29.8301
27.5841
25.417
23.3279
21.3161
19.3806
17.5201
15.7337
14.0199
12.3774
10.8047
9.30034
7.86272
6.49023
5.18118
3.93389
2.74661
1.6176
0.545082
-0.472726
-1.43761
-2.35137
-3.21579
-4.03265
-4.80372
-5.53076
-6.2155
-6.85968
-7.46497
-8.03305
-8.56556
-9.0641
-9.53026
-9.96557
-10.3715
-10.7496
-11.1012
-11.4278
-11.7306
-12.011
-12.2703
-12.5096
-12.73
-12.9329
-13.1191
-13.2897
-13.4458
-13.5881
-13.7177
-13.8354
-13.9419
-14.0379
-14.1242
-14.2015
-14.2702
-14.3309
-14.3842
-14.4304
-14.47
-14.5033
-14.5306
-14.5522
-14.5682
-14.5787
-14.584
158.358
154.849
151.215
147.471
143.635
139.723
135.748
131.724
127.666
123.582
119.485
115.387
111.296
107.221
103.17
99.1508
95.1714
91.238
87.3559
83.5303
79.7658
76.0669
72.4375
68.8812
65.401
61.9995
58.6791
55.4414
52.288
49.22
46.2385
43.3441
40.5371
37.8177
35.1859
32.6414
30.1838
27.8124
25.5265
23.3251
21.2071
19.1713
17.2165
15.3412
13.5439
11.823
10.1769
8.60375
7.1019
5.66949
4.30464
3.00547
1.77005
0.596453
-0.517279
-1.5731
-2.57298
-3.51886
-4.41271
-5.25645
-6.05201
-6.80129
-7.50617
-8.16851
-8.79013
-9.37283
-9.91836
-10.4284
-10.9048
-11.349
-11.7627
-12.1475
-12.5048
-12.8362
-13.143
-13.4267
-13.6885
-13.9298
-14.1517
-14.3555
-14.5422
-14.713
-14.8688
-15.0106
-15.1393
-15.2558
-15.3609
-15.4554
-15.5399
-15.6151
-15.6815
-15.7398
-15.7904
-15.8338
-15.8702
-15.9001
-15.9236
-15.9411
-15.9527
-15.9585
171.958
168.148
164.201
160.136
155.971
151.723
147.406
143.037
138.63
134.195
129.747
125.296
120.854
116.429
112.03
107.666
103.345
99.0736
94.8582
90.704
86.6162
82.5996
78.6585
74.7968
71.0177
67.3242
63.7185
60.2028
56.7785
53.4472
50.2096
47.0666
44.0185
41.0656
38.2078
35.4448
32.7761
30.201
27.7188
25.3283
23.0284
20.8178
18.6951
16.6587
14.7071
12.8384
11.0509
9.34266
7.71182
6.15639
4.67433
3.26358
1.92207
0.647676
-0.561705
-1.70821
-2.79395
-3.82107
-4.79168
-5.70788
-6.57177
-7.3854
-8.15082
-8.87004
-9.54504
-10.1778
-10.7702
-11.3241
-11.8413
-12.3237
-12.7729
-13.1907
-13.5788
-13.9386
-14.2718
-14.5798
-14.8641
-15.1261
-15.3671
-15.5884
-15.7911
-15.9765
-16.1457
-16.2997
-16.4395
-16.566
-16.6802
-16.7827
-16.8745
-16.9561
-17.0283
-17.0916
-17.1465
-17.1936
-17.2332
-17.2656
-17.2912
-17.3102
-17.3228
-17.329
185.516
181.405
177.147
172.762
168.268
163.685
159.028
154.314
149.56
144.775
139.976
135.175
130.383
125.609
120.863
116.155
111.493
106.885
102.337
97.8553
93.4452
89.112
84.8602
80.694
76.617
72.6322
68.7423
64.9493
61.2551
57.6611
54.1683
50.7774
47.489
44.3033
41.2202
38.2393
35.3602
32.5821
29.9042
27.3252
24.844
22.4591
20.1691
17.9721
15.8666
13.8506
11.9221
10.0793
8.31984
6.64177
5.04286
3.52089
2.0736
0.698739
-0.605993
-1.84289
-3.01424
-4.12234
-5.16947
-6.15791
-7.0899
-7.96768
-8.79345
-9.56938
-10.2976
-10.9802
-11.6193
-12.2169
-12.7749
-13.2953
-13.78
-14.2307
-14.6493
-15.0375
-15.397
-15.7293
-16.0361
-16.3187
-16.5787
-16.8174
-17.0361
-17.2362
-17.4187
-17.5848
-17.7356
-17.8721
-17.9953
-18.1059
-18.2049
-18.293
-18.3709
-18.4392
-18.4984
-18.5492
-18.5919
-18.6269
-18.6545
-18.675
-18.6885
-18.6953
199.028
194.618
190.05
185.345
180.524
175.607
170.611
165.554
160.453
155.32
150.171
145.021
139.879
134.757
129.666
124.615
119.613
114.67
109.791
104.982
100.251
95.6024
91.0409
86.5713
82.1973
77.9223
73.7491
69.6798
65.7166
61.8608
58.1135
54.4757
50.9479
47.5301
44.2224
41.0244
37.9356
34.9552
32.0822
29.3154
26.6535
24.0949
21.6381
19.2811
17.0222
14.8594
12.7905
10.8134
8.92581
7.12552
5.41015
3.77733
2.22463
0.74963
-0.650131
-1.97711
-3.23378
-4.42258
-5.54598
-6.60641
-7.60629
-8.548
-9.43391
-10.2664
-11.0476
-11.78
-12.4656
-13.1067
-13.7053
-14.2637
-14.7836
-15.2672
-15.7163
-16.1328
-16.5184
-16.875
-17.204
-17.5073
-17.7862
-18.0423
-18.2769
-18.4915
-18.6874
-18.8656
-19.0274
-19.1738
-19.3059
-19.4246
-19.5308
-19.6253
-19.7089
-19.7821
-19.8457
-19.9002
-19.946
-19.9835
-20.0132
-20.0351
-20.0497
-20.0569
212.491
207.782
202.905
197.882
192.735
187.485
182.151
176.752
171.306
165.826
160.329
154.83
149.341
143.873
138.437
133.044
127.704
122.426
117.217
112.084
107.032
102.069
97.1992
92.4272
87.7574
83.1932
78.7376
74.3932
70.1618
66.0452
62.0445
58.1606
54.3941
50.7452
47.2137
43.7994
40.5017
37.3197
34.2523
31.2984
28.4564
25.7248
23.1017
20.5854
18.1737
15.8645
13.6557
11.5448
9.52957
7.60751
5.77611
4.03284
2.37511
0.800336
-0.694109
-2.11085
-3.45252
-4.72174
-5.92113
-7.05329
-8.1208
-9.12621
-10.072
-10.9608
-11.7949
-12.5768
-13.3088
-13.9933
-14.6324
-15.2285
-15.7836
-16.2999
-16.7794
-17.2241
-17.6358
-18.0164
-18.3678
-18.6915
-18.9893
-19.2627
-19.5132
-19.7424
-19.9514
-20.1417
-20.3144
-20.4708
-20.6118
-20.7386
-20.852
-20.9529
-21.042
-21.1203
-21.1882
-21.2463
-21.2952
-21.3353
-21.3669
-21.3904
-21.4059
-21.4136
225.901
220.896
215.711
210.37
204.899
199.318
193.647
187.907
182.117
176.292
170.448
164.602
158.766
152.952
147.174
141.441
135.764
130.153
124.615
119.157
113.787
108.511
103.333
98.2603
93.2958
88.4436
83.7068
79.0882
74.5898
70.2133
65.9601
61.8312
57.8269
53.9477
50.1934
46.5636
43.0578
39.675
36.414
33.2737
30.2523
27.3483
24.5597
21.8845
19.3206
16.8657
14.5175
12.2734
10.131
8.08762
6.14064
4.28735
2.525
0.850843
-0.737916
-2.24407
-3.67041
-5.01973
-6.29482
-7.49843
-8.63331
-9.70217
-10.7077
-11.6525
-12.5393
-13.3705
-14.1487
-14.8764
-15.5559
-16.1896
-16.7797
-17.3286
-17.8384
-18.3111
-18.7488
-19.1534
-19.5269
-19.8711
-20.1877
-20.4784
-20.7447
-20.9883
-21.2106
-21.4128
-21.5965
-21.7627
-21.9127
-22.0474
-22.1679
-22.2752
-22.37
-22.4532
-22.5253
-22.5872
-22.6391
-22.6817
-22.7154
-22.7403
-22.7568
-22.7651
239.256
233.954
228.463
222.807
217.012
211.101
205.095
199.016
192.883
186.713
180.524
174.332
168.152
161.995
155.874
149.802
143.79
137.847
131.982
126.202
120.514
114.926
109.442
104.069
98.8112
93.6721
88.6553
83.7636
78.9993
74.3641
69.8595
65.4864
61.2455
57.1369
53.1607
49.3163
45.6032
42.0204
38.5667
35.2407
32.0407
28.965
26.0116
23.1782
20.4628
17.8628
15.3757
12.999
10.7299
8.56573
6.50365
4.5408
2.67427
0.901141
-0.781541
-2.37673
-3.88739
-5.31649
-6.66695
-7.94171
-9.14368
-10.2757
-11.3407
-12.3414
-13.2806
-14.1609
-14.9852
-15.7558
-16.4755
-17.1466
-17.7717
-18.353
-18.8929
-19.3936
-19.8572
-20.2857
-20.6813
-21.0458
-21.3811
-21.689
-21.9711
-22.2291
-22.4645
-22.6787
-22.8732
-23.0493
-23.2081
-23.3508
-23.4784
-23.592
-23.6925
-23.7805
-23.857
-23.9224
-23.9775
-24.0226
-24.0582
-24.0847
-24.1022
-24.1109
252.551
246.955
241.159
235.188
229.071
222.832
216.492
210.075
203.602
197.089
190.556
184.02
177.496
170.997
164.536
158.127
151.78
145.507
139.316
133.215
127.211
121.312
115.524
109.852
104.302
98.8775
93.582
88.4184
83.3893
78.4966
73.7417
69.1256
64.6489
60.3121
56.1148
52.0569
48.1374
44.3555
40.7099
37.199
33.8212
30.5746
27.457
24.4663
21.5999
18.8554
16.2301
13.7213
11.3262
9.04173
6.86506
4.79313
2.82288
0.951216
-0.824974
-2.50881
-4.10342
-5.61193
-7.03744
-8.38304
-9.65181
-10.8468
-11.9709
-13.0272
-14.0186
-14.9479
-15.8179
-16.6314
-17.391
-18.0995
-18.7593
-19.3729
-19.9428
-20.4713
-20.9606
-21.413
-21.8306
-22.2154
-22.5693
-22.8943
-23.192
-23.4644
-23.7128
-23.939
-24.1443
-24.3301
-24.4977
-24.6484
-24.7831
-24.9031
-25.0091
-25.102
-25.1827
-25.2518
-25.3099
-25.3576
-25.3952
-25.4231
-25.4415
-25.4507
265.784
259.895
253.795
247.512
241.074
234.508
227.836
221.083
214.27
207.416
200.541
193.662
186.796
179.957
173.157
166.412
159.733
153.131
146.616
140.195
133.877
127.669
121.577
115.608
109.767
104.059
98.4855
93.0514
87.7588
82.6097
77.6056
72.7476
68.0364
63.4723
59.0552
54.7846
50.6597
46.6797
42.843
39.1482
35.5934
32.1767
28.8957
25.7483
22.7317
19.8434
17.0806
14.4403
11.9196
9.5155
7.22478
5.04428
2.97079
1.00106
-0.868203
-2.64027
-4.31844
-5.90598
-7.40619
-8.8223
-10.1575
-11.4151
-12.5982
-13.7098
-14.7531
-15.7311
-16.6467
-17.5028
-18.3023
-19.0479
-19.7422
-20.388
-20.9878
-21.5439
-22.0589
-22.535
-22.9745
-23.3794
-23.7519
-24.0939
-24.4073
-24.6938
-24.9553
-25.1933
-25.4094
-25.605
-25.7814
-25.9399
-26.0817
-26.2079
-26.3195
-26.4173
-26.5023
-26.575
-26.6361
-26.6863
-26.7258
-26.7552
-26.7746
-26.7843
278.952
272.771
266.369
259.774
253.018
246.126
239.123
232.036
224.886
217.692
210.476
203.257
196.051
188.872
181.736
174.657
167.647
160.718
153.88
147.141
140.509
133.994
127.601
121.336
115.206
109.214
103.365
97.6614
92.1066
86.7024
81.4504
76.3517
71.4071
66.6169
61.9809
57.4987
53.1696
48.9923
44.9656
41.0877
37.3568
33.7708
30.3273
27.0239
23.8579
20.8265
17.9268
15.1557
12.5102
9.98692
7.58271
5.29419
3.11797
1.05065
-0.911218
-2.77108
-4.53238
-6.19858
-7.77311
-9.25938
-10.6608
-11.9807
-13.2223
-14.3891
-15.4841
-16.5105
-17.4714
-18.37
-19.2091
-19.9916
-20.7203
-21.3981
-22.0276
-22.6113
-23.1518
-23.6515
-24.1127
-24.5377
-24.9286
-25.2876
-25.6165
-25.9173
-26.1917
-26.4415
-26.6683
-26.8735
-27.0587
-27.2251
-27.3739
-27.5064
-27.6234
-27.7261
-27.8152
-27.8916
-27.9558
-28.0084
-28.0499
-28.0807
-28.1011
-28.1113
292.051
285.58
278.877
271.973
264.899
257.683
250.352
242.932
235.446
227.914
220.359
212.801
205.257
197.741
190.27
182.858
175.519
168.265
161.105
154.05
147.107
140.286
133.592
127.034
120.615
114.342
108.218
102.247
96.4317
90.7737
85.2751
79.937
74.7602
69.745
64.8914
60.1987
55.6663
51.2928
47.077
43.0171
39.111
35.3566
31.7514
28.2929
24.9782
21.8044
18.7686
15.8674
13.0976
10.4559
7.93877
5.54279
3.26438
1.09998
-0.954009
-2.9012
-4.74522
-6.48966
-8.13812
-9.69418
-11.1614
-12.5432
-13.8432
-15.0647
-16.2111
-17.2858
-18.2919
-19.2326
-20.1111
-20.9303
-21.6933
-22.4029
-23.0619
-23.6731
-24.2389
-24.7621
-25.245
-25.6899
-26.0992
-26.475
-26.8194
-27.1343
-27.4216
-27.6831
-27.9205
-28.1354
-28.3293
-28.5035
-28.6593
-28.798
-28.9206
-29.0281
-29.1214
-29.2013
-29.2685
-29.3236
-29.3671
-29.3993
-29.4207
-29.4313
305.078
298.318
291.316
284.104
276.714
269.177
261.519
253.768
245.948
238.081
230.189
222.293
214.412
206.561
198.757
191.015
183.348
175.77
168.291
160.921
153.669
146.543
139.551
132.7
125.995
119.442
113.046
106.808
100.733
94.8226
89.0787
83.5026
78.0949
72.856
67.7858
62.8838
58.1492
53.5807
49.1769
44.9358
40.8555
36.9336
33.1677
29.5549
26.0923
22.777
19.6057
16.5751
13.6818
10.9223
8.29288
5.79002
3.40999
1.14904
-0.996564
-3.03061
-4.95688
-6.77913
-8.50112
-10.1266
-11.6592
-13.1027
-14.4607
-15.7367
-16.9342
-18.0568
-19.1078
-20.0905
-21.0081
-21.8639
-22.6609
-23.4022
-24.0906
-24.729
-25.3201
-25.8666
-26.371
-26.8358
-27.2634
-27.6559
-28.0156
-28.3446
-28.6447
-28.9179
-29.1659
-29.3904
-29.5929
-29.7749
-29.9376
-30.0825
-30.2106
-30.3229
-30.4203
-30.5038
-30.574
-30.6315
-30.677
-30.7107
-30.733
-30.7441
318.029
310.983
303.683
296.165
288.462
280.604
272.621
264.541
256.389
248.188
239.961
231.73
223.515
215.33
207.195
199.124
191.132
183.232
175.436
167.753
160.193
152.764
145.476
138.333
131.344
124.513
117.845
111.342
105.009
98.8482
92.8604
87.0475
81.4102
75.949
70.6635
65.5535
60.6178
55.8554
51.2646
46.8435
42.59
38.5016
34.5757
30.8095
27.2
23.744
20.438
17.2788
14.2626
11.3859
8.64493
6.03582
3.55475
1.19782
-1.03887
-3.15927
-5.16731
-7.06692
-8.86202
-10.5565
-12.1542
-13.659
-15.0746
-16.4048
-17.6531
-18.8234
-19.919
-20.9434
-21.9
-22.7921
-23.623
-24.3957
-25.1133
-25.7788
-26.395
-26.9647
-27.4905
-27.9751
-28.4208
-28.83
-29.205
-29.5479
-29.8608
-30.1456
-30.4041
-30.6381
-30.8492
-31.0389
-31.2086
-31.3596
-31.4931
-31.6102
-31.7118
-31.7988
-31.872
-31.9319
-31.9793
-32.0144
-32.0377
-32.0492
330.902
323.57
315.975
308.153
300.138
291.963
283.656
275.249
266.767
258.234
249.674
241.11
232.562
224.047
215.581
207.184
198.869
190.649
182.537
174.543
166.677
158.948
151.364
143.933
136.661
129.553
122.615
115.849
109.26
102.849
96.6192
90.571
84.7055
79.0232
73.5238
68.2069
63.0715
58.1163
53.3397
48.7396
44.3139
40.06
35.9753
32.0566
28.301
24.7051
21.2653
17.9782
14.84
11.8468
8.99486
6.28013
3.69863
1.2463
-1.08093
-3.28716
-5.37648
-7.35298
-9.22073
-10.9838
-12.6462
-14.2119
-15.6848
-17.0688
-18.3677
-19.5853
-20.7252
-21.7911
-22.7864
-23.7147
-24.5792
-25.3832
-26.1298
-26.8223
-27.4634
-28.0562
-28.6033
-29.1074
-29.5712
-29.997
-30.3871
-30.7439
-31.0695
-31.3658
-31.6348
-31.8783
-32.0979
-32.2953
-32.4718
-32.629
-32.7679
-32.8897
-32.9954
-33.0859
-33.1621
-33.2245
-33.2737
-33.3103
-33.3345
-33.3465
343.694
336.078
328.19
320.065
311.74
303.249
294.621
285.889
277.079
268.216
259.325
250.431
241.552
232.707
223.915
215.193
206.556
198.019
189.593
181.29
173.12
165.092
157.215
149.497
141.944
134.561
127.355
120.328
113.484
106.825
100.354
94.0721
87.9799
82.0779
76.366
70.8435
65.5096
60.3628
55.4016
50.6237
46.0269
41.6086
37.3659
33.2958
29.395
25.6601
22.0874
18.6732
15.4136
12.3048
9.34256
6.5229
3.8416
1.29448
-1.12271
-3.41423
-5.58431
-7.63722
-9.57717
-11.4084
-13.135
-14.7612
-16.2911
-17.7286
-19.0777
-20.3424
-21.5264
-22.6335
-23.6673
-24.6314
-25.5293
-26.3644
-27.1399
-27.8591
-28.5251
-29.1407
-29.709
-30.2326
-30.7143
-31.1565
-31.5618
-31.9324
-32.2705
-32.5783
-32.8577
-33.1105
-33.3387
-33.5437
-33.7271
-33.8903
-34.0345
-34.161
-34.2708
-34.3649
-34.444
-34.5088
-34.56
-34.5979
-34.6231
-34.6356
356.4
348.504
340.323
331.898
323.265
314.46
305.514
296.458
287.323
278.132
268.913
259.689
250.482
241.311
232.193
223.149
214.193
205.34
196.603
187.993
179.52
171.196
163.028
155.024
147.191
139.536
132.063
124.776
117.679
110.774
104.064
97.55
91.2326
85.1124
79.1893
73.4627
67.9315
62.5945
57.4498
52.4953
47.7285
43.1469
38.7474
34.5268
30.4818
26.6087
22.9039
19.3635
15.9835
12.7597
9.68796
6.76405
3.98363
1.34234
-1.16422
-3.54045
-5.79077
-7.91957
-9.93125
-11.8302
-13.6206
-15.307
-16.8934
-18.384
-19.7831
-21.0945
-22.3222
-23.4702
-24.5423
-25.542
-26.4731
-27.3391
-28.1433
-28.8891
-29.5797
-30.2181
-30.8074
-31.3503
-31.8498
-32.3084
-32.7286
-33.1129
-33.4635
-33.7827
-34.0724
-34.3347
-34.5712
-34.7838
-34.974
-35.1432
-35.2928
-35.424
-35.5379
-35.6354
-35.7174
-35.7846
-35.8377
-35.877
-35.9031
-35.9161
369.019
360.843
352.373
343.649
334.711
325.594
316.331
306.955
297.496
287.98
278.434
268.884
259.351
249.854
240.414
231.049
221.776
212.61
203.564
194.649
185.876
177.257
168.8
160.513
152.403
144.476
136.739
129.194
121.846
114.697
107.749
101.004
94.4628
88.1259
81.993
76.0637
70.3367
64.8107
59.4838
54.3539
49.4184
44.6745
40.1192
35.7492
31.561
27.5508
23.7149
20.0491
16.5494
13.2114
10.031
7.00353
4.12467
1.38986
-1.20545
-3.66581
-5.9958
-8.19997
-10.2829
-12.249
-14.1029
-15.8489
-17.4915
-19.0349
-20.4835
-21.8413
-23.1126
-24.3012
-25.4112
-26.4464
-27.4104
-28.307
-29.1397
-29.9119
-30.6269
-31.288
-31.8981
-32.4603
-32.9775
-33.4523
-33.8874
-34.2853
-34.6484
-34.9788
-35.2788
-35.5503
-35.7953
-36.0154
-36.2123
-36.3875
-36.5424
-36.6782
-36.7961
-36.8971
-36.982
-37.0516
-37.1065
-37.1473
-37.1743
-37.1877
381.547
373.093
364.335
355.316
346.074
336.647
327.07
317.375
307.596
297.756
287.886
278.012
268.155
258.337
248.576
238.893
229.305
219.828
210.474
201.257
192.187
183.275
174.53
165.962
157.577
149.381
141.381
133.58
125.982
118.59
111.407
104.433
97.6696
91.1176
84.7766
78.6459
72.7245
67.0109
61.5032
56.1991
51.0961
46.1912
41.4812
36.9629
32.6324
28.4861
24.5199
20.7297
17.1112
13.6599
10.3715
7.24129
4.26469
1.43704
-1.24637
-3.79026
-6.19935
-8.47835
-10.632
-12.6649
-14.5817
-16.387
-18.0853
-19.6811
-21.1789
-22.5828
-23.8972
-25.1262
-26.2739
-27.3442
-28.341
-29.268
-30.129
-30.9274
-31.6667
-32.3502
-32.981
-33.5623
-34.097
-34.588
-35.0378
-35.4492
-35.8246
-36.1663
-36.4765
-36.7572
-37.0105
-37.238
-37.4416
-37.6228
-37.7829
-37.9234
-38.0453
-38.1497
-38.2375
-38.3094
-38.3662
-38.4084
-38.4363
-38.4502
393.98
385.251
376.208
366.894
357.351
347.618
337.728
327.718
317.619
307.459
297.268
287.072
276.894
266.755
256.676
246.678
236.778
226.991
217.333
207.815
198.45
189.247
180.218
171.37
162.712
154.249
145.988
137.933
130.088
122.455
115.037
107.836
100.852
94.0869
87.5392
81.2087
75.0944
69.1946
63.5074
58.0305
52.7611
47.6964
42.833
38.1674
33.6958
29.4144
25.319
21.4052
17.6688
14.1051
10.7095
7.47726
4.40367
1.48387
-1.28699
-3.91378
-6.40137
-8.75464
-10.9784
-13.0776
-15.0569
-16.921
-18.6747
-20.3225
-21.869
-23.3187
-24.6759
-25.945
-27.1301
-28.2352
-29.2645
-30.2218
-31.1108
-31.9352
-32.6986
-33.4044
-34.0558
-34.656
-35.2081
-35.7151
-36.1796
-36.6044
-36.992
-37.3448
-37.6651
-37.955
-38.2165
-38.4515
-38.6617
-38.8488
-39.0142
-39.1592
-39.2851
-39.3929
-39.4835
-39.5578
-39.6165
-39.66
-39.6888
-39.7031
406.316
397.314
387.987
378.382
368.541
358.502
348.303
337.979
327.565
317.086
306.576
296.06
285.564
275.108
264.714
254.402
244.192
234.099
224.138
214.322
204.663
195.173
185.861
176.736
167.806
159.079
150.559
142.252
134.161
126.289
118.639
111.212
104.01
97.0329
90.2802
83.7515
77.4457
71.3612
65.496
59.8475
54.4132
49.1899
44.1742
39.3625
34.7509
30.3354
26.1118
22.0755
18.222
14.5467
11.0448
7.71138
4.54155
1.53033
-1.32729
-4.03633
-6.60181
-9.02876
-11.3222
-13.4871
-15.5283
-17.4508
-19.2594
-20.9588
-22.5538
-24.0489
-25.4486
-26.7574
-27.9796
-29.1193
-30.1809
-31.1681
-32.0849
-32.9352
-33.7225
-34.4503
-35.1221
-35.7411
-36.3106
-36.8334
-37.3125
-37.7506
-38.1503
-38.5142
-38.8445
-39.1434
-39.4131
-39.6555
-39.8723
-40.0652
-40.2358
-40.3853
-40.5152
-40.6263
-40.7198
-40.7965
-40.857
-40.9018
-40.9315
-40.9463
418.552
409.278
399.671
389.777
379.639
369.298
358.792
348.157
337.429
326.635
315.808
304.976
294.163
283.392
272.685
262.063
251.545
241.149
230.888
220.776
210.827
201.05
191.458
182.058
172.86
163.87
155.093
146.536
138.201
130.092
122.212
114.562
107.142
99.955
92.9989
86.2737
79.778
73.5102
67.4683
61.6498
56.0518
50.6712
45.5044
40.5478
35.7974
31.249
26.8981
22.7403
18.7708
14.9848
11.3774
7.94361
4.67831
1.57641
-1.36726
-4.15788
-6.80062
-9.30066
-11.6632
-13.8932
-15.9959
-17.9763
-19.8394
-21.59
-23.233
-24.7731
-26.215
-27.5632
-28.8221
-29.9963
-31.0897
-32.1067
-33.0512
-33.927
-34.738
-35.4878
-36.1798
-36.8175
-37.404
-37.9426
-38.4361
-38.8874
-39.2992
-39.674
-40.0143
-40.3222
-40.6
-40.8497
-41.073
-41.2718
-41.4475
-41.6015
-41.7352
-41.8498
-41.9461
-42.025
-42.0873
-42.1336
-42.1642
-42.1794
430.685
421.142
411.257
401.076
390.644
380.003
369.192
358.249
347.21
336.104
324.962
313.816
302.69
291.607
280.59
269.66
258.837
248.139
237.581
227.176
216.938
206.878
197.008
187.336
177.871
168.62
159.589
150.783
142.207
133.863
125.754
117.882
110.248
102.852
95.6947
88.7745
82.0905
75.6411
69.4241
63.4369
57.6766
52.14
46.8235
41.7232
36.8351
32.1548
27.6778
23.3994
19.3149
15.4192
11.7072
8.17387
4.81392
1.6221
-1.4069
-4.27841
-6.99776
-9.57027
-12.0012
-14.2959
-16.4596
-18.4974
-20.4145
-22.2158
-23.9065
-25.4912
-26.9749
-28.3622
-29.6576
-30.8658
-31.9909
-33.0374
-34.0092
-34.9105
-35.745
-36.5165
-37.2286
-37.8847
-38.4883
-39.0425
-39.5503
-40.0147
-40.4384
-40.8241
-41.1742
-41.4911
-41.7769
-42.0338
-42.2636
-42.4681
-42.6489
-42.8074
-42.945
-43.0629
-43.162
-43.2432
-43.3073
-43.3549
-43.3864
-43.4021
442.712
432.902
422.741
412.276
401.552
390.615
379.502
368.253
356.906
345.489
334.037
322.58
311.143
299.75
288.425
277.19
266.065
255.068
244.215
233.52
222.996
212.655
202.509
192.567
182.837
173.328
164.045
154.994
146.178
137.601
129.266
121.174
113.327
105.724
98.3669
91.2535
84.3828
77.7533
71.3627
65.2083
59.2872
53.596
48.131
42.8883
37.8637
33.0527
28.4507
24.0529
19.8542
15.8497
12.0341
8.40211
4.94835
1.6674
-1.44619
-4.39788
-7.19316
-9.83751
-12.3364
-14.6952
-16.9192
-19.014
-20.9845
-22.8362
-24.574
-26.203
-27.7281
-29.1541
-30.4858
-31.7277
-32.8843
-33.9599
-34.9589
-35.8853
-36.7431
-37.5361
-38.2681
-38.9426
-39.563
-40.1327
-40.6547
-41.132
-41.5676
-41.964
-42.3239
-42.6497
-42.9435
-43.2076
-43.4438
-43.654
-43.8398
-44.0028
-44.1442
-44.2654
-44.3672
-44.4508
-44.5167
-44.5656
-44.5979
-44.614
454.629
444.556
434.121
423.374
412.361
401.129
389.717
378.166
366.513
354.789
343.029
331.263
319.518
307.819
296.189
284.651
273.227
261.934
250.789
239.806
228.999
218.38
207.96
197.75
187.759
177.994
168.461
159.166
150.113
141.305
132.746
124.436
116.377
108.57
101.015
93.7099
86.6543
79.8463
73.2837
66.9636
60.8831
55.0387
49.4266
44.0428
38.8829
33.9424
29.2165
24.7003
20.3887
16.2764
12.3581
8.62829
5.08155
1.71228
-1.48512
-4.51627
-7.3868
-10.1023
-12.6684
-15.0907
-17.3747
-19.5258
-21.5494
-23.4509
-25.2355
-26.9084
-28.4745
-29.9389
-31.3064
-32.5817
-33.7695