/*--------------------------------*- C++ -*----------------------------------*\
| =========                 |                                                 |
| \\      /  F ield         | OpenFOAM: The Open Source CFD Toolbox           |
|  \\    /   O peration     | Version:  2406                                  |
|   \\  /    A nd           | Website:  www.openfoam.com                      |
|    \\/     M anipulation  |                                                 |
\*---------------------------------------------------------------------------*/
FoamFile
{
    version     2.0;
    format      ascii;
    arch        "LSB;label=32;scalar=64";
    class       volScalarField;
    location    "165";
    object      gradTy;
}
// * * * * * * * * * * * * * * * * * * * * * * * * * * * * * * * * * * * * * //

dimensions      [0 -1 0 1 0 0 0];

internalField   nonuniform List<scalar> 
20000
(
-255.288
-241.594
-228.213
-215.154
-202.427
-190.039
-177.996
-166.304
-154.965
-143.981
-133.356
-123.09
-113.181
-103.629
-94.4332
-85.5901
-77.0968
-68.9495
-61.144
-53.6754
-46.5386
-39.7282
-33.2383
-27.0625
-21.1944
-15.6272
-10.3538
-5.36718
-0.659936
3.77534
7.94617
11.8601
15.5249
18.948
22.1373
25.1003
27.8447
30.3779
32.7077
34.8413
36.7861
38.5493
40.1382
41.5596
42.8206
43.9278
44.8878
45.7072
46.3922
46.949
47.3835
47.7016
47.909
48.0111
48.0133
47.9207
47.7382
47.4708
47.123
46.6992
46.2039
45.641
45.0147
44.3286
43.5864
42.7916
41.9476
41.0574
40.1242
39.1507
38.1398
37.094
36.0158
34.9075
33.7714
32.6095
31.4237
30.216
28.9881
27.7416
26.4781
25.1989
23.9055
22.5991
21.2809
19.952
18.6134
17.2662
15.9111
14.549
13.1808
11.8071
10.4287
9.04613
7.66013
6.27123
4.88
3.48698
2.09269
0.697647
-255.225
-241.534
-228.156
-215.101
-202.377
-189.992
-177.953
-166.263
-154.926
-143.946
-133.323
-123.059
-113.153
-103.604
-94.4099
-85.569
-77.0778
-68.9325
-61.1288
-53.6621
-46.5271
-39.7184
-33.2301
-27.0558
-21.1892
-15.6233
-10.3513
-5.36586
-0.65977
3.77442
7.94422
11.8572
15.5211
18.9434
22.1319
25.0941
27.8378
30.3705
32.6996
34.8327
36.777
38.5398
40.1283
41.5494
42.81
43.9169
44.8768
45.6959
46.3807
46.9374
47.3718
47.6899
47.8972
47.9993
48.0015
47.9089
47.7265
47.4591
47.1113
46.6877
46.1925
45.6298
45.0036
44.3177
43.5757
42.7811
41.9372
41.0473
40.1143
39.1411
38.1304
37.0849
36.0069
34.8989
33.7631
32.6014
31.416
30.2086
28.981
27.7348
26.4715
25.1927
23.8996
22.5935
21.2757
19.9471
18.6088
17.2619
15.9071
14.5454
13.1775
11.8042
10.4261
9.0439
7.65823
6.26968
4.87879
3.48612
2.09217
0.697475
-255.099
-241.415
-228.043
-214.995
-202.277
-189.899
-177.865
-166.181
-154.85
-143.875
-133.258
-122.998
-113.097
-103.553
-94.3634
-85.5269
-77.0398
-68.8985
-61.0986
-53.6356
-46.5042
-39.6988
-33.2137
-27.0425
-21.1788
-15.6156
-10.3462
-5.36322
-0.659449
3.77255
7.9403
11.8514
15.5134
18.934
22.1209
25.0817
27.8241
30.3555
32.6835
34.8155
36.7588
38.5208
40.1085
41.5289
42.7889
43.8953
44.8546
45.6734
46.3579
46.9142
47.3484
47.6663
47.8736
47.9756
47.9778
47.8852
47.7029
47.4357
47.0881
46.6647
46.1697
45.6073
44.9814
44.2958
43.5542
42.76
41.9165
41.027
40.0945
39.1217
38.1116
37.0666
35.9892
34.8817
33.7464
32.5853
31.4005
30.1937
28.9667
27.7211
26.4585
25.1803
23.8878
22.5824
21.2652
19.9372
18.5997
17.2534
15.8993
14.5382
13.171
11.7983
10.4209
9.03943
7.65446
6.26659
4.87639
3.4844
2.09114
0.697131
-254.91
-241.236
-227.875
-214.835
-202.127
-189.758
-177.733
-166.058
-154.735
-143.768
-133.159
-122.907
-113.013
-103.476
-94.2936
-85.4635
-76.9827
-68.8474
-61.0534
-53.5958
-46.4697
-39.6694
-33.1891
-27.0225
-21.1631
-15.6041
-10.3385
-5.35925
-0.658965
3.76975
7.93441
11.8426
15.5019
18.92
22.1045
25.0632
27.8035
30.333
32.6593
34.7897
36.7316
38.4923
40.0788
41.4981
42.7572
43.8628
44.8214
45.6395
46.3235
46.8795
47.3134
47.631
47.8381
47.9401
47.9422
47.8498
47.6676
47.4005
47.0532
46.6301
46.1355
45.5735
44.9481
44.263
43.5219
42.7283
41.8855
40.9966
40.0648
39.0928
38.0833
37.0391
35.9625
34.8559
33.7214
32.5612
31.3772
30.1713
28.9452
27.7006
26.4389
25.1616
23.8701
22.5657
21.2494
19.9225
18.5859
17.2406
15.8875
14.5275
13.1613
11.7896
10.4132
9.03274
7.64879
6.26194
4.87278
3.48182
2.08959
0.696615
-254.658
-240.998
-227.65
-214.623
-201.928
-189.571
-177.557
-165.894
-154.582
-143.626
-133.027
-122.786
-112.902
-103.374
-94.2004
-85.3791
-76.9067
-68.7794
-60.993
-53.5429
-46.4238
-39.6303
-33.1563
-26.9958
-21.1422
-15.5887
-10.3283
-5.35395
-0.658306
3.76604
7.92659
11.8309
15.4866
18.9013
22.0827
25.0384
27.776
30.303
32.627
34.7553
36.6953
38.4542
40.0392
41.4571
42.715
43.8194
44.7771
45.5945
46.2778
46.8332
47.2666
47.584
47.7909
47.8927
47.8949
47.8025
47.6205
47.3537
47.0068
46.5841
46.0899
45.5285
44.9037
44.2193
43.4789
42.6861
41.8441
40.9562
40.0252
39.0542
38.0457
37.0025
35.927
34.8214
33.6881
32.5291
31.3462
30.1415
28.9166
27.6732
26.4128
25.1368
23.8465
22.5434
21.2284
19.9028
18.5675
17.2236
15.8718
14.5131
13.1483
11.778
10.4029
9.02382
7.64123
6.25576
4.86796
3.47838
2.08753
0.695927
-254.343
-240.7
-227.368
-214.358
-201.678
-189.336
-177.338
-165.689
-154.391
-143.449
-132.863
-122.634
-112.762
-103.246
-94.0841
-85.2736
-76.8116
-68.6944
-60.9177
-53.4767
-46.3664
-39.5813
-33.1154
-26.9625
-21.1161
-15.5694
-10.3156
-5.34734
-0.657491
3.76139
7.9168
11.8163
15.4675
18.878
22.0554
25.0075
27.7417
30.2656
32.5867
34.7124
36.65
38.4067
39.9897
41.4059
42.6622
43.7653
44.7218
45.5381
46.2206
46.7753
47.2082
47.5252
47.7318
47.8335
47.8357
47.7434
47.5617
47.2952
46.9487
46.5265
46.033
45.4722
44.8482
44.1646
43.4252
42.6334
41.7924
40.9056
39.9758
39.0059
37.9987
36.9568
35.8826
34.7784
33.6465
32.4889
31.3075
30.1043
28.8809
27.639
26.3801
25.1057
23.8171
22.5155
21.2022
19.8782
18.5446
17.2023
15.8522
14.4952
13.132
11.7634
10.3901
9.01267
7.63179
6.24803
4.86195
3.47408
2.08495
0.695067
-253.966
-240.343
-227.031
-214.04
-201.379
-189.055
-177.075
-165.443
-154.162
-143.236
-132.666
-122.452
-112.595
-103.093
-93.9445
-85.1471
-76.6977
-68.5925
-60.8273
-53.3974
-46.2977
-39.5226
-33.0663
-26.9225
-21.0848
-15.5463
-10.3003
-5.33941
-0.656519
3.75581
7.90505
11.7988
15.4445
18.85
22.0227
24.9704
27.7005
30.2207
32.5384
34.6609
36.5956
38.3498
39.9304
41.3445
42.5989
43.7004
44.6554
45.4706
46.152
46.7059
47.1382
47.4547
47.661
47.7626
47.7647
47.6726
47.4911
47.225
46.879
46.4575
45.9647
45.4048
44.7816
44.0991
43.3608
42.5701
41.7304
40.8449
39.9164
38.948
37.9423
36.902
35.8294
34.7268
33.5966
32.4407
31.2611
30.0596
28.838
27.598
26.341
25.0685
23.7817
22.4821
21.1707
19.8487
18.5171
17.1768
15.8287
14.4737
13.1125
11.746
10.3747
8.9993
7.62047
6.23876
4.85473
3.46893
2.08186
0.694035
-253.526
-239.927
-226.638
-213.669
-201.03
-188.728
-176.768
-165.156
-153.895
-142.988
-132.436
-122.24
-112.4
-102.914
-93.7817
-84.9995
-76.5648
-68.4736
-60.7219
-53.3049
-46.2174
-39.4541
-33.009
-26.8758
-21.0482
-15.5194
-10.2824
-5.33015
-0.655374
3.74931
7.89136
11.7783
15.4178
18.8173
21.9846
24.9271
27.6525
30.1683
32.482
34.6008
36.5322
38.2833
39.8612
41.2728
42.5251
43.6247
44.5781
45.3918
46.0721
46.625
47.0565
47.3725
47.5784
47.6798
47.682
47.59
47.4088
47.1432
46.7978
46.377
45.885
45.3261
44.704
44.0227
43.2856
42.4963
41.6581
40.7741
39.8473
38.8805
37.8766
36.838
35.7673
34.6666
33.5384
32.3844
31.2069
30.0075
28.7881
27.5502
26.2953
25.025
23.7405
22.4432
21.1341
19.8143
18.485
17.147
15.8013
14.4486
13.0898
11.7256
10.3567
8.9837
7.60726
6.22795
4.84632
3.46291
2.07825
0.692833
-253.024
-239.451
-226.188
-213.246
-200.632
-188.354
-176.418
-164.829
-153.59
-142.704
-132.173
-121.998
-112.177
-102.71
-93.5958
-84.831
-76.413
-68.3379
-60.6015
-53.1992
-46.1258
-39.3759
-32.9435
-26.8226
-21.0065
-15.4886
-10.262
-5.31958
-0.654069
3.74188
7.87572
11.755
15.3872
18.78
21.941
24.8777
27.5977
30.1085
32.4176
34.5323
36.4598
38.2074
39.7822
41.191
42.4408
43.5382
44.4897
45.3018
45.9807
46.5326
46.9632
47.2786
47.4841
47.5853
47.5875
47.4957
47.3148
47.0498
46.705
46.285
45.7941
45.2362
44.6154
43.9354
43.1998
42.4121
41.5755
40.6933
39.7683
38.8035
37.8015
36.765
35.6964
34.5979
33.4719
32.3202
31.145
29.948
28.731
27.4956
26.2432
24.9754
23.6935
22.3987
21.0922
19.775
18.4483
17.113
15.7699
14.42
13.0639
11.7024
10.3362
8.96589
7.59218
6.2156
4.83671
3.45605
2.07413
0.691459
-252.458
-238.916
-225.683
-212.769
-200.184
-187.933
-176.024
-164.461
-153.247
-142.386
-131.878
-121.725
-111.927
-102.481
-93.3867
-84.6416
-76.2423
-68.1853
-60.4662
-53.0804
-46.0228
-39.288
-32.87
-26.7627
-20.9596
-15.454
-10.2391
-5.3077
-0.652606
3.73353
7.85814
11.7287
15.3529
18.7381
21.892
24.8222
27.5361
30.0413
32.3452
34.4551
36.3784
38.1221
39.6933
41.099
42.346
43.4409
44.3904
45.2006
45.8781
46.4287
46.8584
47.173
47.3781
47.479
47.4812
47.3896
47.2092
46.9447
46.6007
46.1817
45.6918
45.1352
44.5158
43.8373
43.1034
42.3174
41.4827
40.6024
39.6795
38.7168
37.7171
36.6829
35.6166
34.5207
33.3971
32.2481
31.0755
29.8812
28.6668
27.4342
26.1846
24.9196
23.6406
22.3486
21.0451
19.7309
18.4071
17.0748
15.7347
14.3878
13.0347
11.6762
10.3131
8.94587
7.57523
6.20172
4.82591
3.44833
2.0695
0.689915
-251.831
-238.323
-225.122
-212.241
-199.686
-187.466
-175.586
-164.052
-152.866
-142.032
-131.551
-121.423
-111.648
-102.226
-93.1547
-84.4313
-76.0529
-68.0158
-60.3159
-52.9485
-45.9085
-39.1903
-32.7883
-26.6962
-20.9075
-15.4156
-10.2137
-5.2945
-0.650977
3.72426
7.83862
11.6996
15.3147
18.6915
21.8376
24.7605
27.4677
29.9667
32.2648
34.3695
36.288
38.0274
39.5947
40.9969
42.2408
43.333
44.2801
45.0883
45.7641
46.3133
46.7419
47.0558
47.2603
47.3611
47.3632
47.2718
47.0919
46.828
46.4849
46.0669
45.5783
45.0231
44.4052
43.7284
42.9963
42.2122
41.3796
40.5015
39.5809
38.6206
37.6234
36.5917
35.5281
34.4349
33.3141
32.1679
30.9983
29.8069
28.5956
27.366
26.1195
24.8577
23.5818
22.2931
20.9928
19.6819
18.3614
17.0324
15.6956
14.352
13.0023
11.6472
10.2874
8.92364
7.5564
6.18631
4.81392
3.43976
2.06435
0.688201
-251.142
-237.67
-224.506
-211.66
-199.139
-186.953
-175.106
-163.603
-152.448
-141.643
-131.19
-121.09
-111.343
-101.946
-92.8996
-84.2001
-75.8447
-67.8296
-60.1508
-52.8036
-45.7828
-39.0831
-32.6985
-26.6231
-20.8503
-15.3734
-10.1857
-5.28
-0.649186
3.71407
7.81717
11.6676
15.2728
18.6404
21.7778
24.6927
27.3925
29.8846
32.1765
34.2754
36.1887
37.9233
39.4863
40.8847
42.1252
43.2144
44.1588
44.9649
45.6388
46.1865
46.614
46.9269
47.1309
47.2314
47.2335
47.1424
46.9629
46.6998
46.3577
45.9408
45.4535
44.8998
44.2836
43.6087
42.8785
42.0967
41.2663
40.3906
39.4725
38.5149
37.5204
36.4916
35.4309
34.3406
33.2229
32.0799
30.9134
29.7253
28.5173
27.2911
26.048
24.7897
23.5173
22.2321
20.9353
19.628
18.3111
16.9857
15.6526
14.3127
12.9667
11.6153
10.2593
8.89921
7.53571
6.16937
4.80074
3.43035
2.0587
0.686317
-250.39
-236.959
-223.834
-211.026
-198.544
-186.393
-174.582
-163.113
-151.992
-141.219
-130.798
-120.728
-111.01
-101.641
-92.6217
-83.9482
-75.6177
-67.6267
-59.9708
-52.6456
-45.6458
-38.9661
-32.6007
-26.5434
-20.7879
-15.3274
-10.1552
-5.2642
-0.647239
3.70296
7.79379
11.6327
15.2271
18.5846
21.7127
24.6188
27.3105
29.7952
32.0802
34.1729
36.0804
37.8098
39.3682
40.7624
41.9991
43.0851
44.0267
44.8304
45.5022
46.0483
46.4745
46.7865
46.9899
47.0901
47.0922
47.0014
46.8224
46.5601
46.219
45.8034
45.3175
44.7655
44.1511
43.4782
42.7502
41.9707
41.1428
40.2698
39.3544
38.3996
37.4081
36.3824
35.3249
34.2379
33.1235
31.9839
30.8209
29.6364
28.432
27.2094
25.9701
24.7155
23.4469
22.1656
20.8726
19.5692
18.2563
16.9349
15.6058
14.2699
12.9279
11.5806
10.2286
8.87258
7.51317
6.15092
4.78638
3.42008
2.05254
0.684263
-249.577
-236.189
-223.107
-210.341
-197.899
-185.788
-174.015
-162.584
-151.498
-140.761
-130.373
-120.336
-110.649
-101.311
-92.3209
-83.6756
-75.3722
-67.4071
-59.7761
-52.4746
-45.4976
-38.8396
-32.4948
-26.4572
-20.7204
-15.2776
-10.1222
-5.2471
-0.645133
3.69094
7.76848
11.5949
15.1777
18.5243
21.6422
24.5389
27.2218
29.6985
31.9761
34.0619
35.9632
37.687
39.2403
40.63
41.8627
42.9452
43.8837
44.6848
45.3544
45.8988
46.3236
46.6346
46.8373
46.9372
46.9393
46.8487
46.6704
46.4089
46.0689
45.6546
45.1703
44.6201
44.0077
43.337
42.6114
41.8344
41.0092
40.139
39.2266
38.2749
37.2866
36.2642
35.2101
34.1267
33.0159
31.88
30.7208
29.5401
28.3397
27.121
25.8858
24.6352
23.3707
22.0936
20.8049
19.5057
18.1971
16.8799
15.5551
14.2235
12.8859
11.543
10.1954
8.84377
7.48877
6.13094
4.77083
3.40897
2.04588
0.682041
-248.702
-235.362
-222.325
-209.604
-197.205
-185.137
-173.405
-162.014
-150.967
-140.267
-129.916
-119.914
-110.261
-100.956
-91.9973
-83.3823
-75.108
-67.1708
-59.5666
-52.2907
-45.3381
-38.7034
-32.3809
-26.3645
-20.6477
-15.2241
-10.0867
-5.2287
-0.642864
3.67801
7.74126
11.5543
15.1245
18.4593
21.5663
24.4529
27.1264
29.5944
31.864
33.9425
35.8372
37.5549
39.1028
40.4876
41.716
42.7946
43.7299
44.5282
45.1955
45.7379
46.1612
46.4711
46.6732
46.7726
46.7748
46.6845
46.5068
46.2462
45.9074
45.4946
45.012
44.4637
43.8535
43.1851
42.4621
41.6878
40.8655
39.9983
39.0891
38.1408
37.1559
36.1371
35.0867
34.007
32.9002
31.7683
30.6131
29.4366
28.2403
27.026
25.795
24.5489
23.2888
22.0161
20.7319
19.4373
18.1333
16.8207
15.5006
14.1737
12.8407
11.5025
10.1596
8.81277
7.46252
6.10945
4.75411
3.39703
2.03871
0.67965
-247.766
-234.476
-221.488
-208.815
-196.463
-184.44
-172.752
-161.404
-150.399
-139.739
-129.427
-119.463
-109.846
-100.576
-91.651
-83.0684
-74.8253
-66.918
-59.3424
-52.0938
-45.1674
-38.5577
-32.259
-26.2652
-20.57
-15.1668
-10.0488
-5.20901
-0.640434
3.66418
7.71213
11.5108
15.0675
18.3899
21.4851
24.3608
27.0243
29.483
31.7441
33.8148
35.7023
37.4136
38.9556
40.3352
41.559
42.6336
43.5653
44.3606
45.0254
45.5657
45.9875
46.2962
46.4975
46.5966
46.5987
46.5088
46.3317
46.0722
45.7346
45.3233
44.8426
44.2963
43.6884
43.0225
42.3022
41.5309
40.7117
39.8477
38.942
37.9972
37.0161
36.0011
34.9547
33.879
32.7764
31.6487
30.4979
29.3258
28.134
26.9242
25.6979
24.4565
23.2012
21.9333
20.6539
19.3641
18.065
16.7574
15.4423
14.1203
12.7924
11.4592
10.1214
8.7796
7.43443
6.08645
4.73621
3.38424
2.03103
0.677092
-246.769
-233.532
-220.597
-207.974
-195.672
-183.698
-172.057
-160.754
-149.793
-139.177
-128.906
-118.982
-109.404
-100.171
-91.2821
-82.7341
-74.5241
-66.6486
-59.1035
-51.8842
-44.9856
-38.4025
-32.1292
-26.1595
-20.4872
-15.1057
-10.0083
-5.18803
-0.637845
3.64944
7.6811
11.4645
15.0069
18.3158
21.3987
24.2628
26.9156
29.3643
31.6163
33.6787
35.5586
37.263
38.7988
40.1728
41.3917
42.462
43.39
44.182
44.8441
45.3823
45.8024
46.1099
46.3103
46.409
46.4111
46.3216
46.1452
45.8867
45.5505
45.1409
44.6621
44.118
43.5126
42.8494
42.1319
41.3637
40.5478
39.6873
38.7852
37.8443
36.8671
35.8562
34.814
33.7427
32.6445
31.5213
30.3751
29.2077
28.0208
26.8159
25.5945
24.358
23.1078
21.845
20.5708
19.2862
17.9923
16.69
15.3801
14.0635
12.7409
11.4131
10.0806
8.74426
7.4045
6.06195
4.71715
3.37062
2.02286
0.674366
-245.711
-232.53
-219.651
-207.082
-194.833
-182.91
-171.319
-160.065
-149.151
-138.58
-128.353
-118.472
-108.935
-99.7418
-90.8907
-82.3793
-74.2045
-66.3628
-58.85
-51.6617
-44.7927
-38.2379
-31.9914
-26.0473
-20.3993
-15.0409
-9.96537
-5.16578
-0.635101
3.6338
7.64817
11.4153
14.9426
18.2373
21.3069
24.1588
26.8002
29.2384
31.4807
33.5343
35.4061
37.1032
38.6325
40.0006
41.2142
42.2799
43.2039
43.9925
44.6518
45.1877
45.606
45.9121
46.1117
46.21
46.2121
46.123
45.9474
45.69
45.3552
44.9473
44.4706
43.9288
43.326
42.6656
41.9513
41.1863
40.3739
39.5172
38.6189
37.682
36.709
35.7024
34.6647
33.598
32.5045
31.3861
30.2449
29.0825
27.9006
26.7009
25.4847
24.2536
23.0087
21.7513
20.4826
19.2035
17.9151
16.6184
15.3142
14.0032
12.6863
11.3641
10.0374
8.70676
7.37275
6.03596
4.69692
3.35616
2.01418
0.671475
-244.592
-231.472
-218.651
-206.14
-193.946
-182.077
-170.539
-159.336
-148.472
-137.949
-127.769
-117.932
-108.439
-99.2876
-90.4769
-82.0042
-73.8667
-66.0607
-58.5821
-51.4264
-44.5888
-38.0638
-31.8457
-25.9287
-20.3064
-14.9724
-9.91999
-5.14225
-0.632202
3.61726
7.61335
11.3633
14.8745
18.1543
21.2099
24.0488
26.6781
29.1053
31.3374
33.3816
35.2449
36.9343
38.4566
39.8185
41.0266
42.0874
43.0072
43.7922
44.4485
44.982
45.3983
45.7031
45.9018
45.9996
46.0017
45.913
45.7382
45.4819
45.1487
44.7427
44.2681
43.7288
43.1287
42.4713
41.7603
40.9988
40.1901
39.3372
38.4431
37.5104
36.5418
35.5399
34.5068
33.445
32.3565
31.2432
30.1072
28.9501
27.7736
26.5793
25.3687
24.1431
22.9039
21.6523
20.3893
19.1161
17.8336
16.5427
15.2444
13.9394
12.6285
11.3124
9.99172
8.66712
7.33918
6.00848
4.67554
3.34088
2.00501
0.668417
-243.413
-230.356
-217.597
-205.146
-193.011
-181.199
-169.717
-158.568
-147.756
-137.284
-127.153
-117.364
-107.916
-98.809
-90.0407
-81.6089
-73.5106
-65.7422
-58.2997
-51.1785
-44.3738
-37.8802
-31.6922
-25.8037
-20.2085
-14.9002
-9.87216
-5.11745
-0.629149
3.59983
7.57666
11.3086
14.8028
18.0668
21.1077
23.9328
26.5495
28.965
31.1863
33.2207
35.075
36.7562
38.2712
39.6265
40.8288
41.8845
42.7999
43.5811
44.2343
44.7651
45.1794
45.4828
45.6805
45.7779
45.7799
45.6916
45.5177
45.2627
44.931
44.527
44.0547
43.518
42.9208
42.2666
41.5589
40.8011
39.9963
39.1476
38.2577
37.3296
36.3657
35.3685
34.3405
33.2838
32.2005
31.0926
29.962
28.8105
27.6397
26.4512
25.2464
24.0267
22.7935
21.5479
20.291
19.0239
17.7476
16.463
15.1709
13.8722
12.5676
11.2579
9.94355
8.62533
7.3038
5.97951
4.653
3.32477
1.99535
0.665195
-242.174
-229.183
-216.489
-204.101
-192.028
-180.277
-168.853
-157.761
-147.004
-136.585
-126.506
-116.766
-107.367
-98.306
-89.5823
-81.1934
-73.1363
-65.4075
-58.0029
-50.918
-44.1479
-37.6874
-31.5309
-25.6723
-20.1057
-14.8244
-9.8219
-5.09139
-0.625942
3.58151
7.53809
11.251
14.7275
17.9748
21.0002
23.811
26.4144
28.8175
31.0276
33.0515
34.8964
36.5691
38.0763
39.4248
40.6209
41.6713
42.582
43.3593
44.0091
44.5372
44.9494
45.2512
45.4479
45.5448
45.5469
45.459
45.2859
45.0322
44.7023
44.3003
43.8304
43.2965
42.7023
42.0514
41.3474
40.5934
39.7927
38.9483
38.063
37.1395
36.1805
35.1885
34.1657
33.1143
32.0365
30.9343
29.8095
28.6638
27.499
26.3165
25.1179
23.9044
22.6775
21.4382
20.1877
18.9271
17.6572
16.3792
15.0937
13.8016
12.5037
11.2005
9.89293
8.58142
7.26662
5.94907
4.62931
3.30785
1.98519
0.661808
-240.875
-227.954
-215.328
-203.007
-190.998
-179.31
-167.947
-156.915
-146.216
-135.853
-125.827
-116.14
-106.791
-97.7787
-89.1018
-80.7579
-72.7441
-65.0567
-57.6918
-50.6449
-43.9111
-37.4853
-31.3617
-25.5346
-19.9978
-14.7449
-9.76921
-5.06408
-0.622579
3.5623
7.49766
11.1907
14.6485
17.8784
20.8876
23.6833
26.2727
28.663
30.8611
32.8743
34.7093
36.373
37.8721
39.2133
40.4031
41.4477
42.3536
43.1267
43.773
44.2983
44.7083
45.0085
45.2042
45.3005
45.3026
45.2152
45.043
44.7907
44.4625
44.0627
43.5953
43.0642
42.4732
41.8259
41.1256
40.3757
39.5793
38.7394
37.8588
36.9403
35.9865
34.9997
33.9824
32.9367
31.8647
30.7684
29.6496
28.5101
27.3515
26.1754
24.9831
23.7762
22.5558
21.3232
20.0794
18.8255
17.5625
16.2913
15.0127
13.7276
12.4366
11.1405
9.83986
8.53539
7.22764
5.91716
4.60448
3.29011
1.97454
0.658259
-239.516
-226.668
-214.114
-201.862
-189.921
-178.299
-167
-156.03
-145.391
-135.086
-125.118
-115.485
-106.189
-97.2273
-88.5993
-80.3025
-72.3338
-64.6898
-57.3664
-50.3592
-43.6635
-37.2739
-31.1849
-25.3906
-19.885
-14.6617
-9.71411
-5.03552
-0.619062
3.54222
7.45538
11.1276
14.5659
17.7776
20.7698
23.5497
26.1245
28.5013
30.6871
32.6889
34.5135
36.1678
37.6585
38.9922
40.1752
41.214
42.1147
42.8835
43.5262
44.0485
44.4562
44.7547
44.9493
45.0451
45.0471
44.9602
44.789
44.5381
44.2118
43.8142
43.3494
42.8214
42.2337
41.59
40.8937
40.148
39.3561
38.5209
37.6453
36.732
35.7835
34.8023
33.7908
32.751
31.685
30.5949
29.4824
28.3493
27.1972
26.0277
24.8423
23.6421
22.4286
21.2029
19.9662
18.7194
17.4635
16.1994
14.9281
13.6502
12.3665
11.0776
9.78437
8.48726
7.18688
5.88379
4.57851
3.27155
1.9634
0.654546
-238.099
-225.327
-212.847
-200.667
-188.797
-177.244
-166.012
-155.106
-144.531
-134.287
-124.377
-114.802
-105.56
-96.6519
-88.075
-79.8273
-71.9057
-64.3069
-57.0269
-50.0612
-43.4051
-37.0533
-31.0003
-25.2404
-19.7673
-14.5749
-9.65662
-5.00571
-0.615393
3.52126
7.41127
11.0617
14.4797
17.6724
20.6469
23.4104
25.9699
28.3327
30.5055
32.4954
34.3093
35.9538
37.4357
38.7614
39.9375
40.9701
41.8655
42.6297
43.2686
43.7879
44.1931
44.4898
44.6832
44.7785
44.7805
44.6941
44.524
44.2745
43.9501
43.5549
43.0929
42.568
41.9838
41.3439
40.6517
39.9104
39.1232
38.2929
37.4225
36.5146
35.5718
34.5964
33.5908
32.5571
31.4975
30.4138
29.3079
28.1815
27.0363
25.8737
24.6952
23.5022
22.2959
21.0775
19.848
18.6086
17.3601
16.1036
14.8397
13.5694
12.2933
11.0121
9.72647
8.43703
7.14435
5.84897
4.55141
3.25219
1.95178
0.650673
-236.623
-223.93
-211.527
-199.423
-187.627
-176.145
-164.982
-154.145
-143.634
-133.454
-123.606
-114.09
-104.906
-96.0526
-87.5289
-79.3323
-71.4599
-63.9082
-56.6733
-49.7508
-43.1359
-36.8235
-30.8081
-25.0839
-19.6448
-14.4846
-9.59674
-4.97467
-0.611573
3.49943
7.36532
10.9931
14.3899
17.5628
20.5189
23.2652
25.8089
28.157
30.3164
32.294
34.0966
35.7309
37.2036
38.5211
39.6898
40.7161
41.6059
42.3654
43.0003
43.5164
43.9191
44.214
44.4062
44.5008
44.5029
44.417
44.2479
44
43.6776
43.2849
42.8257
42.304
41.7235
41.0875
40.3996
39.6629
38.8806
38.0555
37.1905
36.2882
35.3512
34.3819
33.3825
32.3553
31.3022
30.2252
29.1262
28.0068
26.8687
25.7133
24.5421
23.3565
22.1577
20.9468
19.725
18.4932
17.2525
16.0037
14.7477
13.4852
12.217
10.9438
9.66616
8.38472
7.10005
5.8127
4.52319
3.23203
1.93968
0.646638
-235.088
-222.478
-210.155
-198.13
-186.41
-175.002
-163.912
-153.145
-142.703
-132.589
-122.804
-113.35
-104.225
-95.4297
-86.9612
-78.8178
-70.9965
-63.4937
-56.3058
-49.4282
-42.8562
-36.5847
-30.6083
-24.9212
-19.5174
-14.3906
-9.5345
-4.9424
-0.607602
3.47674
7.31756
10.9218
14.2966
17.4489
20.3858
23.1143
25.6415
27.9744
30.1198
32.0845
33.8754
35.4992
36.9623
38.2713
39.4324
40.452
41.3361
42.0906
42.7214
43.2341
43.6343
43.9272
44.1182
44.2122
44.2142
44.1289
43.9609
43.7146
43.3943
43.0041
42.548
42.0297
41.4529
40.8211
40.1376
39.4057
38.6284
37.8087
36.9493
36.0529
35.1219
34.1589
33.166
32.1454
31.0992
30.0292
28.9373
27.8252
26.6944
25.5465
24.3829
23.205
22.0139
20.8109
19.597
18.3733
17.1406
15.8999
14.6521
13.3978
12.1378
10.8728
9.60347
8.33034
7.054
5.775
4.49386
3.21106
1.9271
0.642445
-233.495
-220.97
-208.731
-196.788
-185.147
-173.817
-162.802
-152.107
-141.736
-131.691
-121.972
-112.582
-103.519
-94.7832
-86.3721
-78.2838
-70.5155
-63.0636
-55.9243
-49.0933
-42.5658
-36.3368
-30.4009
-24.7523
-19.3851
-14.2931
-9.4699
-4.90892
-0.603483
3.45319
7.26799
10.8478
14.1997
17.3307
20.2477
22.9578
25.4678
27.7849
29.9157
31.8672
33.6459
35.2587
36.7119
38.012
39.1653
40.178
41.0561
41.8055
42.432
42.9412
43.3387
43.6296
43.8193
43.9127
43.9147
43.83
43.6631
43.4185
43.1004
42.7128
42.2597
41.7449
41.172
40.5445
39.8657
39.1387
38.3667
37.5526
36.699
35.8086
34.884
33.9275
32.9413
31.9277
30.8885
29.8258
28.7413
27.6366
26.5135
25.3735
24.2178
23.0478
21.8648
20.6699
19.4643
18.2488
17.0245
15.7922
14.5528
13.307
12.0556
10.7992
9.53841
8.2739
7.00621
5.73588
4.46341
3.18931
1.91405
0.638092
-231.845
-219.409
-207.256
-195.397
-183.839
-172.588
-161.651
-151.032
-140.734
-130.76
-121.11
-111.786
-102.788
-94.1133
-85.7617
-77.7306
-70.0171
-62.6179
-55.5291
-48.7463
-42.265
-36.08
-30.1861
-24.5774
-19.2481
-14.1921
-9.40297
-4.87422
-0.599216
3.42879
7.21662
10.7712
14.0994
17.2082
20.1046
22.7955
25.2878
27.5885
29.7043
31.6419
33.4081
35.0095
36.4524
37.7433
38.8885
39.894
40.7659
41.51
42.1321
42.6378
43.0324
43.3213
43.5096
43.6024
43.6043
43.5202
43.3545
43.1116
42.7957
42.4109
41.961
41.4499
40.881
40.258
39.5839
38.8621
38.0956
37.2872
36.4396
35.5555
34.6375
33.6877
32.7085
31.702
30.6702
29.615
28.5381
27.4413
26.3262
25.1941
24.0466
22.8849
21.7103
20.5238
19.3267
18.1198
16.9042
15.6806
14.45
13.213
11.9704
10.7228
9.471
8.21543
6.9567
5.69534
4.43187
3.16677
1.90052
0.633582
-230.138
-217.793
-205.73
-193.958
-182.485
-171.317
-160.461
-149.92
-139.698
-129.797
-120.218
-110.963
-102.031
-93.4202
-85.1301
-77.1581
-69.5015
-62.1567
-55.1201
-48.3873
-41.9537
-35.8143
-29.9637
-24.3964
-19.1064
-14.0876
-9.33372
-4.83832
-0.594802
3.40354
7.16348
10.6919
13.9956
17.0815
19.9565
22.6276
25.1016
27.3853
29.4855
31.4089
33.1621
34.7516
36.184
37.4654
38.6021
39.6002
40.4657
41.2043
41.8218
42.3237
42.7155
43.0022
43.1892
43.2812
43.2832
43.1997
43.0352
42.7941
42.4806
42.0986
41.652
41.1446
40.58
39.9615
39.2924
38.5759
37.815
37.0126
36.1712
35.2937
34.3824
33.4396
32.4676
31.4685
30.4443
29.3969
28.328
27.2392
26.1323
25.0086
23.8695
22.7164
21.5504
20.3727
19.1844
17.9864
16.7797
15.5651
14.3435
13.1157
11.8822
10.6439
9.40125
8.15492
6.90546
5.6534
4.39923
3.14345
1.88652
0.628916
-228.374
-216.123
-204.153
-192.471
-181.086
-170.004
-159.231
-148.771
-138.627
-128.802
-119.297
-110.113
-101.249
-92.704
-84.4775
-76.5666
-68.9687
-61.6803
-54.6976
-48.0164
-41.6321
-35.5398
-29.734
-24.2094
-18.9599
-13.9796
-9.26217
-4.80123
-0.590243
3.37745
7.10856
10.6099
13.8883
16.9505
19.8036
22.4542
24.9092
27.1754
29.2595
31.1681
32.9079
34.4852
35.9066
37.1782
38.3062
39.2966
40.1555
40.8884
41.5012
41.9993
42.388
42.6726
42.8581
42.9495
42.9514
42.8685
42.7053
42.4661
42.1549
41.7758
41.3327
40.8292
40.2689
39.6551
38.9912
38.2802
37.5251
36.7288
35.894
35.0231
34.1188
33.1833
32.2187
31.2273
30.2109
29.1715
28.1108
27.0304
25.9319
24.8169
23.6865
22.5422
21.3852
20.2165
19.0373
17.8485
16.651
15.4458
14.2336
13.0151
11.7911
10.5623
9.32918
8.09241
6.85253
5.61006
4.36551
3.11935
1.87206
0.624095
-226.553
-214.4
-202.525
-190.936
-179.642
-168.649
-157.961
-147.585
-137.522
-127.775
-118.346
-109.235
-100.441
-91.965
-83.804
-75.9562
-68.4189
-61.1885
-54.2615
-47.6336
-41.3002
-35.2564
-29.497
-24.0164
-18.8088
-13.8681
-9.18833
-4.76296
-0.585538
3.35052
7.05189
10.5253
13.7775
16.8154
19.6457
22.2752
24.7106
26.9587
29.0262
30.9197
32.6455
34.2103
35.6203
36.8818
38.0008
38.9834
39.8354
40.5625
41.1704
41.6645
42.0501
42.3324
42.5164
42.6071
42.609
42.5268
42.3649
42.1275
41.8189
41.4428
41.0032
40.5037
39.9479
39.339
38.6804
37.975
37.226
36.436
35.6078
34.7439
33.8468
32.9187
31.9619
30.9784
29.9701
28.939
27.8867
26.8149
25.7252
24.619
23.4977
22.3625
21.2147
20.0554
18.8855
17.7062
16.5183
15.3227
14.1201
12.9114
11.6971
10.4781
9.2548
8.02789
6.7979
5.56534
4.3307
3.09448
1.85714
0.61912
-224.677
-212.625
-200.848
-189.355
-178.154
-167.252
-156.653
-146.362
-136.383
-126.717
-117.366
-108.33
-99.6095
-91.2033
-83.1099
-75.3271
-67.8522
-60.6817
-53.8121
-47.2391
-40.9582
-34.9644
-29.2527
-23.8175
-18.653
-13.7533
-9.11223
-4.72351
-0.580689
3.32277
6.99348
10.4381
13.6634
16.6761
19.483
22.0907
24.5059
26.7354
28.7858
30.6636
32.3751
33.927
35.3253
36.5763
37.686
38.6605
39.5054
40.2265
40.8294
41.3194
41.7018
41.9818
42.1643
42.2542
42.2561
42.1745
42.014
41.7786
41.4725
41.0996
40.6636
40.1682
39.617
39.0132
38.36
37.6605
36.9176
36.1342
35.3129
34.4562
33.5664
32.6461
31.6971
30.7218
29.7219
28.6993
27.6557
26.5928
25.5121
24.4151
23.3031
22.1773
21.039
19.8892
18.7291
17.5596
16.3815
15.1958
14.0032
12.8044
11.6003
10.3913
9.17815
7.9614
6.74159
5.51924
4.29483
3.06885
1.84175
0.613992
-222.745
-210.796
-199.121
-187.727
-176.622
-165.814
-155.306
-145.104
-135.21
-125.627
-116.356
-107.398
-98.753
-90.4191
-82.3953
-74.6794
-67.2687
-60.16
-53.3494
-46.8329
-40.606
-34.6638
-29.0012
-23.6127
-18.4926
-13.635
-9.03388
-4.68289
-0.575697
3.2942
6.93335
10.3484
13.5459
16.5327
19.3154
21.9007
24.2952
26.5056
28.5383
30.3999
32.0968
33.6352
35.0215
36.2618
37.362
38.328
39.1657
39.8806
40.4783
40.9641
41.3432
41.6208
41.8017
41.8908
41.8927
41.8119
41.6527
41.4194
41.1159
40.7462
40.3139
39.8228
39.2763
38.6777
38.0301
37.3367
36.6002
35.8235
35.0092
34.1599
33.2778
32.3653
31.4246
30.4576
29.4663
28.4525
27.4179
26.3642
25.2928
24.2052
23.1027
21.9866
20.8581
19.7182
18.5681
17.4086
16.2406
15.0651
13.8827
12.6943
11.5005
10.3019
9.09923
7.89294
6.68362
5.47178
4.2579
3.04246
1.82592
0.608712
-220.758
-208.916
-197.345
-186.052
-175.047
-164.335
-153.921
-143.81
-134.004
-124.507
-115.319
-106.44
-97.8721
-89.6125
-81.6603
-74.0133
-66.6687
-59.6233
-52.8735
-46.4152
-40.2438
-34.3546
-28.7425
-23.402
-18.3276
-13.5134
-8.9533
-4.64112
-0.570562
3.26481
6.8715
10.2561
13.4251
16.3853
19.1431
21.7054
24.0785
26.2691
28.2837
30.1287
31.8105
33.3352
34.7092
35.9383
37.0287
37.9862
38.8164
39.5249
40.1172
40.5987
40.9744
41.2495
41.4289
41.5172
41.519
41.4389
41.2812
41.0499
40.7491
40.3827
39.9543
39.4676
38.926
38.3327
37.6909
37.0036
36.2737
35.504
34.697
33.8552
32.981
32.0766
31.1443
30.1859
29.2035
28.1987
27.1733
26.129
25.0672
23.9893
22.8966
21.7905
20.672
19.5423
18.4024
17.2533
16.0958
14.9307
13.7589
12.5811
11.3979
10.21
9.01806
7.82254
6.62401
5.42297
4.21992
3.01533
1.80963
0.603283
-218.716
-206.984
-195.52
-184.332
-173.428
-162.815
-152.498
-142.48
-132.765
-123.355
-114.252
-105.456
-96.9671
-88.7839
-80.9052
-73.3289
-66.0522
-59.072
-52.3846
-45.986
-39.8716
-34.0369
-28.4767
-23.1856
-18.1582
-13.3884
-8.87051
-4.59821
-0.565288
3.23462
6.80796
10.1612
13.301
16.2337
18.9661
21.5046
23.8559
26.0262
28.0222
29.8501
31.5163
33.027
34.3882
35.606
36.6863
37.6349
38.4574
39.1594
39.7463
40.2233
40.5956
40.8681
41.0458
41.1333
41.1351
41.0558
40.8995
40.6703
40.3723
40.0093
39.5849
39.1027
38.566
37.9782
37.3424
36.6615
35.9383
35.1757
34.3761
33.5421
32.676
31.78
30.8563
29.9068
28.9334
27.9379
26.9221
25.8874
24.8354
23.7674
22.6849
21.589
20.4809
19.3616
18.2323
17.0937
15.9469
14.7926
13.6317
12.4648
11.2925
10.1156
8.93467
7.7502
6.56275
5.37283
4.1809
2.98744
1.7929
0.597704
-216.621
-205.001
-193.647
-182.566
-171.767
-161.255
-151.037
-141.115
-131.493
-122.174
-113.158
-104.446
-96.0381
-87.9334
-80.1302
-72.6264
-65.4194
-58.5061
-51.8828
-45.5454
-39.4897
-33.7108
-28.2039
-22.9635
-17.9842
-13.2602
-8.78553
-4.55416
-0.559873
3.20363
6.74274
10.0639
13.1735
16.0782
18.7844
21.2986
23.6273
25.7769
27.7537
29.5642
31.2144
32.7106
34.0588
35.2649
36.3349
37.2744
38.089