/*--------------------------------*- C++ -*----------------------------------*\
| =========                 |                                                 |
| \\      /  F ield         | OpenFOAM: The Open Source CFD Toolbox           |
|  \\    /   O peration     | Version:  2406                                  |
|   \\  /    A nd           | Website:  www.openfoam.com                      |
|    \\/     M anipulation  |                                                 |
\*---------------------------------------------------------------------------*/
FoamFile
{
    version     2.0;
    format      ascii;
    arch        "LSB;label=32;scalar=64";
    class       volVectorField;
    location    "85";
    object      flux;
}
// * * * * * * * * * * * * * * * * * * * * * * * * * * * * * * * * * * * * * //

dimensions      [0 1 -1 1 0 0 0];

internalField   nonuniform List<vector> 
20000
(
(-0.0010319 0.0993693 0)
(-0.00106169 0.0972733 0)
(-0.00108677 0.0951228 0)
(-0.00110745 0.0929265 0)
(-0.00112398 0.0906933 0)
(-0.00113653 0.088431 0)
(-0.00114537 0.0861474 0)
(-0.00115111 0.0838495 0)
(-0.00115372 0.0815433 0)
(-0.00115317 0.0792352 0)
(-0.00115001 0.0769309 0)
(-0.00114454 0.0746353 0)
(-0.00113682 0.0723529 0)
(-0.00112696 0.0700883 0)
(-0.00111517 0.0678454 0)
(-0.00110168 0.0656279 0)
(-0.00108669 0.063439 0)
(-0.00107034 0.0612814 0)
(-0.00105275 0.0591578 0)
(-0.00103405 0.0570707 0)
(-0.00101436 0.0550219 0)
(-0.00099383 0.0530135 0)
(-0.000972568 0.0510468 0)
(-0.000950692 0.0491234 0)
(-0.000928309 0.0472443 0)
(-0.000905514 0.0454104 0)
(-0.000882395 0.0436225 0)
(-0.000859034 0.0418811 0)
(-0.000835509 0.0401866 0)
(-0.00081189 0.0385392 0)
(-0.000788243 0.0369392 0)
(-0.000764629 0.0353864 0)
(-0.000741104 0.0338809 0)
(-0.000717721 0.0324222 0)
(-0.000694527 0.0310102 0)
(-0.000671565 0.0296443 0)
(-0.000648874 0.0283241 0)
(-0.00062649 0.0270489 0)
(-0.000604444 0.0258183 0)
(-0.000582764 0.0246313 0)
(-0.000561476 0.0234873 0)
(-0.000540602 0.0223855 0)
(-0.000520161 0.0213251 0)
(-0.000500169 0.020305 0)
(-0.00048064 0.0193245 0)
(-0.000461587 0.0183826 0)
(-0.000443018 0.0174783 0)
(-0.000424942 0.0166106 0)
(-0.000407364 0.0157786 0)
(-0.000390287 0.0149813 0)
(-0.000373714 0.0142176 0)
(-0.000357647 0.0134865 0)
(-0.000342084 0.0127871 0)
(-0.000327023 0.0121183 0)
(-0.000312462 0.0114791 0)
(-0.000298397 0.0108685 0)
(-0.000284822 0.0102855 0)
(-0.000271733 0.00972926 0)
(-0.000259122 0.00919868 0)
(-0.000246983 0.00869284 0)
(-0.000235308 0.00821081 0)
(-0.000224088 0.00775167 0)
(-0.000213315 0.00731451 0)
(-0.00020298 0.00689846 0)
(-0.000193074 0.00650264 0)
(-0.000183587 0.00612621 0)
(-0.000174509 0.00576834 0)
(-0.000165831 0.00542822 0)
(-0.000157543 0.00510505 0)
(-0.000149634 0.00479808 0)
(-0.000142095 0.00450655 0)
(-0.000134915 0.00422974 0)
(-0.000128085 0.00396693 0)
(-0.000121596 0.00371743 0)
(-0.000115437 0.00348057 0)
(-0.000109598 0.00325571 0)
(-0.000104072 0.00304221 0)
(-9.88485e-05 0.00283945 0)
(-9.39188e-05 0.00264684 0)
(-8.92746e-05 0.0024638 0)
(-8.49076e-05 0.00228976 0)
(-8.081e-05 0.00212419 0)
(-7.69741e-05 0.00196654 0)
(-7.33927e-05 0.00181631 0)
(-7.00588e-05 0.00167299 0)
(-6.69658e-05 0.00153609 0)
(-6.41076e-05 0.00140514 0)
(-6.14783e-05 0.00127968 0)
(-5.90725e-05 0.00115924 0)
(-5.68851e-05 0.0010434 0)
(-5.49116e-05 0.000931717 0)
(-5.31476e-05 0.000823768 0)
(-5.15893e-05 0.00071914 0)
(-5.02333e-05 0.000617424 0)
(-4.90766e-05 0.000518219 0)
(-4.81166e-05 0.00042113 0)
(-4.73512e-05 0.000325765 0)
(-4.67787e-05 0.000231737 0)
(-4.63977e-05 0.000138661 0)
(-4.62074e-05 4.6157e-05 0)
(-0.00309545 0.0993448 0)
(-0.00318479 0.0972492 0)
(-0.00326007 0.0950992 0)
(-0.00332206 0.0929035 0)
(-0.00337149 0.0906709 0)
(-0.00340932 0.0884093 0)
(-0.00343609 0.0861262 0)
(-0.00345304 0.0838287 0)
(-0.00346066 0.0815232 0)
(-0.00345921 0.0792157 0)
(-0.00344986 0.0769119 0)
(-0.0034334 0.0746168 0)
(-0.00341016 0.072335 0)
(-0.00338056 0.070071 0)
(-0.00334522 0.0678287 0)
(-0.00330479 0.0656118 0)
(-0.00325983 0.0634233 0)
(-0.00321077 0.0612663 0)
(-0.00315799 0.0591432 0)
(-0.00310188 0.0570566 0)
(-0.00304284 0.0550083 0)
(-0.00298124 0.0530004 0)
(-0.00291746 0.0510343 0)
(-0.00285184 0.0491113 0)
(-0.0027847 0.0472327 0)
(-0.00271632 0.0453992 0)
(-0.00264697 0.0436117 0)
(-0.00257689 0.0418707 0)
(-0.00250632 0.0401766 0)
(-0.00243547 0.0385297 0)
(-0.00236453 0.0369301 0)
(-0.0022937 0.0353777 0)
(-0.00222313 0.0338725 0)
(-0.00215299 0.0324142 0)
(-0.00208341 0.0310025 0)
(-0.00201453 0.029637 0)
(-0.00194646 0.0283171 0)
(-0.00187932 0.0270423 0)
(-0.00181318 0.0258119 0)
(-0.00174815 0.0246252 0)
(-0.00168429 0.0234815 0)
(-0.00162167 0.02238 0)
(-0.00156035 0.0213198 0)
(-0.00150038 0.0203 0)
(-0.0014418 0.0193197 0)
(-0.00138465 0.0183781 0)
(-0.00132895 0.017474 0)
(-0.00127472 0.0166065 0)
(-0.00122199 0.0157747 0)
(-0.00117076 0.0149776 0)
(-0.00112105 0.0142141 0)
(-0.00107285 0.0134832 0)
(-0.00102617 0.0127839 0)
(-0.000980989 0.0121153 0)
(-0.000937309 0.0114762 0)
(-0.000895117 0.0108658 0)
(-0.000854397 0.010283 0)
(-0.000815132 0.00972686 0)
(-0.000777303 0.00919641 0)
(-0.000740888 0.00869069 0)
(-0.000705865 0.00820878 0)
(-0.000672208 0.00774975 0)
(-0.000639892 0.00731271 0)
(-0.00060889 0.00689676 0)
(-0.000579174 0.00650104 0)
(-0.000550716 0.0061247 0)
(-0.000523485 0.00576691 0)
(-0.000497453 0.00542688 0)
(-0.000472589 0.00510379 0)
(-0.000448865 0.0047969 0)
(-0.000426249 0.00450544 0)
(-0.000404712 0.0042287 0)
(-0.000384225 0.00396595 0)
(-0.000364758 0.00371651 0)
(-0.000346282 0.00347971 0)
(-0.000328768 0.00325491 0)
(-0.000312191 0.00304146 0)
(-0.000296521 0.00283875 0)
(-0.000281733 0.00264618 0)
(-0.000267802 0.00246319 0)
(-0.000254702 0.0022892 0)
(-0.00024241 0.00212366 0)
(-0.000230903 0.00196606 0)
(-0.00022016 0.00181586 0)
(-0.000210159 0.00167258 0)
(-0.000200881 0.00153571 0)
(-0.000192307 0.00140479 0)
(-0.00018442 0.00127936 0)
(-0.000177203 0.00115896 0)
(-0.000170641 0.00104314 0)
(-0.000164721 0.000931487 0)
(-0.00015943 0.000823565 0)
(-0.000154755 0.000718963 0)
(-0.000150687 0.000617272 0)
(-0.000147218 0.000518091 0)
(-0.000144338 0.000421026 0)
(-0.000142042 0.000325684 0)
(-0.000140325 0.000231679 0)
(-0.000139182 0.000138627 0)
(-0.000138611 4.61457e-05 0)
(-0.00515835 0.0992959 0)
(-0.00530725 0.0972013 0)
(-0.00543249 0.0950522 0)
(-0.00553579 0.0928577 0)
(-0.00561814 0.0906261 0)
(-0.00568125 0.0883657 0)
(-0.00572602 0.0860837 0)
(-0.0057541 0.0837873 0)
(-0.00576666 0.081483 0)
(-0.00576441 0.0791767 0)
(-0.00574895 0.076874 0)
(-0.00572145 0.0745799 0)
(-0.00568262 0.0722993 0)
(-0.00563327 0.0700364 0)
(-0.00557442 0.0677953 0)
(-0.0055071 0.0655794 0)
(-0.00543219 0.063392 0)
(-0.00535043 0.061236 0)
(-0.00526246 0.059114 0)
(-0.00516895 0.0570284 0)
(-0.00507055 0.0549812 0)
(-0.0049679 0.0529742 0)
(-0.00486163 0.0510091 0)
(-0.00475229 0.0490871 0)
(-0.0046404 0.0472094 0)
(-0.00452646 0.0453768 0)
(-0.00441089 0.0435902 0)
(-0.00429412 0.0418501 0)
(-0.00417652 0.0401568 0)
(-0.00405845 0.0385107 0)
(-0.00394024 0.0369119 0)
(-0.0038222 0.0353603 0)
(-0.00370461 0.0338558 0)
(-0.00358772 0.0323982 0)
(-0.00347178 0.0309872 0)
(-0.003357 0.0296223 0)
(-0.00324357 0.0283031 0)
(-0.00313168 0.0270289 0)
(-0.00302147 0.0257991 0)
(-0.0029131 0.0246131 0)
(-0.00280669 0.02347 0)
(-0.00270234 0.022369 0)
(-0.00260016 0.0213093 0)
(-0.00250023 0.02029 0)
(-0.00240261 0.0193102 0)
(-0.00230736 0.018369 0)
(-0.00221454 0.0174653 0)
(-0.00212419 0.0165983 0)
(-0.00203632 0.0157669 0)
(-0.00195095 0.0149702 0)
(-0.00186811 0.014207 0)
(-0.00178779 0.0134765 0)
(-0.00171 0.0127776 0)
(-0.00163471 0.0121093 0)
(-0.00156193 0.0114706 0)
(-0.00149162 0.0108604 0)
(-0.00142376 0.0102779 0)
(-0.00135833 0.00972206 0)
(-0.00129529 0.00919187 0)
(-0.00123461 0.0086864 0)
(-0.00117625 0.00820473 0)
(-0.00112016 0.00774593 0)
(-0.00106631 0.0073091 0)
(-0.00101465 0.00689335 0)
(-0.000965132 0.00649783 0)
(-0.000917708 0.00612168 0)
(-0.000872331 0.00576407 0)
(-0.000828952 0.0054242 0)
(-0.00078752 0.00510128 0)
(-0.000747985 0.00479453 0)
(-0.000710298 0.00450322 0)
(-0.00067441 0.00422661 0)
(-0.000640269 0.00396399 0)
(-0.000607829 0.00371468 0)
(-0.000577041 0.003478 0)
(-0.000547857 0.0032533 0)
(-0.000520232 0.00303996 0)
(-0.00049412 0.00283735 0)
(-0.000469478 0.00264488 0)
(-0.000446263 0.00246197 0)
(-0.000424433 0.00228807 0)
(-0.00040395 0.00212261 0)
(-0.000384776 0.00196509 0)
(-0.000366873 0.00181496 0)
(-0.000350207 0.00167175 0)
(-0.000334746 0.00153495 0)
(-0.000320459 0.0014041 0)
(-0.000307316 0.00127873 0)
(-0.00029529 0.00115839 0)
(-0.000284356 0.00104263 0)
(-0.00027449 0.000931028 0)
(-0.000265672 0.000823159 0)
(-0.000257883 0.000718608 0)
(-0.000251104 0.000616967 0)
(-0.000245322 0.000517836 0)
(-0.000240524 0.000420818 0)
(-0.000236698 0.000325524 0)
(-0.000233836 0.000231565 0)
(-0.000231931 0.000138559 0)
(-0.00023098 4.61229e-05 0)
(-0.0072199 0.0992223 0)
(-0.00742846 0.0971295 0)
(-0.0076037 0.0949819 0)
(-0.00774819 0.0927889 0)
(-0.0078635 0.090559 0)
(-0.00795175 0.0883002 0)
(-0.00801445 0.0860199 0)
(-0.00805373 0.0837253 0)
(-0.00807127 0.0814227 0)
(-0.00806822 0.079118 0)
(-0.00804662 0.076817 0)
(-0.00800807 0.0745247 0)
(-0.00795365 0.0722458 0)
(-0.00788457 0.0699846 0)
(-0.00780225 0.0677451 0)
(-0.00770806 0.0655309 0)
(-0.00760323 0.0633451 0)
(-0.00748877 0.0611907 0)
(-0.00736563 0.0590702 0)
(-0.00723473 0.0569861 0)
(-0.007097 0.0549405 0)
(-0.00695334 0.052935 0)
(-0.00680459 0.0509713 0)
(-0.00665156 0.0490507 0)
(-0.00649496 0.0471744 0)
(-0.00633548 0.0453432 0)
(-0.00617373 0.0435579 0)
(-0.00601028 0.0418191 0)
(-0.00584568 0.0401271 0)
(-0.00568043 0.0384822 0)
(-0.00551498 0.0368845 0)
(-0.00534976 0.0353341 0)
(-0.00518517 0.0338307 0)
(-0.00502157 0.0323742 0)
(-0.00485929 0.0309643 0)
(-0.00469864 0.0296004 0)
(-0.00453988 0.0282821 0)
(-0.00438327 0.0270089 0)
(-0.00422902 0.02578 0)
(-0.00407734 0.0245949 0)
(-0.0039284 0.0234526 0)
(-0.00378235 0.0223524 0)
(-0.00363933 0.0212935 0)
(-0.00349945 0.020275 0)
(-0.00336282 0.0192959 0)
(-0.00322951 0.0183554 0)
(-0.0030996 0.0174524 0)
(-0.00297313 0.016586 0)
(-0.00285014 0.0157553 0)
(-0.00273066 0.0149591 0)
(-0.00261471 0.0141965 0)
(-0.00250229 0.0134665 0)
(-0.0023934 0.0127681 0)
(-0.00228803 0.0121003 0)
(-0.00218616 0.0114621 0)
(-0.00208775 0.0108524 0)
(-0.00199277 0.0102703 0)
(-0.00190119 0.00971486 0)
(-0.00181296 0.00918506 0)
(-0.00172803 0.00867997 0)
(-0.00164634 0.00819865 0)
(-0.00156784 0.00774019 0)
(-0.00149247 0.00730368 0)
(-0.00142016 0.00688825 0)
(-0.00135085 0.00649302 0)
(-0.00128447 0.00611714 0)
(-0.00122096 0.0057598 0)
(-0.00116025 0.00542018 0)
(-0.00110226 0.0050975 0)
(-0.00104692 0.00479098 0)
(-0.000994172 0.00449988 0)
(-0.00094394 0.00422348 0)
(-0.000896156 0.00396106 0)
(-0.000850751 0.00371193 0)
(-0.000807658 0.00347542 0)
(-0.000766811 0.00325089 0)
(-0.000728145 0.0030377 0)
(-0.000691598 0.00283525 0)
(-0.000657107 0.00264292 0)
(-0.000624614 0.00246015 0)
(-0.00059406 0.00228637 0)
(-0.000565391 0.00212104 0)
(-0.000538553 0.00196363 0)
(-0.000513495 0.00181362 0)
(-0.000490169 0.00167051 0)
(-0.000468529 0.00153382 0)
(-0.000448532 0.00140306 0)
(-0.000430136 0.00127778 0)
(-0.000413303 0.00115753 0)
(-0.000398 0.00104186 0)
(-0.000384191 0.000930338 0)
(-0.000371849 0.000822549 0)
(-0.000360947 0.000718076 0)
(-0.000351459 0.00061651 0)
(-0.000343367 0.000517452 0)
(-0.00033665 0.000420507 0)
(-0.000331295 0.000325283 0)
(-0.000327289 0.000231394 0)
(-0.000324624 0.000138456 0)
(-0.000323293 4.60888e-05 0)
(-0.00927949 0.0991241 0)
(-0.00954767 0.0970336 0)
(-0.00977308 0.0948881 0)
(-0.0099587 0.0926973 0)
(-0.0101069 0.0904695 0)
(-0.0102203 0.088213 0)
(-0.0103009 0.085935 0)
(-0.0103514 0.0836426 0)
(-0.0103739 0.0813422 0)
(-0.01037 0.0790399 0)
(-0.0103423 0.0767411 0)
(-0.0102927 0.0744511 0)
(-0.0102227 0.0721744 0)
(-0.0101339 0.0699155 0)
(-0.0100282 0.0676782 0)
(-0.00990714 0.0654661 0)
(-0.00977239 0.0632825 0)
(-0.00962527 0.0611302 0)
(-0.00946697 0.0590119 0)
(-0.00929872 0.0569298 0)
(-0.0091217 0.0548862 0)
(-0.00893705 0.0528827 0)
(-0.00874588 0.050921 0)
(-0.00854919 0.0490023 0)
(-0.00834792 0.0471278 0)
(-0.00814294 0.0452984 0)
(-0.00793504 0.0435149 0)
(-0.00772497 0.0417778 0)
(-0.00751341 0.0400874 0)
(-0.00730101 0.0384442 0)
(-0.00708835 0.0368481 0)
(-0.006876 0.0352992 0)
(-0.00666445 0.0337973 0)
(-0.00645418 0.0323422 0)
(-0.00624561 0.0309337 0)
(-0.00603912 0.0295712 0)
(-0.00583507 0.0282542 0)
(-0.00563377 0.0269822 0)
(-0.00543552 0.0257546 0)
(-0.00524057 0.0245706 0)
(-0.00504913 0.0234294 0)
(-0.00486142 0.0223303 0)
(-0.0046776 0.0212725 0)
(-0.00449782 0.0202549 0)
(-0.0043222 0.0192769 0)
(-0.00415086 0.0183372 0)
(-0.00398389 0.0174352 0)
(-0.00382133 0.0165697 0)
(-0.00366326 0.0157397 0)
(-0.00350969 0.0149443 0)
(-0.00336066 0.0141825 0)
(-0.00321618 0.0134532 0)
(-0.00307622 0.0127555 0)
(-0.00294079 0.0120884 0)
(-0.00280985 0.0114507 0)
(-0.00268336 0.0108417 0)
(-0.00256129 0.0102602 0)
(-0.00244359 0.00970527 0)
(-0.00233018 0.00917599 0)
(-0.00222102 0.0086714 0)
(-0.00211603 0.00819055 0)
(-0.00201513 0.00773255 0)
(-0.00191826 0.00729647 0)
(-0.00182532 0.00688144 0)
(-0.00173624 0.0064866 0)
(-0.00165092 0.0061111 0)
(-0.00156929 0.00575411 0)
(-0.00149125 0.00541483 0)
(-0.00141672 0.00509246 0)
(-0.0013456 0.00478625 0)
(-0.0012778 0.00449544 0)
(-0.00121324 0.00421931 0)
(-0.00115182 0.00395714 0)
(-0.00109346 0.00370826 0)
(-0.00103808 0.00347199 0)
(-0.000985575 0.00324768 0)
(-0.000935879 0.0030347 0)
(-0.000888905 0.00283245 0)
(-0.000844574 0.00264031 0)
(-0.000802811 0.00245772 0)
(-0.00076354 0.00228411 0)
(-0.000726692 0.00211895 0)
(-0.000692197 0.00196169 0)
(-0.000659991 0.00181183 0)
(-0.00063001 0.00166886 0)
(-0.000602197 0.0015323 0)
(-0.000576494 0.00140168 0)
(-0.00055285 0.00127652 0)
(-0.000531215 0.00115638 0)
(-0.000511545 0.00104083 0)
(-0.000493798 0.00092942 0)
(-0.000477935 0.000821737 0)
(-0.000463922 0.000717367 0)
(-0.000451728 0.000615902 0)
(-0.000441326 0.000516941 0)
(-0.000432694 0.000420091 0)
(-0.000425811 0.000324961 0)
(-0.000420662 0.000231165 0)
(-0.000417236 0.000138319 0)
(-0.000415525 4.60433e-05 0)
(-0.0113368 0.0990016 0)
(-0.0116645 0.0969136 0)
(-0.01194 0.0947708 0)
(-0.0121667 0.0925827 0)
(-0.0123478 0.0903578 0)
(-0.0124863 0.088104 0)
(-0.0125848 0.0858288 0)
(-0.0126465 0.0835392 0)
(-0.012674 0.0812417 0)
(-0.0126693 0.0789422 0)
(-0.0126354 0.0766463 0)
(-0.0125748 0.0743591 0)
(-0.0124892 0.0720853 0)
(-0.0123808 0.0698291 0)
(-0.0122516 0.0675946 0)
(-0.0121038 0.0653852 0)
(-0.0119392 0.0632043 0)
(-0.0117594 0.0610547 0)
(-0.011566 0.058939 0)
(-0.0113604 0.0568595 0)
(-0.0111441 0.0548184 0)
(-0.0109186 0.0528174 0)
(-0.010685 0.0508581 0)
(-0.0104447 0.0489418 0)
(-0.0101988 0.0470696 0)
(-0.00994839 0.0452425 0)
(-0.0096944 0.0434611 0)
(-0.00943775 0.0417262 0)
(-0.00917928 0.0400379 0)
(-0.00891978 0.0383967 0)
(-0.00865998 0.0368026 0)
(-0.00840054 0.0352556 0)
(-0.00814209 0.0337555 0)
(-0.0078852 0.0323023 0)
(-0.00763038 0.0308954 0)
(-0.00737811 0.0295346 0)
(-0.00712882 0.0282193 0)
(-0.00688289 0.0269489 0)
(-0.00664068 0.0257228 0)
(-0.0064025 0.0245402 0)
(-0.00616862 0.0234005 0)
(-0.00593929 0.0223027 0)
(-0.00571471 0.0212462 0)
(-0.00549507 0.0202299 0)
(-0.00528052 0.019253 0)
(-0.00507119 0.0183146 0)
(-0.00486719 0.0174136 0)
(-0.0046686 0.0165492 0)
(-0.00447547 0.0157203 0)
(-0.00428786 0.0149259 0)
(-0.00410579 0.014165 0)
(-0.00392926 0.0134366 0)
(-0.00375828 0.0127398 0)
(-0.00359282 0.0120734 0)
(-0.00343284 0.0114366 0)
(-0.00327832 0.0108283 0)
(-0.00312918 0.0102475 0)
(-0.00298538 0.00969327 0)
(-0.00284683 0.00916465 0)
(-0.00271346 0.00866068 0)
(-0.00258519 0.00818044 0)
(-0.00246193 0.00772299 0)
(-0.00234357 0.00728746 0)
(-0.00223003 0.00687294 0)
(-0.00212119 0.00647859 0)
(-0.00201697 0.00610355 0)
(-0.00191724 0.005747 0)
(-0.00182189 0.00540814 0)
(-0.00173083 0.00508617 0)
(-0.00164394 0.00478034 0)
(-0.00156111 0.00448989 0)
(-0.00148224 0.00421409 0)
(-0.0014072 0.00395225 0)
(-0.0013359 0.00370368 0)
(-0.00126824 0.0034677 0)
(-0.0012041 0.00324367 0)
(-0.00114338 0.00303095 0)
(-0.00108599 0.00282895 0)
(-0.00103183 0.00263705 0)
(-0.000980809 0.00245468 0)
(-0.000932832 0.00228129 0)
(-0.000887814 0.00211633 0)
(-0.000845671 0.00195927 0)
(-0.000806324 0.00180959 0)
(-0.000769696 0.0016668 0)
(-0.000735715 0.00153041 0)
(-0.000704314 0.00139995 0)
(-0.000675427 0.00127494 0)
(-0.000648996 0.00115496 0)
(-0.000624965 0.00103954 0)
(-0.000603283 0.000928272 0)
(-0.000583902 0.000820722 0)
(-0.000566782 0.000716481 0)
(-0.000551885 0.000615141 0)
(-0.000539177 0.000516303 0)
(-0.00052863 0.000419573 0)
(-0.000520221 0.00032456 0)
(-0.000513931 0.00023088 0)
(-0.000509746 0.000138149 0)
(-0.000507655 4.59864e-05 0)
(-0.0133914 0.0988547 0)
(-0.0137784 0.0967697 0)
(-0.0141039 0.0946302 0)
(-0.0143718 0.0924454 0)
(-0.0145857 0.0902237 0)
(-0.0147492 0.0879733 0)
(-0.0148656 0.0857015 0)
(-0.0149385 0.0834153 0)
(-0.014971 0.0811211 0)
(-0.0149654 0.0788251 0)
(-0.0149254 0.0765326 0)
(-0.0148537 0.0742488 0)
(-0.0147527 0.0719783 0)
(-0.0146246 0.0697255 0)
(-0.014472 0.0674943 0)
(-0.0142974 0.0652882 0)
(-0.014103 0.0631105 0)
(-0.0138906 0.0609641 0)
(-0.0136621 0.0588515 0)
(-0.0134193 0.0567751 0)
(-0.0131638 0.054737 0)
(-0.0128974 0.052739 0)
(-0.0126215 0.0507826 0)
(-0.0123377 0.0488691 0)
(-0.0120472 0.0469998 0)
(-0.0117514 0.0451753 0)
(-0.0114514 0.0433967 0)
(-0.0111482 0.0416642 0)
(-0.0108429 0.0399785 0)
(-0.0105364 0.0383397 0)
(-0.0102295 0.0367479 0)
(-0.00992302 0.0352032 0)
(-0.00961772 0.0337055 0)
(-0.00931427 0.0322544 0)
(-0.00901327 0.0308496 0)
(-0.00871528 0.0294908 0)
(-0.00842081 0.0281774 0)
(-0.00813031 0.0269089 0)
(-0.00784421 0.0256846 0)
(-0.00756286 0.0245038 0)
(-0.00728659 0.0233657 0)
(-0.00701569 0.0222696 0)
(-0.00675041 0.0212147 0)
(-0.00649097 0.0201999 0)
(-0.00623753 0.0192245 0)
(-0.00599027 0.0182874 0)
(-0.00574929 0.0173878 0)
(-0.00551471 0.0165246 0)
(-0.00528658 0.0156969 0)
(-0.00506497 0.0149037 0)
(-0.0048499 0.014144 0)
(-0.00464138 0.0134167 0)
(-0.00443941 0.0127209 0)
(-0.00424396 0.0120555 0)
(-0.004055 0.0114196 0)
(-0.00387246 0.0108122 0)
(-0.0036963 0.0102323 0)
(-0.00352643 0.00967889 0)
(-0.00336277 0.00915105 0)
(-0.00320524 0.00864783 0)
(-0.00305372 0.0081683 0)
(-0.00290811 0.00771153 0)
(-0.00276831 0.00727664 0)
(-0.00263419 0.00686274 0)
(-0.00250563 0.00646898 0)
(-0.00238251 0.00609449 0)
(-0.0022647 0.00573847 0)
(-0.00215208 0.00540011 0)
(-0.00204452 0.00507862 0)
(-0.00194188 0.00477324 0)
(-0.00184404 0.00448322 0)
(-0.00175087 0.00420784 0)
(-0.00166224 0.00394639 0)
(-0.00157802 0.00369818 0)
(-0.00149809 0.00346256 0)
(-0.00142232 0.00323886 0)
(-0.0013506 0.00302646 0)
(-0.00128281 0.00282475 0)
(-0.00121884 0.00263314 0)
(-0.00115857 0.00245104 0)
(-0.00110189 0.00227791 0)
(-0.00104872 0.00211319 0)
(-0.000998936 0.00195636 0)
(-0.000952458 0.00180691 0)
(-0.000909192 0.00166433 0)
(-0.000869052 0.00152814 0)
(-0.00083196 0.00139787 0)
(-0.000797838 0.00127305 0)
(-0.000766617 0.00115324 0)
(-0.00073823 0.001038 0)
(-0.000712618 0.000926894 0)
(-0.000689726 0.000819505 0)
(-0.000669503 0.000715418 0)
(-0.000651905 0.000614228 0)
(-0.000636894 0.000515537 0)
(-0.000624436 0.00041895 0)
(-0.000614504 0.000324079 0)
(-0.000607074 0.000230537 0)
(-0.00060213 0.000137944 0)
(-0.00059966 4.59182e-05 0)
(-0.0154427 0.0986835 0)
(-0.015889 0.0966021 0)
(-0.0162644 0.0944663 0)
(-0.0165733 0.0922852 0)
(-0.0168199 0.0900674 0)
(-0.0170085 0.0878208 0)
(-0.0171428 0.085553 0)
(-0.0172268 0.0832707 0)
(-0.0172642 0.0809806 0)
(-0.0172579 0.0786885 0)
(-0.0172117 0.0764 0)
(-0.017129 0.0741201 0)
(-0.0170125 0.0718536 0)
(-0.0168648 0.0696047 0)
(-0.0166889 0.0673773 0)
(-0.0164875 0.0651751 0)
(-0.0162633 0.0630011 0)
(-0.0160184 0.0608584 0)
(-0.0157549 0.0587495 0)
(-0.0154749 0.0566768 0)
(-0.0151803 0.0546422 0)
(-0.014873 0.0526476 0)
(-0.0145549 0.0506946 0)
(-0.0142276 0.0487845 0)
(-0.0138926 0.0469183 0)
(-0.0135515 0.0450971 0)
(-0.0132055 0.0433215 0)
(-0.0128559 0.041592 0)
(-0.0125038 0.0399092 0)
(-0.0121503 0.0382733 0)
(-0.0117964 0.0366843 0)
(-0.011443 0.0351422 0)
(-0.011091 0.0336471 0)
(-0.010741 0.0321985 0)
(-0.0103939 0.0307962 0)
(-0.0100503 0.0294397 0)
(-0.00971072 0.0281286 0)
(-0.00937573 0.0268623 0)
(-0.00904579 0.0256401 0)
(-0.00872135 0.0244613 0)
(-0.00840276 0.0233253 0)
(-0.00809037 0.0222311 0)
(-0.00778445 0.0211779 0)
(-0.00748526 0.0201649 0)
(-0.00719301 0.0191912 0)
(-0.00690787 0.0182557 0)
(-0.00662998 0.0173577 0)
(-0.00635946 0.016496 0)
(-0.00609639 0.0156697 0)
(-0.00584083 0.0148779 0)
(-0.00559282 0.0141195 0)
(-0.00535236 0.0133934 0)
(-0.00511945 0.0126988 0)
(-0.00489406 0.0120346 0)
(-0.00467615 0.0113998 0)
(-0.00446565 0.0107935 0)
(-0.0042625 0.0102146 0)
(-0.00406661 0.00966212 0)
(-0.00387789 0.0091352 0)
(-0.00369622 0.00863285 0)
(-0.00352149 0.00815414 0)
(-0.00335358 0.00769817 0)
(-0.00319236 0.00726403 0)
(-0.00303769 0.00685085 0)
(-0.00288944 0.00645777 0)
(-0.00274747 0.00608393 0)
(-0.00261162 0.00572853 0)
(-0.00248174 0.00539076 0)
(-0.0023577 0.00506983 0)
(-0.00223934 0.00476497 0)
(-0.00212652 0.00447546 0)
(-0.00201907 0.00420055 0)
(-0.00191686 0.00393955 0)
(-0.00181974 0.00369178 0)
(-0.00172757 0.00345656 0)
(-0.00164019 0.00323324 0)
(-0.00155749 0.00302121 0)
(-0.00147931 0.00281985 0)
(-0.00140554 0.00262857 0)
(-0.00133604 0.0024468 0)
(-0.00127068 0.00227396 0)
(-0.00120936 0.00210953 0)
(-0.00115195 0.00195297 0)
(-0.00109836 0.00180378 0)
(-0.00104846 0.00166144 0)
(-0.00100218 0.00152549 0)
(-0.000959401 0.00139545 0)
(-0.000920052 0.00127085 0)
(-0.000884048 0.00115125 0)
(-0.000851314 0.0010362 0)
(-0.000821778 0.000925289 0)
(-0.000795379 0.000818085 0)
(-0.000772058 0.000714178 0)
(-0.000751765 0.000613164 0)
(-0.000734455 0.000514644 0)
(-0.000720089 0.000418224 0)
(-0.000708634 0.000323517 0)
(-0.000700066 0.000230138 0)
(-0.000694365 0.000137705 0)
(-0.000691517 4.58386e-05 0)
(-0.0174902 0.0984879 0)
(-0.0179957 0.0964106 0)
(-0.0184208 0.094279 0)
(-0.0187707 0.0921022 0)
(-0.01905 0.0898888 0)
(-0.0192637 0.0876467 0)
(-0.0194157 0.0853833 0)
(-0.0195109 0.0831057 0)
(-0.0195532 0.0808201 0)
(-0.019546 0.0785325 0)
(-0.0194937 0.0762485 0)
(-0.0194001 0.0739732 0)
(-0.0192681 0.0717112 0)
(-0.0191009 0.0694667 0)
(-0.0189017 0.0672438 0)
(-0.0186736 0.0650459 0)
(-0.0184196 0.0628762 0)
(-0.0181422 0.0607378 0)
(-0.0178438 0.0586331 0)
(-0.0175266 0.0565644 0)
(-0.017193 0.0545339 0)
(-0.016845 0.0525433 0)
(-0.0164847 0.0505941 0)
(-0.0161139 0.0486878 0)
(-0.0157346 0.0468253 0)
(-0.0153482 0.0450077 0)
(-0.0149564 0.0432356 0)
(-0.0145604 0.0415096 0)
(-0.0141617 0.0398301 0)
(-0.0137613 0.0381974 0)
(-0.0133605 0.0366115 0)
(-0.0129602 0.0350726 0)
(-0.0125615 0.0335803 0)
(-0.0121652 0.0321346 0)
(-0.011772 0.0307351 0)
(-0.0113828 0.0293813 0)
(-0.0109982 0.0280728 0)
(-0.0106188 0.026809 0)
(-0.0102451 0.0255892 0)
(-0.00987769 0.0244128 0)
(-0.00951686 0.023279 0)
(-0.00916305 0.022187 0)
(-0.00881657 0.0211359 0)
(-0.00847771 0.0201249 0)
(-0.00814671 0.0191531 0)
(-0.00782376 0.0182195 0)
(-0.00750903 0.0173233 0)
(-0.00720264 0.0164633 0)
(-0.00690469 0.0156387 0)
(-0.00661525 0.0148484 0)
(-0.00633435 0.0140915 0)
(-0.00606201 0.0133669 0)
(-0.00579822 0.0126736 0)
(-0.00554295 0.0120108 0)
(-0.00529614 0.0113772 0)
(-0.00505774 0.0107721 0)
(-0.00482766 0.0101943 0)
(-0.0046058 0.00964297 0)
(-0.00439205 0.00911709 0)
(-0.00418629 0.00861574 0)
(-0.0039884 0.00813798 0)
(-0.00379822 0.00768291 0)
(-0.00361563 0.00724963 0)
(-0.00344045 0.00683727 0)
(-0.00327255 0.00644497 0)
(-0.00311174 0.00607187 0)
(-0.00295788 0.00571718 0)
(-0.00281079 0.00538007 0)
(-0.0026703 0.00505978 0)
(-0.00253625 0.00475553 0)
(-0.00240846 0.00446658 0)
(-0.00228677 0.00419222 0)
(-0.00217101 0.00393174 0)
(-0.00206101 0.00368446 0)
(-0.00195662 0.0034497 0)
(-0.00185766 0.00322684 0)
(-0.00176399 0.00301523 0)
(-0.00167545 0.00281427 0)
(-0.0015919 0.00262336 0)
(-0.00151318 0.00244195 0)
(-0.00143916 0.00226945 0)
(-0.00136971 0.00210535 0)
(-0.00130469 0.0019491 0)
(-0.00124398 0.0018002 0)
(-0.00118748 0.00165815 0)
(-0.00113505 0.00152247 0)
(-0.0010866 0.00139268 0)
(-0.00104204 0.00126833 0)
(-0.00100126 0.00114896 0)
(-0.000964187 0.00103415 0)
(-0.000930736 0.000923455 0)
(-0.000900836 0.000816463 0)
(-0.000874424 0.000712763 0)
(-0.00085144 0.000611949 0)
(-0.000831834 0.000513624 0)
(-0.000815563 0.000417395 0)
(-0.00080259 0.000322876 0)
(-0.000792886 0.000229682 0)
(-0.000786429 0.000137432 0)
(-0.000783204 4.57478e-05 0)
(-0.0195334 0.098268 0)
(-0.0200979 0.0961953 0)
(-0.0205727 0.0940684 0)
(-0.0209634 0.0918966 0)
(-0.0212754 0.0896881 0)
(-0.021514 0.087451 0)
(-0.0216838 0.0851927 0)
(-0.0217901 0.0829201 0)
(-0.0218374 0.0806396 0)
(-0.0218294 0.0783571 0)
(-0.021771 0.0760783 0)
(-0.0216664 0.073808 0)
(-0.021519 0.071551 0)
(-0.0213322 0.0693116 0)
(-0.0211097 0.0670936 0)
(-0.0208551 0.0649006 0)
(-0.0205714 0.0627358 0)
(-0.0202616 0.0606021 0)
(-0.0199283 0.0585021 0)
(-0.0195741 0.0564381 0)
(-0.0192014 0.0544121 0)
(-0.0188128 0.0524259 0)
(-0.0184104 0.0504811 0)
(-0.0179964 0.048579 0)
(-0.0175727 0.0467207 0)
(-0.0171412 0.0449072 0)
(-0.0167036 0.043139 0)
(-0.0162614 0.0414169 0)
(-0.015816 0.0397412 0)
(-0.0153689 0.0381121 0)
(-0.0149213 0.0365298 0)
(-0.0144742 0.0349943 0)
(-0.0140289 0.0335054 0)
(-0.0135863 0.0320629 0)
(-0.0131472 0.0306665 0)
(-0.0127126 0.0293157 0)
(-0.012283 0.0280101 0)
(-0.0118593 0.0267491 0)
(-0.011442 0.0255321 0)
(-0.0110316 0.0243583 0)
(-0.0106286 0.023227 0)
(-0.0102335 0.0221374 0)
(-0.00984651 0.0210887 0)
(-0.00946807 0.02008 0)
(-0.0090984 0.0191103 0)
(-0.00873772 0.0181788 0)
(-0.00838623 0.0172846 0)
(-0.00804405 0.0164265 0)
(-0.00771129 0.0156037 0)
(-0.00738804 0.0148152 0)
(-0.00707432 0.01406 0)
(-0.00677017 0.013337 0)
(-0.00647556 0.0126453 0)
(-0.00619047 0.0119839 0)
(-0.00591483 0.0113518 0)
(-0.00564858 0.010748 0)
(-0.00539162 0.0101715 0)
(-0.00514384 0.00962143 0)
(-0.00490512 0.00909673 0)
(-0.00467533 0.0085965 0)
(-0.00445432 0.00811981 0)
(-0.00424193 0.00766575 0)
(-0.004038 0.00723345 0)
(-0.00384236 0.006822 0)
(-0.00365484 0.00643057 0)
(-0.00347526 0.00605831 0)
(-0.00330342 0.00570441 0)
(-0.00313914 0.00536806 0)
(-0.00298225 0.00504848 0)
(-0.00283253 0.00474491 0)
(-0.00268982 0.00445661 0)
(-0.00255391 0.00418286 0)
(-0.00242463 0.00392296 0)
(-0.00230178 0.00367623 0)
(-0.00218519 0.003442 0)
(-0.00207467 0.00321963 0)
(-0.00197006 0.00300849 0)
(-0.00187118 0.00280798 0)
(-0.00177786 0.00261751 0)
(-0.00168995 0.00243649 0)
(-0.00160728 0.00226439 0)
(-0.00152971 0.00210065 0)
(-0.0014571 0.00194475 0)
(-0.00138931 0.00179618 0)
(-0.0013262 0.00165445 0)
(-0.00126765 0.00151907 0)
(-0.00121354 0.00138957 0)
(-0.00116377 0.0012655 0)
(-0.00111823 0.0011464 0)
(-0.00107682 0.00103184 0)
(-0.00103946 0.000921393 0)
(-0.00100607 0.00081464 0)
(-0.000976573 0.000711171 0)
(-0.000950904 0.000610583 0)
(-0.000929008 0.000512477 0)
(-0.000910837 0.000416463 0)
(-0.000896348 0.000322155 0)
(-0.00088551 0.000229169 0)
(-0.000878299 0.000137125 0)
(-0.000874697 4.56456e-05 0)
(-0.0215717 0.0980238 0)
(-0.0221952 0.0959562 0)
(-0.0227195 0.0938347 0)
(-0.023151 0.0916682 0)
(-0.0234956 0.0894652 0)
(-0.0237591 0.0872337 0)
(-0.0239466 0.084981 0)
(-0.024064 0.082714 0)
(-0.0241162 0.0804392 0)
(-0.0241073 0.0781624 0)
(-0.0240429 0.0758892 0)
(-0.0239274 0.0736246 0)
(-0.0237646 0.0713732 0)
(-0.0235583 0.0691393 0)
(-0.0233126 0.0669269 0)
(-0.0230314 0.0647393 0)
(-0.0227181 0.0625799 0)
(-0.0223759 0.0604516 0)
(-0.0220078 0.0583568 0)
(-0.0216167 0.0562979 0)
(-0.0212051 0.0542769 0)
(-0.0207759 0.0522957 0)
(-0.0203315 0.0503557 0)
(-0.0198743 0.0484583 0)
(-0.0194065 0.0466047 0)
(-0.01893 0.0447956 0)
(-0.0184467 0.0430318 0)
(-0.0179583 0.041314 0)
(-0.0174665 0.0396424 0)
(-0.0169727 0.0380174 0)
(-0.0164783 0.036439 0)
(-0.0159847 0.0349073 0)
(-0.0154929 0.0334221 0)
(-0.0150041 0.0319832 0)
(-0.0145192 0.0305903 0)
(-0.0140392 0.0292429 0)
(-0.0135648 0.0279405 0)
(-0.0130969 0.0266827 0)
(-0.012636 0.0254687 0)
(-0.0121828 0.0242978 0)
(-0.0117377 0.0231693 0)
(-0.0113014 0.0220824 0)
(-0.010874 0.0210363 0)
(-0.0104561 0.0200301 0)
(-0.0100478 0.0190628 0)
(-0.00964953 0.0181337 0)
(-0.00926135 0.0172416 0)
(-0.00888347 0.0163857 0)
(-0.00851599 0.015565 0)
(-0.008159 0.0147784 0)
(-0.00781255 0.0140251 0)
(-0.00747665 0.0133039 0)
(-0.0071513 0.0126139 0)
(-0.00683646 0.0119542 0)
(-0.00653206 0.0113236 0)
(-0.00623803 0.0107213 0)
(-0.00595425 0.0101463 0)
(-0.00568061 0.00959753 0)
(-0.00541698 0.00907413 0)
(-0.00516321 0.00857513 0)
(-0.00491914 0.00809963 0)
(-0.00468458 0.00764671 0)
(-0.00445938 0.00721547 0)
(-0.00424333 0.00680505 0)
(-0.00403624 0.00641459 0)
(-0.00383791 0.00604326 0)
(-0.00364814 0.00569024 0)
(-0.00346672 0.00535472 0)
(-0.00329345 0.00503593 0)
(-0.00312812 0.00473312 0)
(-0.00297051 0.00444554 0)
(-0.00282042 0.00417247 0)
(-0.00267764 0.00391322 0)
(-0.00254198 0.0036671 0)
(-0.00241322 0.00343345 0)
(-0.00229117 0.00321163 0)
(-0.00217564 0.00300102 0)
(-0.00206644 0.002801 0)
(-0.00196338 0.002611 0)
(-0.0018663 0.00243044 0)
(-0.00177501 0.00225876 0)
(-0.00168934 0.00209543 0)
(-0.00160915 0.00193992 0)
(-0.00153428 0.00179172 0)
(-0.00146459 0.00165034 0)
(-0.00139993 0.00151529 0)
(-0.00134018 0.00138612 0)
(-0.00128521 0.00126235 0)
(-0.00123492 0.00114355 0)
(-0.00118919 0.00102928 0)
(-0.00114793 0.000919104 0)
(-0.00111106 0.000812616 0)
(-0.00107848 0.000709404 0)
(-0.00105013 0.000609066 0)
(-0.00102595 0.000511204 0)
(-0.00100589 0.000415429 0)
(-0.000989885 0.000321355 0)
(-0.000977916 0.000228599 0)
(-0.000969952 0.000136784 0)
(-0.000965974 4.55322e-05 0)
(-0.0236048 0.0977554 0)
(-0.024287 0.0956935 0)
(-0.0248607 0.0935778 0)
(-0.0253329 0.0914172 0)