/*--------------------------------*- C++ -*----------------------------------*\
| =========                 |                                                 |
| \\      /  F ield         | OpenFOAM: The Open Source CFD Toolbox           |
|  \\    /   O peration     | Version:  2406                                  |
|   \\  /    A nd           | Website:  www.openfoam.com                      |
|    \\/     M anipulation  |                                                 |
\*---------------------------------------------------------------------------*/
FoamFile
{
    version     2.0;
    format      ascii;
    arch        "LSB;label=32;scalar=64";
    class       volScalarField;
    location    "85";
    object      gradTy;
}
// * * * * * * * * * * * * * * * * * * * * * * * * * * * * * * * * * * * * * //

dimensions      [0 -1 0 1 0 0 0];

internalField   nonuniform List<scalar> 
20000
(
348.815
341.458
333.909
326.199
318.36
310.419
302.403
294.337
286.241
278.139
270.05
261.992
253.98
246.031
238.158
230.373
222.689
215.116
207.662
200.335
193.143
186.093
179.19
172.438
165.841
159.404
153.128
147.015
141.067
135.284
129.667
124.217
118.932
113.812
108.855
104.06
99.4258
94.9498
90.6297
86.4632
82.4475
78.5799
74.8573
71.2767
67.8348
64.5283
61.3539
58.3082
55.3876
52.5887
49.9079
47.3416
44.8864
42.5387
40.2949
38.1516
36.1053
34.1526
32.2901
30.5144
28.8224
27.2106
25.6761
24.2156
22.8262
21.5048
20.2486
19.0546
17.9202
16.8427
15.8193
14.8476
13.9251
13.0493
12.2178
11.4285
10.679
9.9673
9.29118
8.64865
8.03774
7.45652
6.90314
6.37578
5.87268
5.39213
4.93246
4.49204
4.06929
3.66265
3.2706
2.89167
2.52439
2.16734
1.8191
1.47829
1.14353
0.813464
0.486742
0.162025
348.73
341.373
333.826
326.119
318.282
310.343
302.328
294.263
286.17
278.071
269.984
261.927
253.917
245.97
238.099
230.317
222.635
215.063
207.61
200.285
193.095
186.047
179.145
172.395
165.801
159.365
153.09
146.979
141.032
135.251
129.635
124.186
118.903
113.783
108.828
104.034
99.4013
94.9263
90.6073
86.4418
82.4272
78.5605
74.8388
71.2591
67.818
64.5124
61.3388
58.2938
55.374
52.5757
49.8956
47.3299
44.8753
42.5282
40.2849
38.1422
36.0964
34.1442
32.2821
30.5069
28.8152
27.2039
25.6698
24.2096
22.8206
21.4995
20.2436
19.0499
17.9158
16.8385
15.8154
14.844
13.9217
13.0461
12.2148
11.4257
10.6764
9.96484
9.28889
8.64652
8.03575
7.45468
6.90144
6.37421
5.87123
5.3908
4.93125
4.49093
4.06828
3.66174
3.2698
2.89096
2.52377
2.16681
1.81865
1.47793
1.14325
0.813263
0.486622
0.161985
348.558
341.205
333.661
325.958
318.124
310.19
302.179
294.118
286.029
277.934
269.85
261.798
253.792
245.849
237.981
230.203
222.525
214.957
207.508
200.186
193
185.955
179.057
172.31
165.719
159.286
153.014
146.906
140.962
135.184
129.572
124.125
118.844
113.727
108.774
103.983
99.3522
94.8795
90.5626
86.3992
82.3865
78.5217
74.8019
71.2239
67.7846
64.4806
61.3085
58.265
55.3466
52.5498
49.8709
47.3066
44.8532
42.5072
40.2651
38.1233
36.0786
34.1273
32.2662
30.4918
28.801
27.1905
25.6571
24.1977
22.8093
21.4889
20.2336
19.0405
17.907
16.8302
15.8076
14.8366
13.9148
13.0396
12.2088
11.42
10.6711
9.95992
9.2843
8.64225
8.03179
7.451
6.89803
6.37106
5.86834
5.38814
4.92881
4.48872
4.06628
3.65994
3.26818
2.88953
2.52253
2.16574
1.81776
1.4772
1.14268
0.812862
0.486382
0.161905
348.3
340.953
333.414
325.717
317.889
309.96
301.955
293.901
285.818
277.728
269.65
261.604
253.604
245.667
237.805
230.033
222.36
214.797
207.354
200.038
192.857
185.817
178.924
172.183
165.596
159.168
152.901
146.797
140.858
135.084
129.476
124.033
118.756
113.643
108.694
103.906
99.2787
94.8092
90.4956
86.3352
82.3255
78.4636
74.7465
71.1712
67.7344
64.4328
61.2631
58.2219
55.3056
52.5108
49.834
47.2715
44.82
42.4757
40.2352
38.0951
36.0519
34.102
32.2423
30.4693
28.7797
27.1704
25.6381
24.1798
22.7924
21.473
20.2186
19.0264
17.8937
16.8178
15.7959
14.8257
13.9045
13.03
12.1998
11.4116
10.6632
9.95255
9.27743
8.63585
8.02584
7.44549
6.89292
6.36634
5.86399
5.38415
4.92516
4.4854
4.06327
3.65723
3.26576
2.88739
2.52066
2.16413
1.81641
1.4761
1.14184
0.81226
0.486022
0.161785
347.955
340.616
333.085
325.395
317.575
309.654
301.657
293.61
285.535
277.453
269.384
261.345
253.354
245.424
237.57
229.805
222.14
214.585
207.149
199.841
192.667
185.634
178.748
172.013
165.433
159.011
152.75
146.652
140.719
134.95
129.348
123.911
118.639
113.531
108.586
103.803
99.1806
94.7156
90.4062
86.2499
82.2442
78.3861
74.6726
71.1008
67.6674
64.3692
61.2026
58.1644
55.251
52.459
49.7848
47.2248
44.7757
42.4337
40.1955
38.0575
36.0162
34.0684
32.2104
30.4392
28.7513
27.1435
25.6128
24.1559
22.7699
21.4518
20.1986
19.0076
17.876
16.8011
15.7803
14.811
13.8907
13.0171
12.1877
11.4003
10.6527
9.94272
9.26827
8.62732
8.01792
7.43813
6.88612
6.36006
5.8582
5.37884
4.9203
4.48097
4.05925
3.65361
3.26254
2.88454
2.51817
2.162
1.81462
1.47465
1.14071
0.811458
0.485542
0.161625
347.525
340.195
332.674
324.993
317.182
309.271
301.284
293.247
285.182
277.11
269.051
261.022
253.041
245.121
237.277
229.521
221.866
214.32
206.893
199.594
192.429
185.405
178.527
171.8
165.228
158.814
152.561
146.471
140.545
134.784
129.188
123.757
118.492
113.391
108.452
103.675
99.058
94.5985
90.2945
86.1433
82.1425
78.2892
74.5804
71.013
67.5838
64.2896
61.127
58.0925
55.1827
52.3942
49.7233
47.1665
44.7204
42.3813
40.1458
38.0105
35.9717
34.0263
32.1706
30.4016
28.7157
27.11
25.5811
24.1261
22.7418
21.4253
20.1737
18.9842
17.854
16.7804
15.7608
14.7927
13.8736
13.001
12.1727
11.3862
10.6395
9.93044
9.25682
8.61666
8.00801
7.42894
6.87761
6.3522
5.85096
5.37219
4.91422
4.47543
4.05424
3.6491
3.25851
2.88098
2.51506
2.15933
1.81238
1.47282
1.1393
0.810456
0.484943
0.161426
347.009
339.69
332.18
324.511
316.712
308.812
300.837
292.812
284.759
276.699
268.652
260.635
252.665
244.757
236.925
229.181
221.537
214.002
206.586
199.298
192.143
185.13
178.262
171.545
164.983
158.579
152.335
146.254
140.336
134.584
128.996
123.574
118.316
113.222
108.291
103.521
98.9111
94.4582
90.1605
86.0155
82.0207
78.173
74.4697
70.9076
67.4836
64.1942
61.0363
58.0063
55.1009
52.3164
49.6495
47.0965
44.654
42.3184
40.0863
37.9541
35.9184
33.9758
32.1229
30.3565
28.6731
27.0698
25.5432
24.0903
22.708
21.3935
20.1437
18.956
17.8275
16.7555
15.7374
14.7708
13.853
12.9817
12.1546
11.3693
10.6238
9.9157
9.24308
8.60388
7.99613
7.41792
6.86741
6.34278
5.84228
5.36422
4.90693
4.46879
4.04822
3.64369
3.25367
2.8767
2.51133
2.15612
1.80969
1.47064
1.13761
0.809254
0.484223
0.161186
346.408
339.102
331.604
323.948
316.163
308.277
300.316
292.305
284.266
276.22
268.187
260.184
252.227
244.333
236.514
228.784
221.153
213.631
206.228
198.952
191.81
184.809
177.953
171.248
164.697
158.304
152.071
146
140.093
134.35
128.773
123.36
118.111
113.026
108.104
103.342
98.7397
94.2945
90.0043
85.8665
81.8785
78.0376
74.3407
70.7848
67.3666
64.083
60.9305
57.9058
55.0054
52.2258
49.5634
47.0149
44.5766
42.2451
40.0168
37.8883
35.8561
33.9169
32.0672
30.3039
28.6235
27.0229
25.4989
24.0485
22.6687
21.3564
20.1088
18.9232
17.7966
16.7265
15.7102
14.7452
13.829
12.9592
12.1335
11.3496
10.6054
9.89852
9.22707
8.58897
7.98228
7.40507
6.85551
6.33179
5.83216
5.35493
4.89843
4.46105
4.04121
3.63738
3.24804
2.87172
2.50698
2.15239
1.80655
1.46809
1.13564
0.807852
0.483384
0.160907
345.722
338.43
330.947
323.306
315.536
307.666
299.721
291.725
283.702
275.672
267.655
259.668
251.727
243.849
236.045
228.33
220.714
213.208
205.819
198.558
191.43
184.442
177.6
170.908
164.371
157.99
151.77
145.711
139.815
134.084
128.517
123.115
117.877
112.802
107.889
103.137
98.5439
94.1076
89.8258
85.6963
81.7162
77.8829
74.1933
70.6444
67.2331
63.956
60.8097
57.791
54.8963
52.1222
49.4652
46.9217
44.4883
42.1613
39.9375
37.8132
35.7851
33.8497
32.0037
30.2438
28.5667
26.9693
25.4484
24.0008
22.6237
21.3141
20.069
18.8856
17.7613
16.6933
15.679
14.7159
13.8016
12.9335
12.1095
11.3271
10.5843
9.8789
9.20878
8.57195
7.96645
7.39039
6.84192
6.31924
5.8206
5.34431
4.88872
4.45221
4.0332
3.63017
3.2416
2.86603
2.50201
2.14812
1.80297
1.46518
1.13339
0.80625
0.482426
0.160588
344.95
337.674
330.208
322.584
314.832
306.979
299.051
291.074
283.069
275.057
267.057
259.088
251.165
243.304
235.518
227.82
220.221
212.731
205.36
198.114
191.003
184.031
177.204
170.527
164.004
157.637
151.431
145.386
139.503
133.785
128.23
122.84
117.614
112.55
107.648
102.907
98.3239
93.8974
89.6252
85.5049
81.5337
77.7089
74.0276
70.4867
67.0829
63.8131
60.6739
57.662
54.7737
52.0058
49.3547
46.8169
44.3889
42.0672
39.8483
37.7287
35.7051
33.7741
31.9322
30.1762
28.5029
26.9091
25.3915
23.9472
22.5732
21.2665
20.0242
18.8435
17.7216
16.656
15.644
14.6831
13.7708
12.9047
12.0824
11.3019
10.5607
9.85684
9.18822
8.55281
7.94867
7.37389
6.82664
6.30513
5.80761
5.33238
4.8778
4.44227
4.0242
3.62206
3.23436
2.85963
2.49642
2.14333
1.79895
1.46191
1.13086
0.80445
0.481349
0.16023
344.092
336.835
329.388
321.782
314.049
306.216
298.308
290.351
282.365
274.373
266.394
258.444
250.541
242.699
234.933
227.254
219.674
212.203
204.849
197.622
190.528
183.573
176.763
170.103
163.596
157.246
151.054
145.024
139.157
133.452
127.912
122.535
117.321
112.27
107.381
102.651
98.0795
93.6641
89.4025
85.2924
81.3311
77.5158
73.8437
70.3115
66.9162
63.6546
60.5232
57.5187
54.6376
51.8766
49.2321
46.7006
44.2786
41.9627
39.7493
37.635
35.6164
33.6902
31.8529
30.1013
28.4321
26.8422
25.3284
23.8877
22.5171
21.2136
19.9744
18.7966
17.6776
16.6146
15.6052
14.6466
13.7365
12.8726
12.0524
11.2738
10.5345
9.83235
9.16539
8.53156
7.92892
7.35557
6.80968
6.28946
5.79318
5.31913
4.86569
4.43123
4.0142
3.61306
3.22633
2.85252
2.49022
2.138
1.79448
1.45828
1.12805
0.802452
0.480153
0.159832
343.15
335.913
328.486
320.901
313.19
305.378
297.492
289.556
281.592
273.622
265.664
257.737
249.855
242.035
234.29
226.632
219.073
211.622
204.289
197.081
190.006
183.071
176.279
169.637
163.148
156.815
150.641
144.627
138.776
133.087
127.562
122.199
117
111.963
107.087
102.37
97.811
93.4076
89.1578
85.0589
81.1084
77.3036
73.6415
70.119
66.733
63.4803
60.3575
57.3612
54.4881
51.7346
49.0973
46.5727
44.1574
41.8478
39.6404
37.532
35.5189
33.5979
31.7657
30.0188
28.3543
26.7687
25.2591
23.8223
22.4555
21.1556
19.9197
18.7452
17.6292
16.5692
15.5624
14.6065
13.6989
12.8374
12.0194
11.2429
10.5056
9.80544
9.1403
8.5082
7.90721
7.33543
6.79104
6.27224
5.77732
5.30457
4.85237
4.4191
4.00321
3.60317
3.21749
2.84472
2.4834
2.13215
1.78956
1.45429
1.12496
0.800255
0.478839
0.159394
342.124
334.908
327.503
319.941
312.252
304.464
296.602
288.689
280.75
272.803
264.869
256.965
249.108
241.311
233.589
225.954
218.417
210.989
203.677
196.491
189.438
182.523
175.752
169.13
162.66
156.346
150.19
144.195
138.36
132.689
127.18
121.834
116.65
111.628
106.766
102.064
97.5184
93.1282
88.891
84.8044
80.8658
77.0723
73.4212
69.9092
66.5334
63.2903
60.1769
57.1896
54.325
51.5798
48.9504
46.4334
44.0253
41.7226
39.5218
37.4197
35.4126
33.4974
31.6706
29.929
28.2694
26.6886
25.1835
23.7511
22.3883
21.0923
19.8601
18.6891
17.5765
16.5196
15.5159
14.5628
13.658
12.7989
11.9835
11.2093
10.4742
9.7761
9.11295
8.48275
7.88355
7.31349
6.77072
6.25348
5.76003
5.2887
4.83785
4.40588
3.99123
3.59239
3.20787
2.8362
2.47597
2.12577
1.78421
1.44994
1.1216
0.797861
0.477406
0.158917
341.013
333.82
326.439
318.902
311.238
303.475
295.638
287.752
279.838
271.917
264.009
256.131
248.299
240.527
232.83
225.22
217.708
210.303
203.016
195.853
188.823
181.93
175.181
168.581
162.132
155.838
149.702
143.726
137.911
132.258
126.767
121.438
116.271
111.266
106.42
101.732
97.2016
92.8257
88.6023
84.529
80.6031
76.822
73.1827
69.6822
66.3173
63.0848
59.9814
57.0038
54.1486
51.4123
48.7914
46.2826
43.8823
41.5871
39.3935
37.2981
35.2976
33.3886
31.5678
29.8318
28.1776
26.6019
25.1017
23.6739
22.3156
21.0238
19.7956
18.6284
17.5194
16.4659
15.4655
14.5155
13.6136
12.7574
11.9445
11.1729
10.4402
9.74435
9.08336
8.4552
7.85795
7.28974
6.74873
6.23317
5.74133
5.27153
4.82214
4.39157
3.97827
3.58073
3.19745
2.82699
2.46793
2.11887
1.77842
1.44523
1.11795
0.79527
0.475856
0.158401
339.817
332.65
325.295
317.785
310.147
302.411
294.602
286.743
278.857
270.964
263.084
255.233
247.428
239.684
232.014
224.431
216.945
209.566
202.304
195.167
188.161
181.292
174.567
167.99
161.564
155.292
149.178
143.222
137.428
131.794
126.322
121.012
115.864
110.876
106.047
101.376
96.8609
92.5003
88.2917
84.2327
80.3206
76.5527
72.9262
69.4379
66.0848
62.8637
59.7712
56.804
53.9588
51.2321
48.6204
46.1204
43.7285
41.4413
39.2554
37.1674
35.1739
33.2716
31.4571
29.7273
28.0789
26.5087
25.0138
23.591
22.2374
20.9501
19.7262
18.5631
17.458
16.4082
15.4113
14.4646
13.5659
12.7127
11.9027
11.1337
10.4036
9.7102
9.05152
8.42557
7.83041
7.26419
6.72508
6.21133
5.72121
5.25305
4.80524
4.37618
3.96433
3.56818
3.18625
2.81709
2.45928
2.11144
1.77218
1.44016
1.11404
0.792483
0.474189
0.157846
338.538
331.398
324.071
316.588
308.98
301.273
293.493
285.664
277.807
269.944
262.093
254.272
246.497
238.782
231.141
223.586
216.128
208.778
201.543
194.432
187.453
180.61
173.91
167.357
160.955
154.708
148.616
142.683
136.91
131.298
125.847
120.557
115.428
110.458
105.648
100.994
96.4963
92.1522
87.9594
83.9156
80.0183
76.2646
72.6517
69.1766
65.8361
62.627
59.5462
56.5902
53.7557
51.0392
48.4374
45.9468
43.5639
41.2853
39.1076
37.0275
35.0415
33.1463
31.3387
29.6154
27.9732
26.4089
24.9196
23.5022
22.1537
20.8712
19.652
18.4932
17.3923
16.3465
15.3533
14.4102
13.5148
12.6648
11.8579
11.0918
10.3644
9.67365
9.01745
8.39386
7.80094
7.23685
6.69977
6.18795
5.69967
5.23328
4.78715
4.35971
3.94941
3.55475
3.17425
2.80648
2.45003
2.10349
1.76551
1.43474
1.10984
0.789501
0.472404
0.157252
337.175
330.064
322.766
315.314
307.736
300.06
292.312
284.514
276.689
268.858
261.039
253.249
245.505
237.821
230.21
222.686
215.258
207.937
200.732
193.65
186.698
179.883
173.21
166.684
160.308
154.085
148.018
142.109
136.359
130.77
125.34
120.072
114.963
110.014
105.222
100.588
96.1079
91.7812
87.6053
83.5778
79.6962
75.9576
72.3593
68.8981
65.5711
62.375
59.3065
56.3624
53.5393
50.8338
48.2424
45.7618
43.3885
41.1191
38.9502
36.8785
34.9005
33.0129
31.2126
29.4962
27.8606
26.3026
24.8193
23.4076
22.0645
20.7872
19.5729
18.4188
17.3223
16.2807
15.2915
14.3522
13.4604
12.6138
11.8102
11.0472
10.3227
9.63472
8.98116
8.36007
7.76954
7.20772
6.67281
6.16304
5.67673
5.21222
4.76789
4.34216
3.93351
3.54044
3.16148
2.79519
2.44017
2.09503
1.75841
1.42897
1.10538
0.786323
0.470503
0.156619
335.73
328.648
321.382
313.962
306.417
298.774
291.058
283.294
275.503
267.705
259.919
252.163
244.452
236.801
229.223
221.731
214.335
207.046
199.871
192.819
185.897
179.112
172.467
165.969
159.62
153.424
147.383
141.5
135.775
130.209
124.803
119.557
114.47
109.542
104.771
100.156
95.6958
91.3877
87.2297
83.2195
79.3544
75.6319
72.049
68.6027
65.2899
62.1075
59.0522
56.1207
53.3097
50.6158
48.0356
45.5656
43.2025
40.9428
38.7832
36.7203
34.7508
32.8714
31.0787
29.3697
27.7411
26.1898
24.7129
23.3072
21.9699
20.6981
19.489
18.3398
17.248
16.2109
15.2259
14.2907
13.4027
12.5598
11.7595
10.9998
10.2784
9.59341
8.94265
8.32423
7.73623
7.17682
6.64419
6.13662
5.65239
5.18987
4.74744
4.32355
3.91665
3.52526
3.14792
2.78321
2.42971
2.08605
1.75087
1.42284
1.10064
0.782952
0.468485
0.155948
334.201
327.152
319.919
312.532
305.022
297.413
289.733
282.004
274.248
266.486
258.736
251.015
243.339
235.723
228.18
220.721
213.359
206.103
198.961
191.941
185.051
178.296
171.682
165.213
158.893
152.725
146.712
140.855
135.156
129.616
124.235
119.012
113.949
109.043
104.294
99.7002
95.2601
90.9715
86.8325
82.8405
78.9931
75.2875
71.7209
68.2903
64.9926
61.8247
58.7833
55.8652
53.067
50.3853
47.8168
45.3581
43.0058
40.7564
38.6066
36.5531
34.5926
32.7217
30.9372
29.236
27.6148
26.0706
24.6004
23.2011
21.8699
20.6038
19.4002
18.2563
17.1695
16.1371
15.1566
14.2256
13.3417
12.5026
11.706
10.9497
10.2317
9.54973
8.90194
8.28633
7.70101
7.14414
6.61394
6.10868
5.62666
5.16624
4.72583
4.30386
3.89882
3.50921
3.13359
2.77053
2.41864
2.07655
1.7429
1.41636
1.09563
0.779387
0.466352
0.155238
332.59
325.575
318.377
311.026
303.551
295.98
288.336
280.645
272.926
265.201
257.488
249.805
242.166
234.586
227.08
219.657
212.331
205.109
198.002
191.016
184.159
177.437
170.854
164.417
158.127
151.989
146.005
140.176
134.505
128.991
123.636
118.439
113.4
108.517
103.791
99.2196
94.8008
90.533
86.4139
82.4412
78.6123
74.9246
71.3751
67.9611
64.6793
61.5267
58.4999
55.5959
52.8112
50.1424
47.5863
45.1394
42.7984
40.5599
38.4205
36.3769
34.4258
32.5639
30.7881
29.095
27.4817
25.9449
24.4818
23.0892
21.7644
20.5045
19.3067
18.1683
17.0867
16.0593
15.0835
14.157
13.2774
12.4423
11.6495
10.8969
10.1823
9.50369
8.85902
8.24638
7.66388
7.1097
6.58206
6.07923
5.59954
5.14134
4.70305
4.28311
3.88002
3.4923
3.11849
2.75718
2.40698
2.06654
1.7345
1.40954
1.09035
0.77563
0.464105
0.154489
330.897
323.917
316.756
309.442
302.006
294.473
286.868
279.216
271.537
263.851
256.178
248.533
240.933
233.392
225.924
218.539
211.25
204.065
196.994
190.043
183.221
176.533
169.985
163.58
157.322
151.215
145.262
139.463
133.82
128.334
123.006
117.836
112.822
107.965
103.263
98.7145
94.3182
90.0721
85.9739
82.0215
78.2121
74.5431
71.0118
67.6151
64.35
61.2134
58.2021
55.3129
52.5423
49.8872
47.3441
44.9096
42.5806
40.3534
38.2249
36.1917
34.2506
32.3982
30.6313
28.9469
27.3418
25.8128
24.3571
22.9717
21.6536
20.4001
19.2084
18.0758
16.9997
15.9775
15.0067
14.0849
13.2098
12.379
11.5902
10.8415
10.1305
9.45531
8.81393
8.2044
7.62487
7.07351
6.54856
6.04829
5.57103
5.11517
4.67911
4.26131
3.86027
3.47452
3.10261
2.74314
2.39473
2.05602
1.72567
1.40236
1.0848
0.771682
0.461742
0.153703
329.122
322.18
315.057
307.783
300.386
292.893
285.33
277.718
270.08
262.436
254.803
247.2
239.641
232.14
224.712
217.367
210.117
202.97
195.937
189.024
182.239
175.586
169.073
162.702
156.478
150.404
144.482
138.715
133.102
127.646
122.347
117.204
112.217
107.386
102.709
98.185
93.8123
89.589
85.5128
81.5815
77.7926
74.1433
70.6309
67.2524
64.0049
60.8851
57.8899
55.0162
52.2605
49.6196
47.0901
44.6688
42.3522
40.137
38.0199
35.9976
34.0669
32.2244
30.467
28.7917
27.1951
25.6744
24.2265
22.8485
21.5375
20.2907
19.1054
17.9789
16.9085
15.8918
14.9262
14.0094
13.1389
12.3126
11.5281
10.7833
10.0762
9.4046
8.76665
8.1604
7.58398
7.03557
6.51343
6.01585
5.54115
5.08773
4.65401
4.23846
3.83957
3.45588
3.08597
2.72843
2.38189
2.04499
1.71641
1.39484
1.07898
0.767543
0.459266
0.152879
327.266
320.363
313.28
306.047
298.692
291.242
283.721
276.152
268.557
260.956
253.367
245.806
238.289
230.831
223.445
216.141
208.932
201.826
194.832
187.958
181.211
174.596
168.119
161.785
155.596
149.556
143.668
137.932
132.352
126.926
121.657
116.543
111.584
106.78
102.13
97.6313
93.2833
89.0837
85.0306
81.1214
77.3539
73.7252
70.2326
66.8732
63.6439
60.5417
57.5635
54.7059
51.9658
49.3398
46.8246
44.4169
42.1133
39.9106
37.8055
35.7946
33.8747
32.0427
30.2952
28.6293
27.0418
25.5296
24.0899
22.7196
21.416
20.1763
18.9977
17.8775
16.8132
15.8022
14.8421
13.9304
13.0648
12.2431
11.4631
10.7225
10.0193
9.35157
8.71722
8.11438
7.54121
6.9959
6.47671
5.98192
5.50991
5.05904
4.62777
4.21456
3.81792
3.4364
3.06857
2.71305
2.36846
2.03346
1.70673
1.38697
1.07289
0.763215
0.456676
0.152017
325.329
318.467
311.426
304.236
296.924
289.518
282.042
274.518
266.968
259.412
251.867
244.351
236.879
229.465
222.122
214.862
207.695
200.631
193.679
186.846
180.138
173.563
167.124
160.827
154.675
148.671
142.817
137.116
131.568
126.175
120.937
115.853
110.924
106.148
101.525
97.0535
92.7312
88.5565
84.5273
80.6414
76.8961
73.2889
69.8169
66.4774
63.2673
60.1834
57.2228
54.3822
51.6582
49.0478
46.5475
44.154
41.8641
39.6744
37.5818
35.5828
33.6743
31.853
30.1159
28.4599
26.8817
25.3785
23.9473
22.5852
21.2893
20.0569
18.8852
17.7717
16.7137
15.7087
14.7542
13.848
12.9875
12.1707
11.3952
10.6591
9.96005
9.29623
8.66563
8.06637
7.49658
6.9545
6.43838
5.94653
5.4773
5.02911
4.60038
4.18962
3.79532
3.41606
3.05041
2.69699
2.35444
2.02143
1.69663
1.37877
1.06654
0.758699
0.453974
0.151117
323.312
316.493
309.495
302.349
295.083
287.723
280.293
272.816
265.313
257.803
250.305
242.836
235.41
228.042
220.745
213.53
206.408
199.387
192.478
185.687
179.022
172.487
166.088
159.83
153.716
147.749
141.932
136.266
130.753
125.393
120.187
115.135
110.236
105.49
100.896
96.4517
92.1562
88.0075
84.0033
80.1414
76.4193
72.8345
69.3841
66.0652
62.875
59.8103
56.868
54.045
51.338
48.7437
46.2589
43.8802
41.6045
39.4285
37.3487
35.3622
33.4655
31.6556
29.9292
28.2834
26.7151
25.2212
23.7988
22.4452
21.1573
19.9325
18.7682
17.6615
16.6101
15.6113
14.6628
13.7621
12.907
12.0952
11.3246
10.593
9.8983
9.2386
8.61191
8.01636
7.45011
6.91139
6.39846
5.90966
5.44334
4.99793
4.57186
4.16364
3.7718
3.39488
3.0315
2.68027
2.33985
2.0089
1.68612
1.37022
1.05993
0.753996
0.451159
0.15018
321.215
314.44
307.488
300.388
293.169
285.857
278.475
271.046
263.592
256.131
248.682
241.261
233.884
226.563
219.313
212.145
205.069
198.094
191.23
184.483
177.861
171.368
165.011
158.794
152.719
146.791
141.011
135.382
129.905
124.58
119.407
114.388
109.521
104.806
100.241
95.8262
91.5586
87.4367
83.4585
79.6216
75.9237
72.3621
68.9341
65.6368
62.4672
59.4224
56.4992
53.6945
51.005
48.4275
45.9589
43.5957
41.3347
39.1728
37.1065
35.1328
33.2485
31.4503
29.7351
28.1
26.5418
25.0576
23.6445
22.2996
21.0201
19.8033
18.6464
17.547
16.5023
15.5101
14.5677
13.6729
12.8233
12.0168
11.2512
10.5243
9.83411
9.17868
8.55606
7.96437
7.40179
6.86657
6.35697
5.87134
5.40805
4.96552
4.54222
4.13664
3.74734
3.37287
3.01184
2.66289
2.32467
1.99587
1.67518
1.36133
1.05306
0.749106
0.448234
0.149206
319.039
312.31
305.405
298.353
291.183
283.92
276.589
269.21
261.806
254.396
246.997
239.627
232.299
225.029
217.828
210.708
203.68
196.752
189.934
183.233
176.656
170.207
163.893
157.718
151.685
145.797
140.056
134.465
129.025
123.736
118.598
113.613
108.779
104.096
99.5624
95.177
90.9383
86.8443
82.8931
79.0822
75.4094
71.8719
68.4671
65.1921
62.044
59.0199
56.1165
53.3307
50.6595
48.0995
45.6475
43.3003
41.0547
38.9074
36.8552
34.8948
33.0232
31.2372
29.5337
27.9096
26.362
24.8879
23.4843
22.1485
20.8777
19.6691
18.5201
17.4281
16.3906
15.405
14.469
13.5802
12.7364
11.9354
11.1749
10.453
9.76749
9.11651
8.4981
7.91042
7.35165
6.82005
6.31391
5.83156
5.37141
4.93188
4.51145
4.10862
3.72195
3.35002
2.99144
2.64485
2.30893
1.98235
1.66383
1.35211
1.04593
0.744032
0.445197
0.148196
316.784
310.103
303.246
296.245
289.125
281.914
274.634
267.308
259.956
252.598
245.252
237.933
230.657
223.438
216.288
209.219
202.24
195.362
188.592
181.938
175.407
169.004
162.735
156.603
150.613
144.766
139.066
133.515
128.113
122.861
117.76
112.81
108.01
103.36
98.8587
94.5044
90.2956
86.2306
82.3072
78.5233
74.8764
71.3639
67.9832
64.7314
61.6055
58.6027
55.7199
52.9538
50.3014
47.7595
45.3249
42.9943
40.7645
38.6324
36.5947
34.6482
32.7898
31.0164
29.325
27.7124
26.1757
24.712
23.3183
21.992
20.7301
19.5301
18.3892
17.3049
16.2747
15.2961
14.3667
13.4843
12.6464
11.851
11.096
10.3791
9.69847
9.05208
8.43804
7.85452
7.2997
6.77185
6.26929
5.79035
5.33345
4.89703
4.47957
4.07959
3.69565
3.32635
2.9703
2.62616
2.29261
1.96834
1.65208
1.34256
1.03853
0.738774
0.442051
0.147148
314.451
307.819
301.013
294.063
286.996
279.838
272.611
265.339
258.042
250.738
243.446
236.181
228.959
221.793
214.695
207.678
200.751
193.923
187.203
180.598
174.115
167.76
161.536
155.45
149.503
143.7
138.042
132.531
127.169
121.956
116.893
111.979
107.215
102.599
98.1307
93.8084
89.6306
85.5955
81.7011
77.945
74.325
70.8384
67.4825
64.2546
61.1518
58.1712
55.3095
52.5638
49.931
47.4078
44.9911
42.6777
40.4643
38.3479
36.3252
34.393
32.5484
30.788
29.109
27.5083
25.9829
24.53
23.1466
21.83
20.5775
19.3863
18.2538
17.1775
16.1549
15.1835
14.2609
13.385
12.5533
11.7638
11.0142
10.3027
9.62704
8.98542
8.37591
7.79668
7.24594
6.72199
6.22312
5.74771
5.29418
4.86097
4.44658
4.04954
3.66843
3.30185
2.94843
2.60682
2.27573
1.95385
1.63991
1.33267
1.03089
0.733334
0.438796
0.146065
312.041
305.459
298.705
291.809
284.796
277.692
270.521
263.305
256.063
248.816
241.579
234.37
227.203
220.092
213.049
206.086
199.212
192.436
185.768
179.214
172.781
166.474
160.298
154.258
148.357
142.598
136.984
131.515
126.194
121.021
115.997
111.121
106.393
101.813
97.3784
93.0893
88.9435
84.9393
81.0748
77.3475
73.7552
70.2953
66.9652
63.7621
60.6831
57.7252
54.8855
52.1609
49.5482
47.0444
44.6462
42.3505
40.1541
38.0539
36.0467
34.1294
32.2988
30.552
28.8859
27.2974
25.7837
24.3419
22.9692
21.6627
20.4197
19.2377
18.1139
17.0458
16.031
15.0671
14.1516
13.2824
12.4571
11.6736
10.9298
10.2237
9.55325
8.91654
8.3117
7.73691
7.1904
6.67046
6.17542
5.70365
5.25359
4.8237
4.41249
4.0185
3.64031
3.27654
2.92583
2.58684
2.25828
1.93887
1.62734
1.32246
1.02298
0.727712
0.435432
0.144945
309.553
303.024
296.324
289.483
282.526
275.479
268.365
261.206
254.022
246.832
239.654
232.502
225.392
218.338
211.351
204.443
197.624
190.902
184.287
177.785
171.403
165.147
159.02
153.028
147.175
141.462
135.892
130.467
125.188
120.057
115.072
110.235
105.545
101.001
96.6021
92.3472
88.2345
84.2622
80.4284
76.7309
73.1672
69.7349
66.4314
63.2538
60.1993
57.265
54.448
51.7451
49.1532
46.6694
44.2903
42.0129
39.834
37.7506
35.7594
33.8573
32.0414
30.3085
28.6556
27.0798
25.5782
24.1479
22.7861
21.49
20.257
19.0843
17.9695
16.9099
15.9032
14.947
14.0388
13.1765
12.3578
11.5805
10.8427
10.1422
9.4771
8.84546
8.24544
7.67524
7.13308
6.61729
6.12619
5.65819
5.21172
4.78525
4.37732
3.98647
3.6113
3.25042
2.9025
2.56622
2.24028
1.92341
1.61437
1.31191
1.01483
0.721912
0.431962
0.14379
306.989
300.514
293.87
287.085
280.186
273.197
266.142
259.042
251.918
244.788
237.669
230.576
223.525
216.529
209.6
202.75
195.987
189.321
182.761
176.313
169.983
163.779
157.703
151.761
145.956
140.29
134.766
129.386
124.151
119.062
114.119
109.322
104.671
100.164
95.802
91.5823
87.5036
83.5643
79.7623
76.0954
72.5612
69.1573
65.8811
62.7299
59.7007
56.7907
53.997
51.3165
48.7461
46.2828
43.9235
41.6649
39.5041
37.4379
35.4632
33.5769
31.776
30.0574
28.4183
26.8555
25.3664
23.9479
22.5974
21.312
20.0892
18.9263
17.8207
16.7699
15.7715
14.8232
13.9225
13.0673
12.2554
11.4846
10.7529
10.0582
9.3986
8.7722
8.17715
7.61167
7.07401
6.56248
6.07545
5.61133
5.16855
4.74562
4.34107
3.95345
3.58139
3.2235
2.87847
2.54497
2.22173
1.90748
1.601
1.30105
1.00643
0.715933
0.428384
0.142599
304.349
297.93
291.343
284.616
277.776
270.848
263.854
256.815
249.752
242.683
235.625
228.594
221.603
214.668
207.798
201.006
194.302
187.693
181.189
174.797
168.522
162.37
156.347
150.456
144.701
139.084
133.608
128.274
123.084
118.038
113.138
108.382
103.771
99.3031
94.9782
90.7948
86.7512
82.8458
79.0764
75.441
71.9373
68.5627
65.3147
62.1905
59.1874
56.3024
53.5327
50.8752
48.327
45.8849
43.5458
41.3067
39.1644
37.116
35.1583
33.2882
31.5028
29.799
28.1739
26.6246
25.1482
23.742
22.4031
21.1288
19.9165
18.7635
17.6674
16.6257
15.6359
14.6957
13.8028
12.955
12.15
11.3859
10.6604
9.97172
9.31779
8.69678
8.10685
7.54622
7.01318
6.50606
6.02321
5.56308
5.12411
4.70482
4.30374
3.91946
3.5506
3.19579
2.85372
2.52309
2.20262
1.89108
1.58723
1.28986
0.997772
0.709777
0.424701
0.141373
301.635
295.273
288.744
282.078
275.299
268.432
261.5
254.524
247.524
240.518
233.523
226.555
219.627
212.753
205.945
199.213
192.568
186.019
179.573
173.237
167.019
160.922
154.953
149.114
143.41
137.843
132.416
127.13
121.986
116.985
112.129
107.415
102.845
98.4173
94.131
89.9849
85.9774
82.1068
78.3711
74.7681
71.2956
67.9511
64.7321
61.6358
58.6594
55.8002
53.0552
50.4214
47.8959
45.4756
43.1574
40.9382
38.8151
36.7849
34.8447
32.9913
31.2218
29.5332
27.9226
26.3871
24.9239
23.5302
22.2032
20.9403
19.7388
18.5962
17.5098
16.4774
15.4964
14.5646
13.6797
12.8394
12.0417
11.2843
10.5653
9.88277
9.23468
8.61921
8.03454
7.47891
6.95063
6.44803
5.96949
5.51346
5.07841
4.66285
4.26535
3.8845
3.51893
3.16728
2.82826
2.50058
2.18298
1.87422
1.57308
1.27836
0.988873
0.703447
0.420913
0.140112
298.846
292.542
286.074
279.469
272.753
265.95
259.082
252.171
245.235
238.294
231.364
224.46
217.596
210.785
204.04
197.371
190.788
184.299
177.913
171.636
165.474
159.434
153.52
147.735
142.084
136.568
131.191
125.954
120.858
115.904
111.092
106.422
101.894
97.5073
93.2606
89.1528
85.1824
81.3476
77.6464
74.0767
70.6364
67.3228
64.1335
61.0658
58.117
55.2842
52.5646
49.9552
47.453
45.0551
42.7583
40.5597
38.4562
36.4448
34.5225
32.6862
30.9331
29.2601
27.6644
26.1431
24.6935
23.3126
21.9979
20.7467
19.5563
18.4242
17.3479
16.325
15.3532
14.43
13.5532
12.7207
11.9303
11.18
10.4677
9.79139
9.14929
8.53951
7.96025
7.40976
6.88636
6.3884
5.91429
5.46248
5.03145
4.61974
4.22592
3.84859
3.48639
3.138
2.80211
2.47746
2.16279
1.85689
1.55853
1.26654
0.979729
0.696942
0.417021
0.138816
295.983
289.74
283.334
276.792
270.14
263.402
256.6
249.755
242.886
236.011
229.147
222.309
215.511
208.766
202.086
195.48
188.96
182.533
176.208
169.991
163.889
157.907
152.049
146.32
140.723
135.26
129.935
124.747
119.7
114.793
110.027
105.402
100.918
96.5732
92.3672
88.2988
84.3664
80.5683
76.9025
73.3671
69.9597
66.6778
63.5191
60.4808
57.5602
54.7546
52.0611
49.4766
46.9984
44.6234
42.3487
40.1711
38.0878
36.0956
34.1917
32.3731
30.6367
28.9798
27.3994
25.8927
24.4569
23.0893
21.7872
20.5479
19.3689
18.2477
17.1817
16.1687
15.2061
14.2917
13.4234
12.5989
11.816
11.0729
10.3674
9.69759
9.06165
8.4577
7.88399
7.33878
6.82039
6.32721
5.85764
5.41015
4.98325
4.57549
4.18543
3.81172
3.45299
3.10794
2.77527
2.45373
2.14208
1.8391
1.5436
1.2544
0.970344
0.690266
0.413026
0.137487
293.047
286.866
280.523
274.046
267.46
260.789
254.055
247.277
240.477
233.67
226.874
220.104
213.374
206.695
200.081
193.541
187.086
180.723
174.46
168.305
162.263
156.34
150.541
144.868
139.327
133.918
128.646
123.51
118.513
113.655
108.936
104.357
99.9169
95.6152
91.451
87.4229
83.5295
79.7691
76.1397
72.6393
69.2657
66.0164
62.889
59.8809
56.9893
54.2115
51.5446
48.9859
46.5322
44.1808
41.9286
39.7727
37.71
35.7376
33.8526
32.052
30.3328
28.6923
27.1276
25.6358
24.2143
22.8603
21.5711
20.3441
19.1768
18.0667
17.0113
16.0083
15.0552
14.15
13.2902
12.4739
11.6988