/*--------------------------------*- C++ -*----------------------------------*\
| =========                 |                                                 |
| \\      /  F ield         | OpenFOAM: The Open Source CFD Toolbox           |
|  \\    /   O peration     | Version:  2406                                  |
|   \\  /    A nd           | Website:  www.openfoam.com                      |
|    \\/     M anipulation  |                                                 |
\*---------------------------------------------------------------------------*/
FoamFile
{
    version     2.0;
    format      ascii;
    arch        "LSB;label=32;scalar=64";
    class       volScalarField;
    location    "85";
    object      T;
}
// * * * * * * * * * * * * * * * * * * * * * * * * * * * * * * * * * * * * * //

dimensions      [0 0 0 1 0 0 0];

internalField   nonuniform List<scalar> 
20000
(
300.872
300.854
300.835
300.816
300.796
300.776
300.756
300.736
300.716
300.695
300.675
300.655
300.635
300.615
300.595
300.576
300.557
300.538
300.519
300.501
300.483
300.465
300.448
300.431
300.415
300.399
300.383
300.368
300.353
300.338
300.324
300.311
300.297
300.285
300.272
300.26
300.249
300.237
300.227
300.216
300.206
300.196
300.187
300.178
300.17
300.161
300.153
300.146
300.138
300.131
300.125
300.118
300.112
300.106
300.101
300.095
300.09
300.085
300.081
300.076
300.072
300.068
300.064
300.061
300.057
300.054
300.051
300.048
300.045
300.042
300.04
300.037
300.035
300.033
300.031
300.029
300.027
300.025
300.023
300.022
300.02
300.019
300.017
300.016
300.015
300.013
300.012
300.011
300.01
300.009
300.008
300.007
300.006
300.005
300.005
300.004
300.003
300.002
300.001
300
302.616
302.561
302.504
302.446
302.388
302.328
302.268
302.207
302.147
302.086
302.025
301.965
301.905
301.845
301.786
301.728
301.67
301.613
301.557
301.502
301.449
301.396
301.344
301.293
301.244
301.196
301.148
301.103
301.058
301.015
300.972
300.932
300.892
300.854
300.816
300.78
300.746
300.712
300.68
300.648
300.618
300.589
300.561
300.535
300.509
300.484
300.46
300.437
300.415
300.394
300.374
300.355
300.337
300.319
300.302
300.286
300.271
300.256
300.242
300.229
300.216
300.204
300.193
300.182
300.171
300.161
300.152
300.143
300.134
300.126
300.119
300.111
300.104
300.098
300.092
300.086
300.08
300.075
300.07
300.065
300.06
300.056
300.052
300.048
300.044
300.04
300.037
300.034
300.031
300.027
300.025
300.022
300.019
300.016
300.014
300.011
300.009
300.006
300.004
300.001
304.359
304.267
304.173
304.077
303.979
303.88
303.779
303.679
303.577
303.476
303.375
303.274
303.174
303.075
302.976
302.879
302.783
302.688
302.595
302.504
302.414
302.326
302.239
302.155
302.073
301.992
301.914
301.837
301.763
301.691
301.621
301.552
301.486
301.422
301.36
301.301
301.243
301.187
301.133
301.081
301.03
300.982
300.936
300.891
300.848
300.806
300.767
300.729
300.692
300.657
300.624
300.592
300.561
300.532
300.504
300.477
300.451
300.427
300.404
300.381
300.36
300.34
300.321
300.303
300.285
300.269
300.253
300.238
300.224
300.21
300.198
300.186
300.174
300.163
300.153
300.143
300.133
300.125
300.116
300.108
300.1
300.093
300.086
300.08
300.073
300.067
300.062
300.056
300.051
300.046
300.041
300.036
300.032
300.027
300.023
300.018
300.014
300.01
300.006
300.002
306.102
305.973
305.841
305.706
305.569
305.43
305.29
305.149
305.007
304.865
304.724
304.583
304.443
304.304
304.166
304.03
303.895
303.763
303.633
303.504
303.379
303.255
303.134
303.016
302.901
302.788
302.679
302.572
302.468
302.366
302.268
302.173
302.08
301.991
301.904
301.82
301.739
301.661
301.585
301.512
301.442
301.375
301.309
301.247
301.187
301.129
301.073
301.02
300.969
300.92
300.873
300.828
300.785
300.744
300.705
300.667
300.632
300.597
300.565
300.534
300.504
300.476
300.449
300.424
300.399
300.376
300.354
300.333
300.313
300.295
300.277
300.26
300.244
300.228
300.214
300.2
300.187
300.174
300.163
300.151
300.141
300.13
300.121
300.112
300.103
300.094
300.086
300.079
300.071
300.064
300.057
300.051
300.044
300.038
300.032
300.026
300.02
300.014
300.009
300.003
307.842
307.677
307.507
307.334
307.158
306.979
306.799
306.618
306.436
306.253
306.072
305.89
305.71
305.531
305.354
305.179
305.007
304.836
304.669
304.504
304.342
304.184
304.029
303.877
303.729
303.584
303.443
303.305
303.172
303.042
302.915
302.793
302.674
302.559
302.447
302.34
302.235
302.135
302.038
301.944
301.854
301.767
301.683
301.603
301.525
301.451
301.379
301.311
301.245
301.182
301.122
301.064
301.009
300.956
300.906
300.858
300.812
300.768
300.726
300.686
300.648
300.612
300.577
300.544
300.513
300.483
300.455
300.428
300.403
300.379
300.356
300.334
300.313
300.293
300.275
300.257
300.24
300.224
300.209
300.194
300.181
300.168
300.155
300.143
300.132
300.121
300.111
300.101
300.091
300.082
300.074
300.065
300.057
300.049
300.041
300.033
300.026
300.018
300.011
300.004
309.581
309.379
309.172
308.96
308.745
308.527
308.306
308.085
307.862
307.64
307.418
307.196
306.976
306.758
306.542
306.328
306.117
305.909
305.704
305.503
305.305
305.112
304.922
304.736
304.555
304.378
304.206
304.038
303.875
303.716
303.562
303.412
303.267
303.126
302.99
302.858
302.731
302.608
302.489
302.375
302.265
302.158
302.056
301.958
301.863
301.772
301.685
301.602
301.521
301.444
301.371
301.3
301.233
301.168
301.107
301.048
300.992
300.938
300.887
300.838
300.792
300.747
300.705
300.665
300.627
300.591
300.556
300.523
300.492
300.463
300.435
300.408
300.382
300.358
300.336
300.314
300.293
300.274
300.255
300.238
300.221
300.205
300.19
300.175
300.161
300.148
300.135
300.123
300.112
300.101
300.09
300.079
300.069
300.06
300.05
300.041
300.031
300.022
300.013
300.004
311.318
311.079
310.834
310.584
310.329
310.072
309.812
309.55
309.287
309.024
308.762
308.501
308.241
307.983
307.727
307.475
307.225
306.98
306.738
306.5
306.267
306.038
305.814
305.595
305.381
305.172
304.968
304.77
304.577
304.389
304.207
304.03
303.859
303.693
303.532
303.376
303.226
303.081
302.941
302.805
302.675
302.55
302.429
302.313
302.201
302.094
301.991
301.892
301.797
301.706
301.619
301.536
301.456
301.38
301.307
301.238
301.171
301.108
301.048
300.99
300.935
300.883
300.833
300.786
300.741
300.698
300.657
300.618
300.581
300.546
300.513
300.482
300.452
300.423
300.396
300.371
300.346
300.323
300.301
300.281
300.261
300.242
300.224
300.207
300.191
300.175
300.16
300.146
300.132
300.119
300.106
300.094
300.082
300.07
300.059
300.048
300.037
300.026
300.016
300.005
313.051
312.776
312.494
312.205
311.912
311.615
311.315
311.013
310.71
310.407
310.104
309.803
309.503
309.205
308.911
308.62
308.332
308.049
307.77
307.496
307.227
306.963
306.705
306.452
306.205
305.964
305.729
305.501
305.278
305.062
304.852
304.648
304.45
304.258
304.073
303.894
303.72
303.553
303.391
303.235
303.085
302.94
302.801
302.667
302.538
302.414
302.296
302.182
302.072
301.968
301.867
301.771
301.679
301.592
301.508
301.427
301.351
301.278
301.208
301.142
301.078
301.018
300.961
300.906
300.854
300.805
300.758
300.713
300.671
300.63
300.592
300.556
300.521
300.488
300.457
300.428
300.4
300.373
300.348
300.324
300.301
300.279
300.258
300.239
300.22
300.202
300.185
300.168
300.152
300.137
300.122
300.108
300.094
300.081
300.068
300.055
300.043
300.03
300.018
300.006
314.782
314.47
314.15
313.823
313.491
313.155
312.815
312.473
312.13
311.787
311.444
311.102
310.763
310.426
310.092
309.763
309.437
309.116
308.8
308.49
308.185
307.886
307.593
307.307
307.028
306.755
306.489
306.23
305.978
305.733
305.495
305.264
305.04
304.823
304.613
304.41
304.213
304.024
303.841
303.664
303.494
303.33
303.172
303.02
302.875
302.735
302.6
302.471
302.347
302.229
302.115
302.006
301.902
301.803
301.708
301.617
301.53
301.447
301.368
301.293
301.221
301.153
301.088
301.026
300.967
300.911
300.858
300.807
300.759
300.714
300.67
300.629
300.59
300.553
300.518
300.484
300.453
300.422
300.394
300.367
300.341
300.316
300.293
300.27
300.249
300.229
300.209
300.19
300.172
300.155
300.139
300.123
300.107
300.092
300.077
300.063
300.048
300.034
300.021
300.007
316.508
316.16
315.803
315.438
315.067
314.691
314.312
313.93
313.547
313.164
312.781
312.399
312.02
311.644
311.271
310.903
310.539
310.181
309.828
309.481
309.141
308.807
308.481
308.161
307.849
307.544
307.247
306.958
306.676
306.403
306.137
305.879
305.629
305.386
305.152
304.925
304.706
304.494
304.289
304.092
303.902
303.719
303.543
303.373
303.21
303.054
302.904
302.76
302.621
302.489
302.362
302.241
302.124
302.013
301.907
301.806
301.709
301.616
301.528
301.444
301.364
301.288
301.215
301.146
301.08
301.018
300.958
300.902
300.848
300.797
300.749
300.703
300.659
300.618
300.578
300.541
300.505
300.472
300.44
300.409
300.38
300.353
300.327
300.302
300.278
300.255
300.233
300.213
300.193
300.173
300.155
300.137
300.119
300.103
300.086
300.07
300.054
300.038
300.023
300.008
318.231
317.847
317.452
317.049
316.639
316.224
315.805
315.384
314.961
314.537
314.114
313.693
313.275
312.859
312.448
312.041
311.639
311.243
310.854
310.471
310.095
309.726
309.366
309.013
308.668
308.331
308.003
307.684
307.373
307.071
306.777
306.492
306.216
305.948
305.689
305.439
305.197
304.963
304.737
304.519
304.309
304.107
303.912
303.725
303.545
303.373
303.207
303.048
302.895
302.749
302.608
302.474
302.346
302.223
302.106
301.994
301.887
301.785
301.688
301.595
301.506
301.422
301.342
301.266
301.193
301.124
301.058
300.996
300.937
300.88
300.827
300.776
300.728
300.682
300.639
300.597
300.558
300.521
300.486
300.452
300.42
300.39
300.361
300.333
300.307
300.282
300.258
300.235
300.213
300.191
300.171
300.151
300.132
300.113
300.095
300.077
300.06
300.043
300.025
300.008
319.949
319.529
319.097
318.656
318.208
317.753
317.295
316.834
316.371
315.907
315.445
314.984
314.526
314.071
313.621
313.176
312.736
312.303
311.877
311.458
311.046
310.643
310.248
309.862
309.485
309.117
308.758
308.408
308.068
307.737
307.416
307.104
306.802
306.509
306.226
305.951
305.686
305.43
305.183
304.945
304.715
304.494
304.281
304.076
303.88
303.69
303.509
303.335
303.168
303.008
302.854
302.708
302.567
302.433
302.305
302.182
302.065
301.953
301.847
301.745
301.648
301.556
301.468
301.385
301.305
301.23
301.158
301.09
301.025
300.963
300.905
300.849
300.796
300.746
300.699
300.654
300.611
300.57
300.531
300.495
300.46
300.426
300.395
300.365
300.336
300.308
300.282
300.257
300.233
300.209
300.187
300.165
300.144
300.124
300.104
300.085
300.065
300.047
300.028
300.009
321.663
321.206
320.737
320.258
319.771
319.278
318.78
318.279
317.777
317.273
316.771
316.271
315.773
315.279
314.79
314.307
313.83
313.359
312.897
312.442
311.995
311.557
311.128
310.709
310.299
309.9
309.51
309.13
308.761
308.402
308.053
307.714
307.386
307.068
306.76
306.463
306.175
305.897
305.628
305.37
305.12
304.88
304.649
304.427
304.213
304.007
303.81
303.621
303.44
303.266
303.099
302.94
302.788
302.642
302.502
302.369
302.242
302.121
302.005
301.895
301.79
301.69
301.595
301.504
301.418
301.336
301.258
301.183
301.113
301.046
300.982
300.922
300.865
300.81
300.759
300.71
300.663
300.619
300.577
300.537
300.499
300.463
300.429
300.396
300.365
300.335
300.306
300.279
300.253
300.227
300.203
300.18
300.157
300.135
300.113
300.092
300.071
300.051
300.03
300.01
323.371
322.878
322.372
321.855
321.33
320.798
320.261
319.721
319.178
318.635
318.093
317.553
317.017
316.484
315.957
315.435
314.92
314.413
313.913
313.422
312.941
312.468
312.006
311.553
311.111
310.68
310.26
309.85
309.451
309.064
308.688
308.323
307.968
307.625
307.293
306.972
306.662
306.362
306.072
305.793
305.524
305.265
305.015
304.776
304.545
304.323
304.111
303.907
303.711
303.523
303.344
303.172
303.007
302.85
302.7
302.556
302.419
302.288
302.163
302.044
301.931
301.823
301.72
301.622
301.529
301.441
301.357
301.277
301.201
301.128
301.06
300.995
300.933
300.874
300.819
300.766
300.715
300.668
300.623
300.579
300.539
300.5
300.463
300.427
300.393
300.361
300.33
300.301
300.273
300.245
300.219
300.194
300.169
300.145
300.122
300.099
300.077
300.055
300.033
300.011
325.073
324.544
324.001
323.447
322.884
322.313
321.737
321.157
320.575
319.993
319.411
318.832
318.256
317.685
317.119
316.559
316.007
315.462
314.927
314.4
313.883
313.376
312.88
312.395
311.921
311.458
311.007
310.567
310.14
309.724
309.32
308.929
308.549
308.181
307.824
307.48
307.147
306.825
306.514
306.215
305.926
305.648
305.381
305.123
304.876
304.638
304.41
304.191
303.981
303.78
303.587
303.403
303.226
303.058
302.896
302.742
302.595
302.455
302.321
302.193
302.072
301.956
301.846
301.741
301.641
301.546
301.455
301.37
301.288
301.211
301.137
301.067
301.001
300.938
300.878
300.821
300.768
300.716
300.668
300.622
300.578
300.536
300.496
300.458
300.422
300.388
300.355
300.323
300.293
300.263
300.235
300.208
300.181
300.156
300.131
300.106
300.082
300.058
300.035
300.012
326.769
326.204
325.625
325.033
324.432
323.822
323.207
322.588
321.967
321.345
320.724
320.106
319.491
318.881
318.277
317.679
317.09
316.508
315.936
315.374
314.822
314.281
313.751
313.233
312.727
312.233
311.751
311.282
310.826
310.382
309.951
309.533
309.127
308.734
308.354
307.986
307.63
307.287
306.955
306.635
306.327
306.03
305.745
305.47
305.206
304.952
304.708
304.475
304.251
304.036
303.83
303.633
303.445
303.265
303.092
302.928
302.771
302.621
302.478
302.342
302.212
302.088
301.97
301.858
301.752
301.65
301.554
301.462
301.375
301.293
301.214
301.139
301.069
301.001
300.938
300.877
300.82
300.765
300.713
300.664
300.617
300.572
300.53
300.489
300.451
300.414
300.379
300.345
300.312
300.281
300.251
300.222
300.194
300.166
300.14
300.113
300.088
300.062
300.037
300.012
328.458
327.858
327.242
326.613
325.974
325.326
324.672
324.014
323.353
322.692
322.032
321.375
320.721
320.073
319.43
318.795
318.168
317.55
316.942
316.344
315.758
315.182
314.619
314.068
313.53
313.005
312.493
311.994
311.509
311.037
310.579
310.134
309.703
309.285
308.881
308.49
308.112
307.747
307.394
307.054
306.727
306.411
306.107
305.815
305.534
305.265
305.006
304.757
304.519
304.29
304.072
303.862
303.662
303.471
303.287
303.113
302.946
302.786
302.634
302.49
302.351
302.22
302.095
301.976
301.862
301.754
301.652
301.555
301.462
301.374
301.291
301.211
301.136
301.065
300.997
300.932
300.871
300.813
300.758
300.706
300.656
300.608
300.563
300.52
300.479
300.44
300.402
300.366
300.332
300.299
300.267
300.236
300.206
300.177
300.148
300.121
300.093
300.066
300.04
300.013
330.141
329.505
328.853
328.186
327.509
326.823
326.13
325.433
324.734
324.034
323.335
322.638
321.946
321.259
320.579
319.906
319.242
318.588
317.944
317.311
316.689
316.08
315.483
314.9
314.33
313.774
313.232
312.703
312.189
311.69
311.204
310.733
310.277
309.834
309.406
308.992
308.591
308.204
307.831
307.471
307.124
306.79
306.468
306.159
305.861
305.576
305.301
305.038
304.786
304.544
304.312
304.091
303.879
303.676
303.482
303.297
303.12
302.951
302.79
302.637
302.49
302.351
302.219
302.092
301.972
301.858
301.75
301.646
301.548
301.455
301.367
301.283
301.203
301.128
301.056
300.988
300.923
300.861
300.803
300.747
300.695
300.644
300.596
300.551
300.507
300.466
300.426
300.388
300.352
300.316
300.283
300.25
300.218
300.187
300.157
300.128
300.099
300.07
300.042
300.014
331.816
331.144
330.456
329.753
329.038
328.313
327.582
326.846
326.108
325.369
324.631
323.896
323.166
322.441
321.722
321.012
320.312
319.621
318.941
318.273
317.617
316.974
316.344
315.728
315.126
314.539
313.967
313.409
312.867
312.339
311.827
311.33
310.848
310.381
309.929
309.491
309.069
308.66
308.266
307.886
307.52
307.167
306.828
306.501
306.187
305.886
305.596
305.318
305.052
304.797
304.552
304.318
304.094
303.88
303.675
303.48
303.293
303.115
302.945
302.783
302.629
302.482
302.342
302.209
302.082
301.961
301.847
301.738
301.635
301.536
301.443
301.354
301.27
301.19
301.114
301.042
300.974
300.909
300.847
300.789
300.733
300.68
300.63
300.582
300.536
300.492
300.45
300.41
300.371
300.334
300.298
300.264
300.23
300.198
300.166
300.135
300.104
300.074
300.044
300.015
333.483
332.776
332.052
331.312
330.559
329.797
329.027
328.253
327.476
326.698
325.922
325.148
324.379
323.616
322.861
322.113
321.376
320.649
319.933
319.23
318.54
317.863
317.2
316.552
315.919
315.301
314.699
314.112
313.541
312.986
312.447
311.924
311.416
310.925
310.449
309.989
309.544
309.114
308.699
308.3
307.914
307.543
307.186
306.842
306.511
306.194
305.889
305.597
305.317
305.048
304.791
304.544
304.309
304.083
303.868
303.662
303.466
303.278
303.1
302.929
302.767
302.612
302.465
302.324
302.191
302.064
301.944
301.829
301.72
301.617
301.518
301.425
301.337
301.253
301.173
301.097
301.025
300.957
300.892
300.83
300.772
300.716
300.663
300.612
300.564
300.518
300.473
300.431
300.391
300.352
300.314
300.278
300.242
300.208
300.175
300.142
300.11
300.078
300.047
300.016
335.141
334.4
333.64
332.863
332.073
331.273
330.466
329.653
328.837
328.021
327.206
326.394
325.587
324.786
323.993
323.209
322.435
321.672
320.921
320.183
319.458
318.748
318.052
317.372
316.708
316.059
315.427
314.811
314.212
313.629
313.063
312.514
311.982
311.466
310.967
310.484
310.017
309.566
309.13
308.711
308.306
307.917
307.541
307.181
306.834
306.501
306.181
305.874
305.58
305.298
305.028
304.769
304.522
304.286
304.06
303.844
303.637
303.441
303.253
303.074
302.904
302.741
302.587
302.44
302.3
302.167
302.04
301.92
301.805
301.697
301.594
301.496
301.403
301.315
301.231
301.151
301.076
301.004
300.936
300.871
300.81
300.751
300.695
300.642
300.592
300.543
300.497
300.453
300.41
300.369
300.329
300.291
300.254
300.218
300.183
300.149
300.115
300.082
300.049
300.016
336.792
336.016
335.219
334.406
333.579
332.742
331.896
331.045
330.191
329.337
328.484
327.634
326.789
325.95
325.12
324.299
323.488
322.689
321.903
321.13
320.372
319.628
318.9
318.188
317.492
316.813
316.151
315.507
314.879
314.269
313.677
313.102
312.544
312.004
311.482
310.976
310.487
310.015
309.559
309.12
308.696
308.288
307.896
307.518
307.155
306.806
306.471
306.15
305.842
305.547
305.264
304.993
304.734
304.487
304.25
304.024
303.808
303.602
303.406
303.219
303.04
302.87
302.708
302.554
302.408
302.268
302.136
302.01
301.89
301.776
301.669
301.566
301.469
301.376
301.289
301.205
301.126
301.051
300.98
300.912
300.848
300.786
300.728
300.672
300.619
300.569
300.52
300.474
300.429
300.386
300.345
300.305
300.266
300.229
300.192
300.156
300.121
300.086
300.051
300.017
338.433
337.622
336.79
335.941
335.077
334.202
333.319
332.43
331.538
330.646
329.754
328.866
327.984
327.108
326.24
325.383
324.536
323.702
322.88
322.073
321.281
320.504
319.743
318.999
318.272
317.563
316.872
316.198
315.543
314.906
314.287
313.686
313.104
312.54
311.994
311.465
310.955
310.462
309.986
309.527
309.084
308.658
308.248
307.853
307.474
307.11
306.76
306.424
306.103
305.794
305.499
305.216
304.946
304.687
304.44
304.204
303.978
303.763
303.558
303.362
303.176
302.998
302.829
302.668
302.515
302.369
302.231
302.099
301.974
301.856
301.743
301.636
301.534
301.438
301.346
301.259
301.177
301.098
301.024
300.953
300.886
300.822
300.761
300.702
300.647
300.594
300.543
300.495
300.448
300.404
300.36
300.319
300.278
300.239
300.2
300.163
300.126
300.09
300.054
300.018
340.064
339.219
338.352
337.467
336.566
335.654
334.733
333.807
332.877
331.947
331.017
330.092
329.172
328.259
327.354
326.46
325.578
324.708
323.852
323.01
322.184
321.374
320.581
319.806
319.048
318.309
317.588
316.886
316.203
315.538
314.893
314.267
313.66
313.072
312.503
311.952
311.42
310.906
310.41
309.931
309.47
309.026
308.598
308.187
307.791
307.412
307.047
306.697
306.362
306.04
305.732
305.438
305.156
304.886
304.628
304.382
304.147
303.923
303.709
303.505
303.31
303.125
302.949
302.781
302.622
302.47
302.326
302.189
302.058
301.935
301.817
301.705
301.599
301.499
301.403
301.313
301.227
301.145
301.067
300.993
300.923
300.856
300.793
300.732
300.675
300.619
300.567
300.516
300.467
300.421
300.376
300.332
300.29
300.249
300.209
300.17
300.131
300.093
300.056
300.019
341.686
340.807
339.904
338.983
338.046
337.097
336.139
335.175
334.208
333.24
332.273
331.31
330.352
329.402
328.462
327.531
326.613
325.708
324.817
323.941
323.082
322.239
321.414
320.608
319.819
319.05
318.3
317.569
316.858
316.167
315.496
314.845
314.213
313.601
313.009
312.436
311.882
311.347
310.831
310.333
309.853
309.391
308.946
308.518
308.107
307.712
307.332
306.968
306.619
306.285
305.964
305.658
305.364
305.084
304.816
304.559
304.315
304.081
303.859
303.647
303.444
303.252
303.068
302.894
302.728
302.57
302.42
302.277
302.142
302.013
301.891
301.774
301.664
301.559
301.46
301.366
301.276
301.191
301.11
301.034
300.961
300.891
300.825
300.762
300.702
300.644
300.589
300.537
300.486
300.438
300.391
300.346
300.302
300.259
300.217
300.177
300.137
300.097
300.058
300.019
343.297
342.384
341.447
340.49
339.517
338.531
337.536
336.535
335.53
334.525
333.52
332.52
331.526
330.539
329.562
328.596
327.642
326.702
325.776
324.867
323.974
323.099
322.242
321.404
320.585
319.786
319.007
318.248
317.51
316.792
316.095
315.419
314.763
314.127
313.512
312.917
312.341
311.786
311.25
310.732
310.234
309.754
309.292
308.847
308.42
308.01
307.616
307.238
306.875
306.528
306.195
305.876
305.572
305.28
305.002
304.736
304.482
304.239
304.008
303.788
303.578
303.378
303.187
303.006
302.833
302.669
302.513
302.365
302.224
302.091
301.964
301.843
301.728
301.62
301.517
301.419
301.326
301.237
301.153
301.074
300.998
300.926
300.857
300.791
300.729
300.669
300.612
300.558
300.505
300.455
300.406
300.359
300.313
300.269
300.226
300.183
300.142
300.101
300.06
300.02
344.898
343.951
342.979
341.987
340.978
339.956
338.924
337.886
336.844
335.801
334.76
333.722
332.691
331.668
330.655
329.653
328.664
327.689
326.729
325.786
324.861
323.953
323.065
322.195
321.346
320.518
319.71
318.923
318.158
317.413
316.69
315.989
315.308
314.649
314.011
313.394
312.798
312.222
311.665
311.129
310.612
310.114
309.635
309.174
308.731
308.306
307.897
307.505
307.129
306.769
306.424
306.094
305.778
305.475
305.187
304.911
304.647
304.396
304.156
303.928
303.71
303.502
303.305
303.117
302.938
302.768
302.606
302.453
302.307
302.168
302.036
301.911
301.792
301.68
301.573
301.471
301.375
301.283
301.196
301.113
301.035
300.96
300.889
300.821
300.756
300.694
300.635
300.578
300.524
300.471
300.421
300.372
300.325
300.279
300.234
300.19
300.147
300.105
300.063
300.021
346.488
345.507
344.501
343.474
342.429
341.371
340.302
339.227
338.148
337.068
335.99
334.916
333.849
332.789
331.74
330.703
329.679
328.669
327.676
326.699
325.741
324.801
323.881
322.981
322.102
321.244
320.408
319.593
318.8
318.03
317.281
316.555
315.85
315.168
314.507
313.868
313.251
312.654
312.078
311.523
310.988
310.473
309.976
309.499
309.041
308.6
308.177
307.771
307.382
307.009
306.651
306.309
305.982
305.669
305.37
305.085
304.812
304.552
304.303
304.067
303.841
303.626
303.422
303.227
303.042
302.866
302.699
302.539
302.388
302.245
302.108
301.979
301.856
301.739
301.628
301.523
301.423
301.328
301.238
301.153
301.071
300.994
300.92
300.85
300.783
300.719
300.657
300.599
300.542
300.488
300.436
300.385
300.336
300.289
300.242
300.197
300.152
300.108
300.065
300.022
348.066
347.052
346.012
344.949
343.869
342.775
341.67
340.559
339.443
338.327
337.212
336.102
334.998
333.902
332.818
331.745
330.686
329.642
328.615
327.606
326.615
325.643
324.692
323.762
322.853
321.965
321.101
320.258
319.439
318.642
317.868
317.117
316.389
315.683
315
314.339
313.701
313.084
312.489
311.914
311.361
310.828
310.315
309.822
309.347
308.892
308.454
308.035
307.632
307.247
306.877
306.524
306.185
305.862
305.553
305.257
304.975
304.706
304.449
304.205
303.972
303.75
303.538
303.337
303.145
302.963
302.79
302.626
302.469
302.321
302.18
302.046
301.919
301.798
301.684
301.575
301.472
301.373
301.28
301.192
301.108
301.027
300.951
300.879
300.809
300.743
300.68
300.619
300.561
300.505
300.451
300.398
300.348
300.299
300.251
300.204
300.158
300.112
300.067
300.022
349.632
348.585
347.511
346.414
345.299
344.169
343.028
341.88
340.729
339.576
338.425
337.278
336.138
335.007
333.887
332.779
331.686
330.608
329.548
328.505
327.482
326.479
325.497
324.536
323.597
322.681
321.788
320.918
320.072
319.249
318.45
317.675
316.923
316.194
315.489
314.807
314.147
313.51
312.896
312.303
311.731
311.181
310.651
310.142
309.652
309.182
308.73
308.297
307.881
307.483
307.101
306.736
306.387
306.053
305.733
305.429
305.137
304.86
304.594
304.342
304.101
303.872
303.653
303.446
303.248
303.06
302.881
302.711
302.55
302.397
302.251
302.113
301.981
301.857
301.738
301.626
301.52
301.418
301.322
301.231
301.144
301.061
300.982
300.907
300.836
300.767
300.702
300.639
300.579
300.521
300.465
300.411
300.359
300.308
300.259
300.21
300.163
300.116
300.069
300.023
351.186
350.107
348.999
347.868
346.717
345.552
344.376
343.192
342.004
340.815
339.628
338.445
337.27
336.103
334.948
333.806
332.678
331.567
330.473
329.398
328.342
327.308
326.295
325.304
324.336
323.391
322.47
321.573
320.701
319.852
319.028
318.228
317.452
316.701
315.974
315.27
314.59
313.933
313.299
312.688
312.099
311.531
310.985
310.459
309.954
309.469
309.003
308.556
308.128
307.717
307.324
306.947
306.587
306.242
305.913
305.598
305.298
305.012
304.738
304.478
304.229
303.993
303.768
303.553
303.35
303.156
302.971
302.796
302.63
302.472
302.321
302.179
302.043
301.915
301.793
301.677
301.567
301.463
301.363
301.269
301.179
301.094
301.013
300.936
300.862
300.791
300.724
300.659
300.597
300.537
300.48
300.424
300.37
300.318
300.267
300.217
300.168
300.119
300.071
300.024
352.728
351.616
350.474
349.309
348.124
346.924
345.712
344.493
343.269
342.044
340.821
339.603
338.392
337.191
336
334.824
333.662
332.517
331.391
330.283
329.196
328.13
327.087
326.066
325.069
324.096
323.147
322.223
321.324
320.45
319.601
318.777
317.978
317.204
316.455
315.73
315.029
314.353
313.7
313.07
312.463
311.878
311.316
310.774
310.254
309.754
309.274
308.814
308.373
307.949
307.544
307.156
306.785
306.43
306.091
305.767
305.458
305.163
304.881
304.613
304.357
304.113
303.881
303.66
303.45
303.251
303.061
302.88
302.709
302.546
302.391
302.244
302.105
301.973
301.847
301.728
301.614
301.507
301.404
301.307
301.215
301.127
301.043
300.964
300.888
300.815
300.746
300.679
300.615
300.554
300.494
300.437
300.382
300.328
300.275
300.223
300.173
300.123
300.074
300.024
354.256
353.112
351.938
350.738
349.519
348.284
347.037
345.782
344.523
343.263
342.005
340.751
339.505
338.269
337.044
335.833
334.638
333.46
332.301
331.161
330.042
328.946
327.872
326.822
325.796
324.794
323.818
322.867
321.942
321.043
320.169
319.321
318.499
317.703
316.932
316.186
315.465
314.769
314.097
313.449
312.824
312.223
311.644
311.087
310.551
310.037
309.543
309.069
308.615
308.18
307.763
307.364
306.982
306.617
306.268
305.934
305.616
305.312
305.023
304.746
304.483
304.232
303.994
303.767
303.55
303.345
303.15
302.964
302.787
302.62
302.461
302.309
302.166
302.03
301.9
301.778
301.661
301.55
301.445
301.345
301.25
301.16
301.074
300.992
300.913
300.839
300.767
300.699
300.633
300.57
300.509
300.45
300.393
300.337
300.283
300.23
300.178
300.127
300.076
300.025
355.771
354.595
353.388
352.155
350.902
349.632
348.35
347.061
345.766
344.471
343.178
341.889
340.608
339.337
338.078
336.834
335.605
334.394
333.202
332.031
330.881
329.754
328.65
327.571
326.516
325.487
324.483
323.506
322.555
321.63
320.732
319.861
319.016
318.197
317.405
316.638
315.897
315.181
314.491
313.824
313.182
312.564
311.969
311.396
310.846
310.317
309.81
309.323
308.856
308.408
307.98
307.569
307.177
306.801
306.443
306.1
305.773
305.461
305.163
304.879
304.608
304.351
304.105
303.872
303.65
303.438
303.238
303.047
302.865
302.693
302.529
302.374
302.226
302.086
301.953
301.827
301.707
301.594
301.486
301.383
301.285
301.192
301.104
301.019
300.939
300.862
300.789
300.718
300.651
300.586
300.523
300.462
300.404
300.347
300.291
300.236
300.183
300.13
300.078
300.026
357.273
356.065
354.825
353.559
352.272
350.968
349.652
348.328
346.998
345.668
344.34
343.017
341.701
340.396
339.104
337.825
336.564
335.32
334.096
332.893
331.712
330.555
329.421
328.313
327.23
326.173
325.142
324.139
323.162
322.212
321.29
320.395
319.528
318.687
317.873
317.086
316.325
315.59
314.881
314.197
313.537
312.902
312.291
311.703
311.138
310.595
310.074
309.574
309.094
308.635
308.194
307.773
307.37
306.984
306.616
306.264
305.928
305.608
305.302
305.01
304.732
304.468
304.216
303.976
303.748
303.531
303.325
303.129
302.942
302.765
302.597
302.438
302.286
302.143
302.006
301.876
301.753
301.637
301.526
301.42
301.32
301.224
301.133
301.047
300.964
300.885
300.81
300.738
300.668
300.601
300.537
300.475
300.414
300.356
300.299
300.243
300.188
300.134
300.08
300.027
358.76
357.52
356.249
354.95
353.629
352.292
350.941
349.582
348.219
346.854
345.491
344.134
342.784
341.445
340.119
338.808
337.513
336.237
334.982
333.747
332.536
331.348
330.185
329.048
327.937
326.852
325.795
324.765
323.763
322.789
321.843
320.925
320.035
319.172
318.337
317.529
316.749
315.995
315.267
314.565
313.889
313.237
312.61
312.007
311.427
310.87
310.335
309.822
309.33
308.859
308.407
307.975
307.561
307.166
306.788
306.427
306.082
305.753
305.439
305.14
304.855
304.584
304.325
304.079
303.845
303.623
303.411
303.21
303.019
302.837
302.665
302.501
302.346
302.198
302.058
301.925
301.799
301.679
301.565
301.457
301.354
301.256
301.163
301.074
300.989
300.908
300.831
300.757
300.685
300.617
300.551
300.487
300.425
300.365
300.306
300.249
300.193
300.137
300.082
300.027
360.232
358.962
357.658
356.327
354.973
353.602
352.218
350.825
349.427
348.028
346.631
345.24
343.856
342.484
341.124
339.78
338.453
337.146
335.858
334.593
333.351
332.134
330.942
329.776
328.637
327.525
326.442
325.386
324.359
323.36
322.391
321.449
320.537
319.653
318.797
317.969
317.169
316.396
315.65
314.93
314.237
313.569
312.926
312.308
311.713
311.143
310.594
310.068
309.564
309.081
308.618
308.175
307.751
307.345
306.958
306.588
306.235
305.897
305.576
305.269
304.977
304.699
304.434
304.181
303.942
303.713
303.496
303.29
303.094
302.908
302.732
302.564
302.405
302.253
302.11
301.973
301.844
301.721
301.604
301.493
301.388
301.288
301.192
301.101
301.014
300.931