/*--------------------------------*- C++ -*----------------------------------*\
| =========                 |                                                 |
| \\      /  F ield         | OpenFOAM: The Open Source CFD Toolbox           |
|  \\    /   O peration     | Version:  2406                                  |
|   \\  /    A nd           | Website:  www.openfoam.com                      |
|    \\/     M anipulation  |                                                 |
\*---------------------------------------------------------------------------*/
FoamFile
{
    version     2.0;
    format      ascii;
    arch        "LSB;label=32;scalar=64";
    class       volVectorField;
    location    "55";
    object      flux;
}
// * * * * * * * * * * * * * * * * * * * * * * * * * * * * * * * * * * * * * //

dimensions      [0 1 -1 1 0 0 0];

internalField   nonuniform List<vector> 
20000
(
(-0.00241448 0.111761 0)
(-0.00234355 0.107003 0)
(-0.00227267 0.102388 0)
(-0.0022018 0.0979134 0)
(-0.00213146 0.0935806 0)
(-0.0020619 0.0893879 0)
(-0.00199252 0.085334 0)
(-0.00192381 0.0814185 0)
(-0.0018564 0.077639 0)
(-0.00179001 0.0739932 0)
(-0.0017245 0.0704794 0)
(-0.00166002 0.0670957 0)
(-0.00159678 0.0638398 0)
(-0.00153489 0.060709 0)
(-0.00147438 0.0577006 0)
(-0.00141529 0.0548118 0)
(-0.00135762 0.0520398 0)
(-0.0013014 0.0493817 0)
(-0.00124665 0.0468345 0)
(-0.00119341 0.0443954 0)
(-0.00114168 0.0420612 0)
(-0.00109148 0.0398289 0)
(-0.00104281 0.0376955 0)
(-0.000995666 0.035658 0)
(-0.000950053 0.0337131 0)
(-0.000905959 0.031858 0)
(-0.000863373 0.0300895 0)
(-0.00082228 0.0284047 0)
(-0.000782662 0.0268006 0)
(-0.0007445 0.0252743 0)
(-0.000707771 0.0238228 0)
(-0.00067245 0.0224433 0)
(-0.000638511 0.0211331 0)
(-0.000605926 0.0198895 0)
(-0.000574667 0.0187096 0)
(-0.000544701 0.0175909 0)
(-0.000515998 0.0165309 0)
(-0.000488526 0.0155271 0)
(-0.00046225 0.0145769 0)
(-0.000437139 0.0136782 0)
(-0.000413156 0.0128285 0)
(-0.000390269 0.0120257 0)
(-0.000368442 0.0112675 0)
(-0.000347641 0.010552 0)
(-0.000327832 0.00987704 0)
(-0.00030898 0.00924073 0)
(-0.000291052 0.00864119 0)
(-0.000274014 0.0080766 0)
(-0.000257832 0.0075452 0)
(-0.000242474 0.00704533 0)
(-0.000227907 0.00657537 0)
(-0.0002141 0.00613376 0)
(-0.000201022 0.00571902 0)
(-0.000188642 0.00532973 0)
(-0.000176931 0.0049645 0)
(-0.000165859 0.00462205 0)
(-0.0001554 0.00430111 0)
(-0.000145524 0.00400049 0)
(-0.000136206 0.00371904 0)
(-0.00012742 0.00345569 0)
(-0.000119141 0.0032094 0)
(-0.000111344 0.00297916 0)
(-0.000104007 0.00276405 0)
(-9.7106e-05 0.00256316 0)
(-9.06204e-05 0.00237565 0)
(-8.4529e-05 0.0022007 0)
(-7.88119e-05 0.00203755 0)
(-7.34496e-05 0.00188547 0)
(-6.84238e-05 0.00174377 0)
(-6.37167e-05 0.00161179 0)
(-5.93116e-05 0.00148892 0)
(-5.51922e-05 0.00137456 0)
(-5.13432e-05 0.00126816 0)
(-4.77498e-05 0.0011692 0)
(-4.43982e-05 0.00107718 0)
(-4.12751e-05 0.00099162 0)
(-3.83679e-05 0.000912086 0)
(-3.56647e-05 0.000838157 0)
(-3.31542e-05 0.000769436 0)
(-3.08259e-05 0.000705549 0)
(-2.86696e-05 0.00064614 0)
(-2.6676e-05 0.000590877 0)
(-2.48363e-05 0.000539443 0)
(-2.31421e-05 0.000491538 0)
(-2.15858e-05 0.00044688 0)
(-2.01602e-05 0.0004052 0)
(-1.88586e-05 0.000366244 0)
(-1.76749e-05 0.00032977 0)
(-1.66033e-05 0.000295549 0)
(-1.56387e-05 0.000263361 0)
(-1.47765e-05 0.000232998 0)
(-1.40123e-05 0.000204259 0)
(-1.33423e-05 0.000176952 0)
(-1.27633e-05 0.000150893 0)
(-1.22724e-05 0.000125902 0)
(-1.18671e-05 0.000101806 0)
(-1.15453e-05 7.84366e-05 0)
(-1.13054e-05 5.56278e-05 0)
(-1.11461e-05 3.32178e-05 0)
(-1.10666e-05 1.10461e-05 0)
(-0.00724293 0.111734 0)
(-0.00702986 0.106977 0)
(-0.00681712 0.102362 0)
(-0.00660516 0.0978893 0)
(-0.00639403 0.0935573 0)
(-0.00618476 0.0893658 0)
(-0.00597692 0.0853133 0)
(-0.00577124 0.0813985 0)
(-0.0055689 0.0776196 0)
(-0.00536953 0.0739748 0)
(-0.00517295 0.070462 0)
(-0.00497959 0.0670792 0)
(-0.00478994 0.0638241 0)
(-0.0046043 0.0606941 0)
(-0.00442281 0.0576864 0)
(-0.00424553 0.0547983 0)
(-0.00407252 0.052027 0)
(-0.00390387 0.0493695 0)
(-0.00373965 0.046823 0)
(-0.00357993 0.0443844 0)
(-0.00342476 0.0420508 0)
(-0.00327416 0.0398191 0)
(-0.00312816 0.0376863 0)
(-0.00298675 0.0356492 0)
(-0.00284993 0.0337048 0)
(-0.00271765 0.0318501 0)
(-0.00258991 0.0300821 0)
(-0.00246664 0.0283977 0)
(-0.00234779 0.026794 0)
(-0.00223332 0.025268 0)
(-0.00212314 0.0238169 0)
(-0.00201718 0.0224378 0)
(-0.00191538 0.0211279 0)
(-0.00181763 0.0198846 0)
(-0.00172386 0.018705 0)
(-0.00163397 0.0175866 0)
(-0.00154787 0.0165268 0)
(-0.00146546 0.0155232 0)
(-0.00138664 0.0145733 0)
(-0.00131131 0.0136748 0)
(-0.00123937 0.0128253 0)
(-0.00117071 0.0120227 0)
(-0.00110523 0.0112647 0)
(-0.00104284 0.0105494 0)
(-0.000983415 0.0098746 0)
(-0.000926865 0.00923846 0)
(-0.000873085 0.00863906 0)
(-0.000821974 0.00807461 0)
(-0.000773432 0.00754335 0)
(-0.000727361 0.0070436 0)
(-0.000683664 0.00657375 0)
(-0.000642247 0.00613225 0)
(-0.000603015 0.00571761 0)
(-0.000565879 0.00532841 0)
(-0.000530749 0.00496328 0)
(-0.000497538 0.00462091 0)
(-0.000466161 0.00430005 0)
(-0.000436537 0.0039995 0)
(-0.000408585 0.00371813 0)
(-0.000382229 0.00345484 0)
(-0.000357393 0.0032086 0)
(-0.000334005 0.00297843 0)
(-0.000311994 0.00276337 0)
(-0.000291294 0.00256253 0)
(-0.000271839 0.00237506 0)
(-0.000253566 0.00220016 0)
(-0.000236416 0.00203705 0)
(-0.000220331 0.00188501 0)
(-0.000205254 0.00174334 0)
(-0.000191134 0.0016114 0)
(-0.00017792 0.00148855 0)
(-0.000165563 0.00137422 0)
(-0.000154017 0.00126785 0)
(-0.000143238 0.00116891 0)
(-0.000133184 0.00107691 0)
(-0.000123815 0.000991376 0)
(-0.000115094 0.000911862 0)
(-0.000106985 0.000837951 0)
(-9.94546e-05 0.000769247 0)
(-9.24701e-05 0.000705375 0)
(-8.60018e-05 0.000645981 0)
(-8.00215e-05 0.000590732 0)
(-7.45028e-05 0.00053931 0)
(-6.94207e-05 0.000491417 0)
(-6.47522e-05 0.00044677 0)
(-6.04757e-05 0.0004051 0)
(-5.65712e-05 0.000366154 0)
(-5.30202e-05 0.000329689 0)
(-4.98058e-05 0.000295476 0)
(-4.69124e-05 0.000263296 0)
(-4.43258e-05 0.000232941 0)
(-4.20333e-05 0.000204209 0)
(-4.00236e-05 0.000176909 0)
(-3.82869e-05 0.000150856 0)
(-3.68143e-05 0.000125871 0)
(-3.55984e-05 0.000101781 0)
(-3.46331e-05 7.84173e-05 0)
(-3.39134e-05 5.56142e-05 0)
(-3.34356e-05 3.32097e-05 0)
(-3.31973e-05 1.10434e-05 0)
(-0.0120697 0.111679 0)
(-0.0117148 0.106924 0)
(-0.0113601 0.102312 0)
(-0.0110068 0.0978409 0)
(-0.010655 0.0935111 0)
(-0.0103059 0.0893218 0)
(-0.00995982 0.0852713 0)
(-0.00961744 0.0813583 0)
(-0.00928014 0.0775812 0)
(-0.00894767 0.0739381 0)
(-0.00862002 0.0704272 0)
(-0.00829786 0.0670462 0)
(-0.00798191 0.0637927 0)
(-0.00767261 0.0606642 0)
(-0.00737017 0.057658 0)
(-0.00707474 0.0547713 0)
(-0.00678643 0.0520013 0)
(-0.00650539 0.0493451 0)
(-0.00623173 0.0467999 0)
(-0.00596557 0.0443625 0)
(-0.00570699 0.0420301 0)
(-0.00545604 0.0397995 0)
(-0.00521274 0.0376677 0)
(-0.0049771 0.0356316 0)
(-0.00474909 0.0336882 0)
(-0.00452868 0.0318344 0)
(-0.0043158 0.0300673 0)
(-0.00411038 0.0283837 0)
(-0.00391235 0.0267808 0)
(-0.00372158 0.0252556 0)
(-0.00353798 0.0238052 0)
(-0.00336142 0.0224267 0)
(-0.00319177 0.0211175 0)
(-0.00302888 0.0198747 0)
(-0.00287262 0.0186958 0)
(-0.00272283 0.0175779 0)
(-0.00257936 0.0165187 0)
(-0.00244203 0.0155156 0)
(-0.00231068 0.0145662 0)
(-0.00218515 0.0136681 0)
(-0.00206527 0.012819 0)
(-0.00195086 0.0120168 0)
(-0.00184175 0.0112592 0)
(-0.00173778 0.0105442 0)
(-0.00163876 0.00986973 0)
(-0.00154452 0.0092339 0)
(-0.0014549 0.0086348 0)
(-0.00136973 0.00807062 0)
(-0.00128884 0.00753962 0)
(-0.00121207 0.00704012 0)
(-0.00113925 0.00657051 0)
(-0.00107024 0.00612923 0)
(-0.00100486 0.00571479 0)
(-0.000942977 0.00532578 0)
(-0.000884436 0.00496083 0)
(-0.000829093 0.00461863 0)
(-0.000776807 0.00429793 0)
(-0.000727442 0.00399753 0)
(-0.000680864 0.00371629 0)
(-0.000636944 0.00345314 0)
(-0.000595557 0.00320702 0)
(-0.000556583 0.00297696 0)
(-0.000519905 0.002762 0)
(-0.00048541 0.00256126 0)
(-0.00045299 0.00237389 0)
(-0.000422541 0.00219907 0)
(-0.000393962 0.00203604 0)
(-0.000367157 0.00188408 0)
(-0.000342035 0.00174248 0)
(-0.000318505 0.0016106 0)
(-0.000296485 0.00148782 0)
(-0.000275893 0.00137355 0)
(-0.000256653 0.00126723 0)
(-0.00023869 0.00116834 0)
(-0.000221937 0.00107638 0)
(-0.000206325 0.000990887 0)
(-0.000191792 0.000911412 0)
(-0.00017828 0.000837538 0)
(-0.00016573 0.000768868 0)
(-0.000154091 0.000705027 0)
(-0.000143313 0.000645663 0)
(-0.000133347 0.000590441 0)
(-0.000124151 0.000539044 0)
(-0.000115682 0.000491175 0)
(-0.000107903 0.00044655 0)
(-0.000100776 0.000404901 0)
(-9.42698e-05 0.000365974 0)
(-8.83526e-05 0.000329527 0)
(-8.29961e-05 0.000295331 0)
(-7.81745e-05 0.000263167 0)
(-7.38641e-05 0.000232826 0)
(-7.0044e-05 0.000204108 0)
(-6.66951e-05 0.000176822 0)
(-6.3801e-05 0.000150782 0)
(-6.13471e-05 0.000125809 0)
(-5.9321e-05 0.000101731 0)
(-5.77124e-05 7.83787e-05 0)
(-5.65131e-05 5.55869e-05 0)
(-5.57169e-05 3.31933e-05 0)
(-5.53197e-05 1.1038e-05 0)
(-0.0168933 0.111596 0)
(-0.0163969 0.106845 0)
(-0.0159004 0.102236 0)
(-0.0154056 0.0977685 0)
(-0.0149132 0.093442 0)
(-0.0144246 0.0892556 0)
(-0.0139404 0.085208 0)
(-0.0134613 0.0812979 0)
(-0.0129891 0.0775236 0)
(-0.0125235 0.0738833 0)
(-0.0120649 0.070375 0)
(-0.0116141 0.0669966 0)
(-0.0111719 0.0637455 0)
(-0.010739 0.0606193 0)
(-0.0103157 0.0576153 0)
(-0.00990222 0.0547307 0)
(-0.00949868 0.0519628 0)
(-0.0091053 0.0493086 0)
(-0.00872227 0.0467652 0)
(-0.00834974 0.0443297 0)
(-0.00798781 0.0419989 0)
(-0.00763657 0.03977 0)
(-0.00729604 0.0376398 0)
(-0.00696622 0.0356052 0)
(-0.00664709 0.0336632 0)
(-0.00633859 0.0318108 0)
(-0.00604063 0.030045 0)
(-0.00575312 0.0283627 0)
(-0.00547593 0.0267609 0)
(-0.00520893 0.0252369 0)
(-0.00495195 0.0237875 0)
(-0.00470483 0.0224101 0)
(-0.00446737 0.0211019 0)
(-0.00423939 0.01986 0)
(-0.00402068 0.0186819 0)
(-0.00381103 0.0175649 0)
(-0.00361021 0.0165065 0)
(-0.00341799 0.0155041 0)
(-0.00323416 0.0145554 0)
(-0.00305846 0.0136579 0)
(-0.00289067 0.0128095 0)
(-0.00273053 0.0120079 0)
(-0.00257782 0.0112508 0)
(-0.00243229 0.0105364 0)
(-0.00229369 0.00986242 0)
(-0.0021618 0.00922706 0)
(-0.00203636 0.00862841 0)
(-0.00191715 0.00806465 0)
(-0.00180393 0.00753404 0)
(-0.00169648 0.00703491 0)
(-0.00159456 0.00656564 0)
(-0.00149796 0.00612469 0)
(-0.00140646 0.00571056 0)
(-0.00131984 0.00532184 0)
(-0.0012379 0.00495716 0)
(-0.00116044 0.00461521 0)
(-0.00108726 0.00429474 0)
(-0.00101817 0.00399457 0)
(-0.000952974 0.00371354 0)
(-0.000891501 0.00345058 0)
(-0.000833575 0.00320465 0)
(-0.000779024 0.00297475 0)
(-0.000727688 0.00275996 0)
(-0.000679407 0.00255937 0)
(-0.00063403 0.00237213 0)
(-0.000591412 0.00219745 0)
(-0.000551411 0.00203454 0)
(-0.000513894 0.00188268 0)
(-0.00047873 0.00174119 0)
(-0.000445797 0.00160941 0)
(-0.000414977 0.00148672 0)
(-0.000386155 0.00137253 0)
(-0.000359225 0.00126629 0)
(-0.000334084 0.00116747 0)
(-0.000310635 0.00107558 0)
(-0.000288784 0.000990154 0)
(-0.000268443 0.000910738 0)
(-0.00024953 0.000836918 0)
(-0.000231965 0.000768299 0)
(-0.000215675 0.000704506 0)
(-0.000200588 0.000645185 0)
(-0.00018664 0.000590004 0)
(-0.000173768 0.000538646 0)
(-0.000161915 0.000490812 0)
(-0.000151026 0.00044622 0)
(-0.000141052 0.000404602 0)
(-0.000131945 0.000365703 0)
(-0.000123663 0.000329283 0)
(-0.000116166 0.000295112 0)
(-0.000109417 0.000262972 0)
(-0.000103384 0.000232654 0)
(-9.80374e-05 0.000203957 0)
(-9.33501e-05 0.000176691 0)
(-8.92993e-05 0.00015067 0)
(-8.58648e-05 0.000125716 0)
(-8.30289e-05 0.000101656 0)
(-8.07774e-05 7.83209e-05 0)
(-7.90988e-05 5.55459e-05 0)
(-7.79845e-05 3.31689e-05 0)
(-7.74286e-05 1.10299e-05 0)
(-0.0217126 0.111485 0)
(-0.0210746 0.106739 0)
(-0.0204367 0.102135 0)
(-0.0198007 0.097672 0)
(-0.0191678 0.0933497 0)
(-0.0185399 0.0891674 0)
(-0.0179175 0.0851238 0)
(-0.0173019 0.0812175 0)
(-0.0166947 0.077447 0)
(-0.0160962 0.0738103 0)
(-0.0155068 0.0703056 0)
(-0.0149274 0.0669304 0)
(-0.0143592 0.0636826 0)
(-0.0138028 0.0605595 0)
(-0.0132588 0.0575584 0)
(-0.0127273 0.0546767 0)
(-0.0122086 0.0519115 0)
(-0.011703 0.0492599 0)
(-0.0112107 0.046719 0)
(-0.0107318 0.0442859 0)
(-0.0102667 0.0419574 0)
(-0.00981521 0.0397307 0)
(-0.00937753 0.0376026 0)
(-0.00895362 0.03557 0)
(-0.00854345 0.03363 0)
(-0.00814693 0.0317794 0)
(-0.00776397 0.0300153 0)
(-0.00739443 0.0283347 0)
(-0.00703817 0.0267345 0)
(-0.00669499 0.0252119 0)
(-0.0063647 0.023764 0)
(-0.00604707 0.022388 0)
(-0.00574187 0.021081 0)
(-0.00544885 0.0198404 0)
(-0.00516775 0.0186635 0)
(-0.00489828 0.0175476 0)
(-0.00464017 0.0164902 0)
(-0.00439312 0.0154888 0)
(-0.00415683 0.014541 0)
(-0.00393101 0.0136445 0)
(-0.00371535 0.0127969 0)
(-0.00350953 0.011996 0)
(-0.00331325 0.0112397 0)
(-0.0031262 0.010526 0)
(-0.00294806 0.00985269 0)
(-0.00277854 0.00921795 0)
(-0.00261732 0.00861989 0)
(-0.0024641 0.00805669 0)
(-0.00231858 0.0075266 0)
(-0.00218047 0.00702797 0)
(-0.00204948 0.00655916 0)
(-0.00192531 0.00611864 0)
(-0.00180771 0.00570493 0)
(-0.00169638 0.00531659 0)
(-0.00159107 0.00495227 0)
(-0.00149151 0.00461065 0)
(-0.00139745 0.0042905 0)
(-0.00130864 0.00399063 0)
(-0.00122485 0.00370988 0)
(-0.00114584 0.00344718 0)
(-0.00107139 0.00320149 0)
(-0.00100127 0.00297182 0)
(-0.000935291 0.00275723 0)
(-0.000873236 0.00255684 0)
(-0.000814913 0.00236979 0)
(-0.000760136 0.00219528 0)
(-0.000708724 0.00203253 0)
(-0.000660503 0.00188083 0)
(-0.000615308 0.00173947 0)
(-0.000572979 0.00160782 0)
(-0.000533366 0.00148525 0)
(-0.000496322 0.00137118 0)
(-0.000461709 0.00126504 0)
(-0.000429396 0.00116632 0)
(-0.000399256 0.00107452 0)
(-0.000371171 0.000989177 0)
(-0.000345028 0.00090984 0)
(-0.000320719 0.000836093 0)
(-0.000298143 0.000767541 0)
(-0.000277205 0.000703811 0)
(-0.000257815 0.000644549 0)
(-0.000239887 0.000589422 0)
(-0.000223343 0.000538114 0)
(-0.000208108 0.000490328 0)
(-0.000194113 0.00044578 0)
(-0.000181293 0.000404203 0)
(-0.000169588 0.000365343 0)
(-0.000158943 0.000328959 0)
(-0.000149307 0.000294822 0)
(-0.000140633 0.000262713 0)
(-0.000132879 0.000232425 0)
(-0.000126007 0.000203757 0)
(-0.000119982 0.000176517 0)
(-0.000114776 0.000150522 0)
(-0.000110361 0.000125593 0)
(-0.000106716 0.000101556 0)
(-0.000103823 7.82438e-05 0)
(-0.000101665 5.54912e-05 0)
(-0.000100233 3.31362e-05 0)
(-9.95185e-05 1.1019e-05 0)
(-0.0265266 0.111348 0)
(-0.0257471 0.106608 0)
(-0.0249679 0.102009 0)
(-0.0241909 0.0975513 0)
(-0.0234178 0.0932343 0)
(-0.0226506 0.0890571 0)
(-0.0218903 0.0850185 0)
(-0.0211381 0.0811171 0)
(-0.0203962 0.0773513 0)
(-0.0196649 0.0737192 0)
(-0.0189448 0.0702187 0)
(-0.018237 0.0668478 0)
(-0.0175429 0.063604 0)
(-0.0168632 0.0604847 0)
(-0.0161985 0.0574873 0)
(-0.0155492 0.0546092 0)
(-0.0149155 0.0518473 0)
(-0.0142978 0.049199 0)
(-0.0136963 0.0466613 0)
(-0.0131113 0.0442312 0)
(-0.012543 0.0419056 0)
(-0.0119914 0.0396816 0)
(-0.0114567 0.0375561 0)
(-0.0109388 0.0355261 0)
(-0.0104377 0.0335884 0)
(-0.00995326 0.0317402 0)
(-0.00948539 0.0299782 0)
(-0.00903392 0.0282997 0)
(-0.00859867 0.0267015 0)
(-0.0081794 0.0251808 0)
(-0.00777588 0.0237347 0)
(-0.00738783 0.0223604 0)
(-0.00701496 0.021055 0)
(-0.00665697 0.0198159 0)
(-0.00631354 0.0186404 0)
(-0.00598432 0.0175259 0)
(-0.00566898 0.0164698 0)
(-0.00536716 0.0154697 0)
(-0.00507849 0.014523 0)
(-0.0048026 0.0136276 0)
(-0.00453911 0.0127811 0)
(-0.00428766 0.0119812 0)
(-0.00404786 0.0112259 0)
(-0.00381934 0.010513 0)
(-0.00360171 0.00984052 0)
(-0.00339459 0.00920657 0)
(-0.00319763 0.00860925 0)
(-0.00301043 0.00804674 0)
(-0.00283265 0.00751731 0)
(-0.00266392 0.00701929 0)
(-0.00250388 0.00655106 0)
(-0.00235219 0.00611109 0)
(-0.00220851 0.00569788 0)
(-0.0020725 0.00531002 0)
(-0.00194384 0.00494615 0)
(-0.00182221 0.00460496 0)
(-0.00170729 0.00428521 0)
(-0.00159879 0.0039857 0)
(-0.00149642 0.0037053 0)
(-0.00139989 0.00344292 0)
(-0.00130893 0.00319753 0)
(-0.00122328 0.00296815 0)
(-0.00114266 0.00275383 0)
(-0.00106685 0.00255369 0)
(-0.000995596 0.00236687 0)
(-0.000928674 0.00219257 0)
(-0.000865862 0.00203002 0)
(-0.00080695 0.0018785 0)
(-0.000751734 0.00173733 0)
(-0.00070002 0.00160584 0)
(-0.000651624 0.00148342 0)
(-0.000606366 0.00136948 0)
(-0.000564079 0.00126348 0)
(-0.000524601 0.00116488 0)
(-0.000487779 0.0010732 0)
(-0.000453467 0.000987957 0)
(-0.000421527 0.000908717 0)
(-0.000391828 0.000835061 0)
(-0.000364247 0.000766594 0)
(-0.000338667 0.000702943 0)
(-0.000314977 0.000643754 0)
(-0.000293075 0.000588695 0)
(-0.000272863 0.000537451 0)
(-0.00025425 0.000489723 0)
(-0.000237152 0.00044523 0)
(-0.000221489 0.000403704 0)
(-0.000207189 0.000364892 0)
(-0.000194184 0.000328553 0)
(-0.000182411 0.000294458 0)
(-0.000171814 0.000262389 0)
(-0.000162341 0.000232138 0)
(-0.000153945 0.000203506 0)
(-0.000146585 0.0001763 0)
(-0.000140224 0.000150337 0)
(-0.000134831 0.000125438 0)
(-0.000130378 0.000101431 0)
(-0.000126842 7.81475e-05 0)
(-0.000124206 5.54228e-05 0)
(-0.000122457 3.30954e-05 0)
(-0.000121584 1.10054e-05 0)
(-0.0313341 0.111182 0)
(-0.0304133 0.106449 0)
(-0.0294929 0.101857 0)
(-0.0285752 0.0974065 0)
(-0.027662 0.0930959 0)
(-0.0267558 0.0889249 0)
(-0.0258576 0.0848922 0)
(-0.0249691 0.0809967 0)
(-0.0240927 0.0772365 0)
(-0.0232288 0.0736098 0)
(-0.0223781 0.0701146 0)
(-0.0215421 0.0667487 0)
(-0.0207223 0.0635096 0)
(-0.0199195 0.060395 0)
(-0.0191343 0.0574021 0)
(-0.0183673 0.0545281 0)
(-0.0176187 0.0517704 0)
(-0.016889 0.049126 0)
(-0.0161785 0.0465921 0)
(-0.0154875 0.0441655 0)
(-0.0148162 0.0418434 0)
(-0.0141647 0.0396227 0)
(-0.0135331 0.0375004 0)
(-0.0129213 0.0354734 0)
(-0.0123294 0.0335386 0)
(-0.0117571 0.0316931 0)
(-0.0112045 0.0299338 0)
(-0.0106712 0.0282577 0)
(-0.010157 0.0266619 0)
(-0.00966179 0.0251434 0)
(-0.00918513 0.0236995 0)
(-0.00872676 0.0223272 0)
(-0.00828631 0.0210238 0)
(-0.00786344 0.0197865 0)
(-0.00745777 0.0186128 0)
(-0.00706889 0.0174999 0)
(-0.0066964 0.0164454 0)
(-0.00633987 0.0154467 0)
(-0.00599888 0.0145015 0)
(-0.00567299 0.0136074 0)
(-0.00536176 0.0127621 0)
(-0.00506474 0.0119634 0)
(-0.00478148 0.0112092 0)
(-0.00451153 0.0104974 0)
(-0.00425446 0.00982592 0)
(-0.00400981 0.00919291 0)
(-0.00377715 0.00859647 0)
(-0.00355603 0.0080348 0)
(-0.00334603 0.00750616 0)
(-0.00314672 0.00700888 0)
(-0.00295768 0.00654135 0)
(-0.00277849 0.00610202 0)
(-0.00260877 0.00568943 0)
(-0.00244811 0.00530215 0)
(-0.00229613 0.00493882 0)
(-0.00215245 0.00459813 0)
(-0.00201671 0.00427885 0)
(-0.00188855 0.00397979 0)
(-0.00176763 0.0036998 0)
(-0.0016536 0.00343782 0)
(-0.00154616 0.00319279 0)
(-0.00144498 0.00296375 0)
(-0.00134975 0.00274975 0)
(-0.0012602 0.0025499 0)
(-0.00117603 0.00236336 0)
(-0.00109698 0.00218932 0)
(-0.00102279 0.00202701 0)
(-0.000953197 0.00187572 0)
(-0.000887974 0.00173475 0)
(-0.000826889 0.00160346 0)
(-0.000769721 0.00148122 0)
(-0.000716261 0.00136745 0)
(-0.00066631 0.00126161 0)
(-0.000619677 0.00116316 0)
(-0.000576182 0.00107161 0)
(-0.000535651 0.000986492 0)
(-0.000497923 0.00090737 0)
(-0.000462842 0.000833824 0)
(-0.000430262 0.000765458 0)
(-0.000400045 0.000701901 0)
(-0.000372062 0.0006428 0)
(-0.00034619 0.000587823 0)
(-0.000322315 0.000536654 0)
(-0.000300329 0.000488998 0)
(-0.000280132 0.00044457 0)
(-0.000261631 0.000403106 0)
(-0.000244739 0.000364352 0)
(-0.000229377 0.000328067 0)
(-0.000215471 0.000294022 0)
(-0.000202953 0.000262001 0)
(-0.000191763 0.000231795 0)
(-0.000181845 0.000203204 0)
(-0.000173151 0.000176039 0)
(-0.000165638 0.000150114 0)
(-0.000159267 0.000125252 0)
(-0.000154007 0.000101281 0)
(-0.000149831 7.80318e-05 0)
(-0.000146717 5.53408e-05 0)
(-0.00014465 3.30464e-05 0)
(-0.000143619 1.09892e-05 0)
(-0.0361339 0.11099 0)
(-0.0350721 0.106265 0)
(-0.0340107 0.101681 0)
(-0.0329524 0.0972375 0)
(-0.0318993 0.0929345 0)
(-0.0308543 0.0887707 0)
(-0.0298185 0.0847451 0)
(-0.0287939 0.0808563 0)
(-0.0277831 0.0771027 0)
(-0.0267868 0.0734823 0)
(-0.0258059 0.0699931 0)
(-0.024842 0.0666331 0)
(-0.0238966 0.0633996 0)
(-0.0229708 0.0602904 0)
(-0.0220654 0.0573026 0)
(-0.0211808 0.0544337 0)
(-0.0203176 0.0516807 0)
(-0.0194761 0.0490409 0)
(-0.0186568 0.0465113 0)
(-0.0178599 0.044089 0)
(-0.0170858 0.0417709 0)
(-0.0163345 0.0395541 0)
(-0.0156061 0.0374354 0)
(-0.0149006 0.0354119 0)
(-0.014218 0.0334805 0)
(-0.0135581 0.0316382 0)
(-0.0129208 0.0298819 0)
(-0.0123058 0.0282087 0)
(-0.0117129 0.0266157 0)
(-0.0111418 0.0250999 0)
(-0.0105921 0.0236584 0)
(-0.0100635 0.0222885 0)
(-0.00955562 0.0209873 0)
(-0.00906798 0.0197522 0)
(-0.00860016 0.0185805 0)
(-0.00815171 0.0174696 0)
(-0.00772216 0.0164169 0)
(-0.00731103 0.0154199 0)
(-0.0069178 0.0144764 0)
(-0.00654199 0.0135838 0)
(-0.00618308 0.01274 0)
(-0.00584056 0.0119427 0)
(-0.00551391 0.0111898 0)
(-0.00520262 0.0104792 0)
(-0.00490617 0.0098089 0)
(-0.00462404 0.00917699 0)
(-0.00435574 0.00858158 0)
(-0.00410075 0.00802088 0)
(-0.00385858 0.00749316 0)
(-0.00362874 0.00699674 0)
(-0.00341074 0.00653001 0)
(-0.00320411 0.00609145 0)
(-0.00300839 0.00567958 0)
(-0.00282312 0.00529296 0)
(-0.00264786 0.00493026 0)
(-0.00248217 0.00459017 0)
(-0.00232563 0.00427144 0)
(-0.00217784 0.00397289 0)
(-0.00203839 0.0036934 0)
(-0.00190691 0.00343186 0)
(-0.001783 0.00318726 0)
(-0.00166632 0.00295861 0)
(-0.00155651 0.00274499 0)
(-0.00145324 0.00254548 0)
(-0.00135618 0.00235926 0)
(-0.00126502 0.00218552 0)
(-0.00117946 0.0020235 0)
(-0.00109921 0.00187247 0)
(-0.001024 0.00173175 0)
(-0.000953553 0.00160068 0)
(-0.000887628 0.00147865 0)
(-0.000825979 0.00136508 0)
(-0.000768377 0.00125942 0)
(-0.000714601 0.00116114 0)
(-0.000664442 0.00106975 0)
(-0.000617703 0.000984784 0)
(-0.000574195 0.000905799 0)
(-0.000533741 0.00083238 0)
(-0.00049617 0.000764133 0)
(-0.000461325 0.000700686 0)
(-0.000429055 0.000641687 0)
(-0.00039922 0.000586805 0)
(-0.000371688 0.000535725 0)
(-0.000346334 0.000488151 0)
(-0.000323043 0.000443801 0)
(-0.000301708 0.000402409 0)
(-0.000282229 0.000363721 0)
(-0.000264514 0.000327499 0)
(-0.000248477 0.000293514 0)
(-0.000234042 0.000261548 0)
(-0.000221138 0.000231394 0)
(-0.000209701 0.000202853 0)
(-0.000199675 0.000175735 0)
(-0.00019101 0.000149855 0)
(-0.000183664 0.000125036 0)
(-0.000177598 0.000101106 0)
(-0.000172782 7.7897e-05 0)
(-0.000169192 5.52452e-05 0)
(-0.000166808 3.29893e-05 0)
(-0.000165619 1.09702e-05 0)
(-0.0409248 0.11077 0)
(-0.0397222 0.106054 0)
(-0.0385202 0.101479 0)
(-0.0373215 0.0970447 0)
(-0.0361288 0.0927501 0)
(-0.0349451 0.0885946 0)
(-0.033772 0.0845771 0)
(-0.0326115 0.080696 0)
(-0.0314667 0.0769498 0)
(-0.0303383 0.0733366 0)
(-0.0292273 0.0698544 0)
(-0.0281356 0.066501 0)
(-0.027065 0.063274 0)
(-0.0260165 0.0601709 0)
(-0.024991 0.057189 0)
(-0.0239892 0.0543257 0)
(-0.0230115 0.0515783 0)
(-0.0220584 0.0489437 0)
(-0.0211304 0.0464191 0)
(-0.0202279 0.0440016 0)
(-0.0193511 0.0416881 0)
(-0.0185002 0.0394757 0)
(-0.0176752 0.0373612 0)
(-0.0168762 0.0353417 0)
(-0.0161031 0.0334141 0)
(-0.0153557 0.0315754 0)
(-0.0146339 0.0298227 0)
(-0.0139374 0.0281528 0)
(-0.0132659 0.0265629 0)
(-0.0126191 0.0250501 0)
(-0.0119965 0.0236115 0)
(-0.0113978 0.0222443 0)
(-0.0108226 0.0209457 0)
(-0.0102703 0.0197131 0)
(-0.00974043 0.0185437 0)
(-0.00923253 0.0174349 0)
(-0.00874602 0.0163843 0)
(-0.00828037 0.0153894 0)
(-0.00783501 0.0144477 0)
(-0.00740937 0.0135569 0)
(-0.00700288 0.0127147 0)
(-0.00661494 0.011919 0)
(-0.00624498 0.0111676 0)
(-0.00589242 0.0104584 0)
(-0.00555666 0.00978946 0)
(-0.00523713 0.0091588 0)
(-0.00493325 0.00856457 0)
(-0.00464446 0.00800498 0)
(-0.00437018 0.0074783 0)
(-0.00410986 0.00698287 0)
(-0.00386296 0.00651707 0)
(-0.00362893 0.00607938 0)
(-0.00340726 0.00566832 0)
(-0.00319743 0.00528247 0)
(-0.00299893 0.00492049 0)
(-0.00281127 0.00458107 0)
(-0.00263398 0.00426297 0)
(-0.0024666 0.00396502 0)
(-0.00230866 0.00368607 0)
(-0.00215974 0.00342506 0)
(-0.0020194 0.00318094 0)
(-0.00188725 0.00295275 0)
(-0.00176288 0.00273954 0)
(-0.00164592 0.00254044 0)
(-0.00153599 0.00235459 0)
(-0.00143274 0.00218119 0)
(-0.00133584 0.00201949 0)
(-0.00124495 0.00186876 0)
(-0.00115976 0.00172832 0)
(-0.00107998 0.00159751 0)
(-0.00100532 0.00147572 0)
(-0.000935494 0.00136238 0)
(-0.000870254 0.00125693 0)
(-0.000809348 0.00115884 0)
(-0.000752539 0.00106763 0)
(-0.000699603 0.000982833 0)
(-0.000650327 0.000904004 0)
(-0.000604508 0.000830731 0)
(-0.000561956 0.000762619 0)
(-0.000522491 0.000699298 0)
(-0.000485943 0.000640416 0)
(-0.000452152 0.000585643 0)
(-0.000420969 0.000534664 0)
(-0.000392253 0.000487184 0)
(-0.000365874 0.000442922 0)
(-0.00034171 0.000401612 0)
(-0.000319649 0.000363001 0)
(-0.000299585 0.000326851 0)
(-0.000281422 0.000292933 0)
(-0.000265073 0.00026103 0)
(-0.000250458 0.000230936 0)
(-0.000237504 0.000202452 0)
(-0.000226149 0.000175387 0)
(-0.000216336 0.000149558 0)
(-0.000208016 0.000124789 0)
(-0.000201146 0.000100906 0)
(-0.000195691 7.7743e-05 0)
(-0.000191625 5.5136e-05 0)
(-0.000188925 3.29242e-05 0)
(-0.000187579 1.09485e-05 0)
(-0.0457056 0.110522 0)
(-0.0443626 0.105817 0)
(-0.0430201 0.101252 0)
(-0.0416814 0.0968278 0)
(-0.0403493 0.0925429 0)
(-0.0390273 0.0883968 0)
(-0.0377171 0.0843882 0)
(-0.0364211 0.0805158 0)
(-0.0351425 0.076778 0)
(-0.0338823 0.0731729 0)
(-0.0326416 0.0696985 0)
(-0.0314224 0.0663525 0)
(-0.0302267 0.0631327 0)
(-0.0290558 0.0600365 0)
(-0.0279105 0.0570613 0)
(-0.0267916 0.0542044 0)
(-0.0256996 0.0514631 0)
(-0.0246352 0.0488344 0)
(-0.0235989 0.0463154 0)
(-0.0225909 0.0439033 0)
(-0.0216117 0.041595 0)
(-0.0206614 0.0393875 0)
(-0.01974 0.0372778 0)
(-0.0188477 0.0352628 0)
(-0.0179843 0.0333395 0)
(-0.0171496 0.0315049 0)
(-0.0163434 0.029756 0)
(-0.0155656 0.0280899 0)
(-0.0148156 0.0265036 0)
(-0.0140932 0.0249942 0)
(-0.0133979 0.0235588 0)
(-0.0127293 0.0221946 0)
(-0.0120869 0.020899 0)
(-0.01147 0.019669 0)
(-0.0108783 0.0185023 0)
(-0.0103111 0.017396 0)
(-0.00976772 0.0163477 0)
(-0.00924768 0.015355 0)
(-0.00875029 0.0144154 0)
(-0.00827493 0.0135266 0)
(-0.00782095 0.0126863 0)
(-0.00738769 0.0118924 0)
(-0.00697452 0.0111427 0)
(-0.00658076 0.0104351 0)
(-0.00620578 0.00976759 0)
(-0.00584893 0.00913834 0)
(-0.00550955 0.00854544 0)
(-0.00518702 0.00798711 0)
(-0.0048807 0.0074616 0)
(-0.00458997 0.00696727 0)
(-0.00431422 0.00650252 0)
(-0.00405286 0.0060658 0)
(-0.00380529 0.00565566 0)
(-0.00357095 0.00527068 0)
(-0.00334926 0.0049095 0)
(-0.00313968 0.00457084 0)
(-0.00294168 0.00425345 0)
(-0.00275474 0.00395617 0)
(-0.00257836 0.00367784 0)
(-0.00241204 0.00341741 0)
(-0.00225531 0.00317384 0)
(-0.00210772 0.00294616 0)
(-0.00196882 0.00273343 0)
(-0.0018382 0.00253477 0)
(-0.00171542 0.00234933 0)
(-0.00160012 0.00217632 0)
(-0.00149189 0.00201498 0)
(-0.00139039 0.00186459 0)
(-0.00129525 0.00172446 0)
(-0.00120614 0.00159394 0)
(-0.00112276 0.00147243 0)
(-0.00104478 0.00135934 0)
(-0.000971916 0.00125412 0)
(-0.000903895 0.00115625 0)
(-0.00084045 0.00106525 0)
(-0.00078133 0.000980638 0)
(-0.000726297 0.000901986 0)
(-0.000675126 0.000828876 0)
(-0.000627603 0.000760916 0)
(-0.000583528 0.000697736 0)
(-0.00054271 0.000638986 0)
(-0.000504972 0.000584335 0)
(-0.000470146 0.000533471 0)
(-0.000438076 0.000486097 0)
(-0.000408615 0.000441933 0)
(-0.000381629 0.000400715 0)
(-0.00035699 0.000362191 0)
(-0.000334582 0.000326122 0)
(-0.000314298 0.000292279 0)
(-0.000296039 0.000260448 0)
(-0.000279716 0.000230421 0)
(-0.00026525 0.000202 0)
(-0.000252568 0.000174996 0)
(-0.000241609 0.000149225 0)
(-0.000232317 0.000124511 0)
(-0.000224644 0.000100681 0)
(-0.000218552 7.75698e-05 0)
(-0.000214011 5.50132e-05 0)
(-0.000210996 3.28508e-05 0)
(-0.000209492 1.09241e-05 0)
(-0.0504751 0.110247 0)
(-0.048992 0.105554 0)
(-0.0475094 0.101001 0)
(-0.046031 0.0965872 0)
(-0.0445599 0.092313 0)
(-0.0430999 0.0881771 0)
(-0.0416529 0.0841785 0)
(-0.0402216 0.0803158 0)
(-0.0388096 0.0765873 0)
(-0.0374179 0.0729911 0)
(-0.0360477 0.0695253 0)
(-0.0347014 0.0661876 0)
(-0.033381 0.0629758 0)
(-0.0320879 0.0598873 0)
(-0.0308231 0.0569195 0)
(-0.0295874 0.0540697 0)
(-0.0283815 0.0513352 0)
(-0.027206 0.048713 0)
(-0.0260615 0.0462003 0)
(-0.0249484 0.0437942 0)
(-0.0238669 0.0414916 0)
(-0.0228174 0.0392896 0)
(-0.0218 0.0371851 0)
(-0.0208145 0.0351751 0)
(-0.019861 0.0332566 0)
(-0.0189392 0.0314266 0)
(-0.0180489 0.0296821 0)
(-0.0171899 0.0280201 0)
(-0.0163617 0.0264377 0)
(-0.0155639 0.024932 0)
(-0.014796 0.0235002 0)
(-0.0140576 0.0221395 0)
(-0.0133482 0.020847 0)
(-0.012667 0.0196202 0)
(-0.0120135 0.0184563 0)
(-0.011387 0.0173528 0)
(-0.010787 0.0163071 0)
(-0.0102127 0.0153168 0)
(-0.00966341 0.0143796 0)
(-0.00913844 0.013493 0)
(-0.00863709 0.0126548 0)
(-0.00815862 0.0118628 0)
(-0.00770233 0.011115 0)
(-0.00726749 0.0104091 0)
(-0.00685338 0.00974332 0)
(-0.00645928 0.00911563 0)
(-0.00608449 0.00852421 0)
(-0.0057283 0.00796726 0)
(-0.00539001 0.00744306 0)
(-0.00506895 0.00694996 0)
(-0.00476443 0.00648636 0)
(-0.00447579 0.00605073 0)
(-0.00420239 0.0056416 0)
(-0.00394359 0.00525758 0)
(-0.00369877 0.0048973 0)
(-0.00346732 0.00455948 0)
(-0.00324866 0.00424288 0)
(-0.00304221 0.00394633 0)
(-0.00284742 0.0036687 0)
(-0.00266374 0.00340892 0)
(-0.00249066 0.00316595 0)
(-0.00232767 0.00293884 0)
(-0.00217428 0.00272663 0)
(-0.00203002 0.00252847 0)
(-0.00189443 0.00234349 0)
(-0.00176709 0.00217091 0)
(-0.00164758 0.00200997 0)
(-0.00153548 0.00185995 0)
(-0.00143041 0.00172017 0)
(-0.00133201 0.00158998 0)
(-0.00123992 0.00146877 0)
(-0.0011538 0.00135596 0)
(-0.00107334 0.001251 0)
(-0.000998219 0.00115338 0)
(-0.000928154 0.0010626 0)
(-0.000862864 0.000978202 0)
(-0.000802089 0.000899745 0)
(-0.000745578 0.000826817 0)
(-0.000693096 0.000759026 0)
(-0.000644421 0.000696003 0)
(-0.000599344 0.000637399 0)
(-0.000557668 0.000582883 0)
(-0.000519207 0.000532145 0)
(-0.00048379 0.000484889 0)
(-0.000451256 0.000440835 0)
(-0.000421453 0.00039972 0)
(-0.000394243 0.000361291 0)
(-0.000369497 0.000325311 0)