/*--------------------------------*- C++ -*----------------------------------*\
| =========                 |                                                 |
| \\      /  F ield         | OpenFOAM: The Open Source CFD Toolbox           |
|  \\    /   O peration     | Version:  2406                                  |
|   \\  /    A nd           | Website:  www.openfoam.com                      |
|    \\/     M anipulation  |                                                 |
\*---------------------------------------------------------------------------*/
FoamFile
{
    version     2.0;
    format      ascii;
    arch        "LSB;label=32;scalar=64";
    class       volVectorField;
    location    "70";
    object      flux;
}
// * * * * * * * * * * * * * * * * * * * * * * * * * * * * * * * * * * * * * //

dimensions      [0 1 -1 1 0 0 0];

internalField   nonuniform List<vector> 
20000
(
(-0.0014644 0.0787307 0)
(-0.00144552 0.0758195 0)
(-0.00142396 0.072949 0)
(-0.00139995 0.0701241 0)
(-0.00137386 0.0673495 0)
(-0.00134599 0.064629 0)
(-0.00131637 0.061966 0)
(-0.00128536 0.0593638 0)
(-0.00125336 0.0568247 0)
(-0.00122038 0.0543507 0)
(-0.00118655 0.0519436 0)
(-0.00115212 0.0496048 0)
(-0.0011173 0.0473354 0)
(-0.00108222 0.0451359 0)
(-0.00104701 0.0430067 0)
(-0.00101176 0.0409481 0)
(-0.000976604 0.0389599 0)
(-0.000941637 0.0370419 0)
(-0.000906962 0.0351936 0)
(-0.000872671 0.0334143 0)
(-0.000838841 0.0317032 0)
(-0.000805538 0.0300592 0)
(-0.000772823 0.0284812 0)
(-0.000740745 0.0269681 0)
(-0.000709351 0.0255184 0)
(-0.000678679 0.0241308 0)
(-0.000648762 0.0228039 0)
(-0.000619629 0.0215359 0)
(-0.000591301 0.0203255 0)
(-0.000563798 0.0191709 0)
(-0.000537133 0.0180704 0)
(-0.000511315 0.0170225 0)
(-0.00048635 0.0160253 0)
(-0.00046224 0.0150772 0)
(-0.000438985 0.0141765 0)
(-0.000416581 0.0133214 0)
(-0.000395021 0.0125102 0)
(-0.000374297 0.0117414 0)
(-0.000354399 0.0110131 0)
(-0.000335313 0.0103239 0)
(-0.000317025 0.00967197 0)
(-0.00029952 0.00905585 0)
(-0.000282781 0.00847396 0)
(-0.00026679 0.00792479 0)
(-0.000251528 0.00740686 0)
(-0.000236975 0.00691874 0)
(-0.000223112 0.00645902 0)
(-0.000209917 0.00602635 0)
(-0.000197369 0.00561941 0)
(-0.000185448 0.00523692 0)
(-0.000174131 0.00487766 0)
(-0.000163397 0.00454044 0)
(-0.000153225 0.00422411 0)
(-0.000143593 0.00392758 0)
(-0.00013448 0.00364978 0)
(-0.000125865 0.00338969 0)
(-0.000117727 0.00314635 0)
(-0.000110046 0.00291881 0)
(-0.000102803 0.00270619 0)
(-9.5977e-05 0.00250763 0)
(-8.95498e-05 0.00232231 0)
(-8.35026e-05 0.00214945 0)
(-7.78174e-05 0.00198832 0)
(-7.24767e-05 0.0018382 0)
(-6.74636e-05 0.00169843 0)
(-6.27617e-05 0.00156836 0)
(-5.8355e-05 0.0014474 0)
(-5.42284e-05 0.00133496 0)
(-5.03672e-05 0.0012305 0)
(-4.67573e-05 0.0011335 0)
(-4.33852e-05 0.00104348 0)
(-4.02378e-05 0.000959971 0)
(-3.73029e-05 0.000882538 0)
(-3.45687e-05 0.000810768 0)
(-3.20237e-05 0.000744272 0)
(-2.96575e-05 0.000682681 0)
(-2.74597e-05 0.000625649 0)
(-2.54207e-05 0.000572849 0)
(-2.35314e-05 0.000523973 0)
(-2.17832e-05 0.000478729 0)
(-2.01679e-05 0.000436845 0)
(-1.8678e-05 0.000398063 0)
(-1.73062e-05 0.000362138 0)
(-1.60457e-05 0.000328842 0)
(-1.48904e-05 0.000297959 0)
(-1.38345e-05 0.000269284 0)
(-1.28724e-05 0.000242625 0)
(-1.19992e-05 0.000217798 0)
(-1.12103e-05 0.000194631 0)
(-1.05015e-05 0.000172959 0)
(-9.86906e-06 0.000152627 0)
(-9.30945e-06 0.000133486 0)
(-8.81963e-06 0.000115392 0)
(-8.39689e-06 9.82092e-05 0)
(-8.03887e-06 8.18063e-05 0)
(-7.74356e-06 6.60557e-05 0)
(-7.5093e-06 5.08339e-05 0)
(-7.33476e-06 3.60204e-05 0)
(-7.21895e-06 2.14967e-05 0)
(-7.1612e-06 7.14634e-06 0)
(-0.00439286 0.0787113 0)
(-0.00433618 0.0758008 0)
(-0.00427146 0.072931 0)
(-0.00419957 0.0701068 0)
(-0.00412125 0.0673328 0)
(-0.0040375 0.064613 0)
(-0.00394877 0.0619508 0)
(-0.00385588 0.0593492 0)
(-0.00375978 0.0568106 0)
(-0.00366078 0.0543373 0)
(-0.00355933 0.0519308 0)
(-0.00345609 0.0495926 0)
(-0.00335163 0.0473237 0)
(-0.00324641 0.0451247 0)
(-0.00314077 0.0429961 0)
(-0.00303504 0.040938 0)
(-0.00292957 0.0389503 0)
(-0.00282467 0.0370328 0)
(-0.00272066 0.0351849 0)
(-0.0026178 0.0334061 0)
(-0.00251632 0.0316953 0)
(-0.00241642 0.0300517 0)
(-0.00231828 0.0284742 0)
(-0.00222205 0.0269614 0)
(-0.00212788 0.0255121 0)
(-0.00203587 0.0241249 0)
(-0.00194613 0.0227982 0)
(-0.00185873 0.0215306 0)
(-0.00177376 0.0203205 0)
(-0.00169126 0.0191661 0)
(-0.00161127 0.018066 0)
(-0.00153382 0.0170183 0)
(-0.00145893 0.0160213 0)
(-0.00138661 0.0150735 0)
(-0.00131685 0.014173 0)
(-0.00124964 0.0133181 0)
(-0.00118497 0.0125071 0)
(-0.0011228 0.0117385 0)
(-0.00106311 0.0110104 0)
(-0.00100586 0.0103213 0)
(-0.000950997 0.00966958 0)
(-0.000898486 0.00905361 0)
(-0.000848274 0.00847187 0)
(-0.000800304 0.00792284 0)
(-0.000754522 0.00740504 0)
(-0.000710868 0.00691703 0)
(-0.000669281 0.00645743 0)
(-0.000629699 0.00602486 0)
(-0.000592059 0.00561802 0)
(-0.000556298 0.00523563 0)
(-0.00052235 0.00487646 0)
(-0.000490151 0.00453932 0)
(-0.000459637 0.00422307 0)
(-0.000430743 0.00392661 0)
(-0.000403406 0.00364888 0)
(-0.000377563 0.00338886 0)
(-0.000353152 0.00314557 0)
(-0.000330112 0.00291809 0)
(-0.000308383 0.00270552 0)
(-0.000287907 0.00250701 0)
(-0.000268627 0.00232173 0)
(-0.000250487 0.00214892 0)
(-0.000233433 0.00198783 0)
(-0.000217412 0.00183775 0)
(-0.000202374 0.00169801 0)
(-0.000188269 0.00156798 0)
(-0.000175051 0.00144704 0)
(-0.000162672 0.00133463 0)
(-0.000151089 0.00123019 0)
(-0.00014026 0.00113322 0)
(-0.000130145 0.00104322 0)
(-0.000120704 0.000959734 0)
(-0.0001119 0.00088232 0)
(-0.000103697 0.000810568 0)
(-9.60633e-05 0.000744088 0)
(-8.89651e-05 0.000682513 0)
(-8.23722e-05 0.000625495 0)
(-7.62558e-05 0.000572708 0)
(-7.05884e-05 0.000523843 0)
(-6.53442e-05 0.000478611 0)
(-6.04989e-05 0.000436738 0)
(-5.60294e-05 0.000397964 0)
(-5.19142e-05 0.000362049 0)
(-4.81332e-05 0.000328761 0)
(-4.46676e-05 0.000297885 0)
(-4.15e-05 0.000269218 0)
(-3.86139e-05 0.000242565 0)
(-3.59946e-05 0.000217744 0)
(-3.36281e-05 0.000194583 0)
(-3.1502e-05 0.000172917 0)
(-2.96047e-05 0.00015259 0)
(-2.79261e-05 0.000133453 0)
(-2.64567e-05 0.000115363 0)
(-2.51886e-05 9.8185e-05 0)
(-2.41146e-05 8.17861e-05 0)
(-2.32288e-05 6.60395e-05 0)
(-2.25261e-05 5.08214e-05 0)
(-2.20025e-05 3.60115e-05 0)
(-2.16551e-05 2.14914e-05 0)
(-2.14818e-05 7.14459e-06 0)
(-0.00732028 0.0786725 0)
(-0.00722585 0.0757634 0)
(-0.00711792 0.0728949 0)
(-0.00699813 0.0700722 0)
(-0.00686762 0.0672996 0)
(-0.00672797 0.0645811 0)
(-0.00658021 0.0619202 0)
(-0.00642551 0.0593199 0)
(-0.00626528 0.0567826 0)
(-0.00610024 0.0543104 0)
(-0.0059312 0.0519052 0)
(-0.0057592 0.0495682 0)
(-0.00558517 0.0473004 0)
(-0.00540982 0.0451025 0)
(-0.00523376 0.0429749 0)
(-0.00505756 0.0409178 0)
(-0.00488179 0.0389311 0)
(-0.004707 0.0370145 0)
(-0.00453369 0.0351676 0)
(-0.00436228 0.0333896 0)
(-0.00419317 0.0316797 0)
(-0.0040267 0.0300369 0)
(-0.00386317 0.0284601 0)
(-0.00370282 0.0269481 0)
(-0.00354588 0.0254995 0)
(-0.00339256 0.024113 0)
(-0.00324301 0.022787 0)
(-0.00309738 0.02152 0)
(-0.00295578 0.0203104 0)
(-0.0028183 0.0191567 0)
(-0.002685 0.0180571 0)
(-0.00255594 0.0170099 0)
(-0.00243115 0.0160134 0)
(-0.00231063 0.015066 0)
(-0.00219439 0.014166 0)
(-0.00208239 0.0133115 0)
(-0.00197462 0.012501 0)
(-0.00187103 0.0117327 0)
(-0.00177156 0.011005 0)
(-0.00167615 0.0103162 0)
(-0.00158473 0.00966481 0)
(-0.00149723 0.00904914 0)
(-0.00141356 0.00846769 0)
(-0.00133362 0.00791892 0)
(-0.00125733 0.00740138 0)
(-0.00118458 0.00691362 0)
(-0.00111528 0.00645424 0)
(-0.00104933 0.00602189 0)
(-0.000986603 0.00561525 0)
(-0.00092701 0.00523304 0)
(-0.00087044 0.00487405 0)
(-0.000816784 0.00453708 0)
(-0.000765935 0.00422099 0)
(-0.000717786 0.00392467 0)
(-0.000672232 0.00364708 0)
(-0.000629168 0.00338718 0)
(-0.000588489 0.00314402 0)
(-0.000550096 0.00291665 0)
(-0.000513887 0.00270419 0)
(-0.000479767 0.00250577 0)
(-0.000447638 0.00232059 0)
(-0.00041741 0.00214786 0)
(-0.000388991 0.00198685 0)
(-0.000362294 0.00183684 0)
(-0.000337235 0.00169717 0)
(-0.000313731 0.0015672 0)
(-0.000291703 0.00144633 0)
(-0.000271075 0.00133397 0)
(-0.000251774 0.00122959 0)
(-0.000233729 0.00113266 0)
(-0.000216872 0.00104271 0)
(-0.00020114 0.00095926 0)
(-0.000186469 0.000881885 0)
(-0.000172801 0.000810168 0)
(-0.000160079 0.000743721 0)
(-0.000148251 0.000682176 0)
(-0.000137264 0.000625186 0)
(-0.000127072 0.000572425 0)
(-0.000117628 0.000523585 0)
(-0.000108889 0.000478375 0)
(-0.000100815 0.000436522 0)
(-9.33669e-05 0.000397768 0)
(-8.65094e-05 0.00036187 0)
(-8.02088e-05 0.000328599 0)
(-7.44338e-05 0.000297739 0)
(-6.91552e-05 0.000269085 0)
(-6.4346e-05 0.000242445 0)
(-5.99811e-05 0.000217637 0)
(-5.60377e-05 0.000194487 0)
(-5.24947e-05 0.000172831 0)
(-4.93331e-05 0.000152514 0)
(-4.65358e-05 0.000133387 0)
(-4.40873e-05 0.000115306 0)
(-4.19741e-05 9.81366e-05 0)
(-4.01844e-05 8.17458e-05 0)
(-3.87083e-05 6.60069e-05 0)
(-3.75373e-05 5.07964e-05 0)
(-3.66648e-05 3.59938e-05 0)
(-3.60859e-05 2.14808e-05 0)
(-3.57972e-05 7.14107e-06 0)
(-0.0102458 0.0786142 0)
(-0.0101137 0.0757074 0)
(-0.00996268 0.072841 0)
(-0.00979494 0.0700203 0)
(-0.0096123 0.0672497 0)
(-0.00941682 0.0645333 0)
(-0.00921002 0.0618744 0)
(-0.00899354 0.0592759 0)
(-0.00876922 0.0567405 0)
(-0.00853818 0.0542702 0)
(-0.00830161 0.0518668 0)
(-0.00806091 0.0495315 0)
(-0.00781734 0.0472653 0)
(-0.00757189 0.045069 0)
(-0.00732545 0.042943 0)
(-0.00707883 0.0408875 0)
(-0.00683281 0.0389023 0)
(-0.00658817 0.0369871 0)
(-0.00634559 0.0351416 0)
(-0.00610568 0.0333649 0)
(-0.005869 0.0316562 0)
(-0.005636 0.0300147 0)
(-0.0054071 0.028439 0)
(-0.00518267 0.0269281 0)
(-0.00496301 0.0254806 0)
(-0.00474841 0.0240951 0)
(-0.0045391 0.0227701 0)
(-0.00433526 0.0215041 0)
(-0.00413707 0.0202954 0)
(-0.00394464 0.0191425 0)
(-0.00375808 0.0180437 0)
(-0.00357744 0.0169973 0)
(-0.00340277 0.0160016 0)
(-0.00323409 0.0150549 0)
(-0.00307138 0.0141555 0)
(-0.00291463 0.0133016 0)
(-0.00276378 0.0124917 0)
(-0.00261879 0.011724 0)
(-0.00247957 0.0109968 0)
(-0.00234603 0.0103086 0)
(-0.00221808 0.00965765 0)
(-0.00209561 0.00904244 0)
(-0.00197849 0.00846142 0)
(-0.00186661 0.00791306 0)
(-0.00175983 0.0073959 0)
(-0.00165801 0.0069085 0)
(-0.00156101 0.00644946 0)
(-0.00146869 0.00601743 0)
(-0.0013809 0.00561109 0)
(-0.00129749 0.00522917 0)
(-0.00121831 0.00487044 0)
(-0.00114321 0.00453372 0)
(-0.00107204 0.00421786 0)
(-0.00100465 0.00392176 0)
(-0.000940893 0.00364437 0)
(-0.000880617 0.00338468 0)
(-0.000823682 0.00314169 0)
(-0.000769944 0.00291449 0)
(-0.000719265 0.00270219 0)
(-0.000671508 0.00250392 0)
(-0.000626539 0.00231887 0)
(-0.00058423 0.00214627 0)
(-0.000544453 0.00198537 0)
(-0.000507087 0.00183548 0)
(-0.000472012 0.00169591 0)
(-0.000439115 0.00156604 0)
(-0.000408283 0.00144526 0)
(-0.000379412 0.00133298 0)
(-0.000352397 0.00122868 0)
(-0.00032714 0.00113182 0)
(-0.000303546 0.00104194 0)
(-0.000281526 0.00095855 0)
(-0.000260992 0.000881232 0)
(-0.000241861 0.000809568 0)
(-0.000224056 0.00074317 0)
(-0.0002075 0.000681671 0)
(-0.000192123 0.000624723 0)
(-0.000177857 0.000572002 0)
(-0.000164639 0.000523197 0)
(-0.000152407 0.000478021 0)
(-0.000141106 0.000436199 0)
(-0.000130681 0.000397474 0)
(-0.000121083 0.000361602 0)
(-0.000112265 0.000328356 0)
(-0.000104182 0.000297518 0)
(-9.67934e-05 0.000268886 0)
(-9.00621e-05 0.000242266 0)
(-8.39528e-05 0.000217476 0)
(-7.84334e-05 0.000194343 0)
(-7.34744e-05 0.000172704 0)
(-6.90493e-05 0.000152402 0)
(-6.5134e-05 0.000133288 0)
(-6.1707e-05 0.000115221 0)
(-5.87492e-05 9.80641e-05 0)
(-5.62443e-05 8.16854e-05 0)
(-5.41782e-05 6.59581e-05 0)
(-5.25392e-05 5.07589e-05 0)
(-5.13181e-05 3.59672e-05 0)
(-5.05078e-05 2.1465e-05 0)
(-5.01038e-05 7.1358e-06 0)
(-0.0131688 0.0785365 0)
(-0.0129991 0.0756325 0)
(-0.012805 0.072769 0)
(-0.0125894 0.0699511 0)
(-0.0123546 0.0671833 0)
(-0.0121034 0.0644695 0)
(-0.0118376 0.0618132 0)
(-0.0115593 0.0592174 0)
(-0.011271 0.0566845 0)
(-0.010974 0.0542166 0)
(-0.01067 0.0518155 0)
(-0.0103606 0.0494825 0)
(-0.0100476 0.0472186 0)
(-0.0097321 0.0450245 0)
(-0.00941534 0.0429006 0)
(-0.00909834 0.0408471 0)
(-0.00878214 0.0388638 0)
(-0.00846771 0.0369506 0)
(-0.00815593 0.0351068 0)
(-0.00784758 0.0333319 0)
(-0.00754337 0.031625 0)
(-0.0072439 0.029985 0)
(-0.0069497 0.028411 0)
(-0.00666124 0.0269015 0)
(-0.00637892 0.0254555 0)
(-0.00610309 0.0240713 0)
(-0.00583406 0.0227476 0)
(-0.00557207 0.0214828 0)
(-0.00531734 0.0202754 0)
(-0.00507001 0.0191236 0)
(-0.00483022 0.0180259 0)
(-0.00459805 0.0169805 0)
(-0.00437355 0.0159858 0)
(-0.00415674 0.01504 0)
(-0.00394762 0.0141415 0)
(-0.00374615 0.0132885 0)
(-0.00355227 0.0124794 0)
(-0.00336591 0.0117124 0)
(-0.00318697 0.010986 0)
(-0.00301533 0.0102984 0)
(-0.00285088 0.00964811 0)
(-0.00269346 0.00903351 0)
(-0.00254294 0.00845306 0)
(-0.00239914 0.00790524 0)
(-0.00226189 0.00738859 0)
(-0.00213102 0.00690168 0)
(-0.00200636 0.00644309 0)
(-0.0018877 0.00601148 0)
(-0.00177486 0.00560555 0)
(-0.00166766 0.005224 0)
(-0.00156589 0.00486563 0)
(-0.00146936 0.00452924 0)
(-0.00137789 0.00421369 0)
(-0.00129127 0.00391789 0)
(-0.00120932 0.00364077 0)
(-0.00113185 0.00338133 0)
(-0.00105867 0.00313859 0)
(-0.000989602 0.00291162 0)
(-0.000924465 0.00269952 0)
(-0.000863083 0.00250144 0)
(-0.000805285 0.00231658 0)
(-0.000750905 0.00214415 0)
(-0.000699781 0.00198341 0)
(-0.000651754 0.00183367 0)
(-0.000606673 0.00169424 0)
(-0.00056439 0.00156449 0)
(-0.000524763 0.00144383 0)
(-0.000487654 0.00133166 0)
(-0.000452932 0.00122746 0)
(-0.00042047 0.00113071 0)
(-0.000390145 0.00104091 0)
(-0.000361843 0.000957603 0)
(-0.00033545 0.000880362 0)
(-0.000310862 0.000808769 0)
(-0.000287977 0.000742437 0)
(-0.000266698 0.000680998 0)
(-0.000246934 0.000624107 0)
(-0.000228598 0.000571437 0)
(-0.000211609 0.000522681 0)
(-0.000195888 0.000477549 0)
(-0.000181362 0.000435768 0)
(-0.000167964 0.000397081 0)
(-0.000155627 0.000361245 0)
(-0.000144293 0.000328032 0)
(-0.000133904 0.000297225 0)
(-0.000124408 0.00026862 0)
(-0.000115756 0.000242027 0)
(-0.000107904 0.000217261 0)
(-0.00010081 0.000194151 0)
(-9.44361e-05 0.000172533 0)
(-8.87485e-05 0.000152251 0)
(-8.37162e-05 0.000133157 0)
(-7.93114e-05 0.000115107 0)
(-7.55099e-05 9.79673e-05 0)
(-7.22904e-05 8.16048e-05 0)
(-6.96348e-05 6.58931e-05 0)
(-6.75282e-05 5.07088e-05 0)
(-6.59587e-05 3.59317e-05 0)
(-6.49172e-05 2.14438e-05 0)
(-6.4398e-05 7.12876e-06 0)
(-0.0160885 0.0784394 0)
(-0.0158812 0.0755391 0)
(-0.0156441 0.0726791 0)
(-0.0153807 0.0698647 0)
(-0.0150939 0.0671003 0)
(-0.0147869 0.0643899 0)
(-0.0144622 0.0617369 0)
(-0.0141223 0.0591442 0)
(-0.01377 0.0566145 0)
(-0.0134071 0.0541497 0)
(-0.0130357 0.0517515 0)
(-0.0126578 0.0494214 0)
(-0.0122753 0.0471603 0)
(-0.0118899 0.0449689 0)
(-0.0115029 0.0428476 0)
(-0.0111156 0.0407966 0)
(-0.0107293 0.0388158 0)
(-0.0103452 0.0369049 0)
(-0.00996425 0.0350635 0)
(-0.00958755 0.0332907 0)
(-0.00921589 0.0315859 0)
(-0.00885002 0.029948 0)
(-0.00849059 0.0283759 0)
(-0.00813817 0.0268683 0)
(-0.00779325 0.025424 0)
(-0.00745627 0.0240416 0)
(-0.00712759 0.0227195 0)
(-0.00680751 0.0214563 0)
(-0.00649629 0.0202503 0)
(-0.00619413 0.0191 0)
(-0.00590118 0.0180036 0)
(-0.00561753 0.0169595 0)
(-0.00534325 0.015966 0)
(-0.00507837 0.0150214 0)
(-0.00482288 0.014124 0)
(-0.00457674 0.0132721 0)
(-0.00433988 0.012464 0)
(-0.00411219 0.0116979 0)
(-0.00389358 0.0109724 0)
(-0.00368389 0.0102857 0)
(-0.00348297 0.00963619 0)
(-0.00329066 0.00902235 0)
(-0.00310676 0.00844261 0)
(-0.00293107 0.00789548 0)
(-0.00276339 0.00737946 0)
(-0.00260351 0.00689315 0)
(-0.0024512 0.00643513 0)
(-0.00230624 0.00600406 0)
(-0.00216838 0.00559862 0)
(-0.00203741 0.00521755 0)
(-0.00191308 0.00485962 0)
(-0.00179515 0.00452364 0)
(-0.00168339 0.00420849 0)
(-0.00157757 0.00391305 0)
(-0.00147745 0.00363628 0)
(-0.0013828 0.00337715 0)
(-0.0012934 0.00313471 0)
(-0.00120902 0.00290802 0)
(-0.00112944 0.00269618 0)
(-0.00105445 0.00249835 0)
(-0.000983833 0.00231372 0)
(-0.000917396 0.0021415 0)
(-0.000854936 0.00198096 0)
(-0.000796261 0.0018314 0)
(-0.000741185 0.00169215 0)
(-0.000689527 0.00156256 0)
(-0.000641113 0.00144204 0)
(-0.000595777 0.00133002 0)
(-0.000553356 0.00122595 0)
(-0.000513696 0.00112931 0)
(-0.000476648 0.00103962 0)
(-0.00044207 0.000956421 0)
(-0.000409826 0.000879274 0)
(-0.000379786 0.00080777 0)
(-0.000351827 0.000741519 0)
(-0.00032583 0.000680157 0)
(-0.000301684 0.000623336 0)
(-0.000279283 0.000570731 0)
(-0.000258526 0.000522035 0)
(-0.00023932 0.000476959 0)
(-0.000221574 0.00043523 0)
(-0.000205204 0.000396591 0)
(-0.000190133 0.000360799 0)
(-0.000176285 0.000327627 0)
(-0.000163593 0.000296858 0)
(-0.000151991 0.000268289 0)
(-0.000141421 0.000241728 0)
(-0.000131828 0.000216993 0)
(-0.000123161 0.000193911 0)
(-0.000115374 0.00017232 0)
(-0.000108426 0.000152063 0)
(-0.000102278 0.000132992 0)
(-9.68963e-05 0.000114965 0)
(-9.22519e-05 9.78464e-05 0)
(-8.83186e-05 8.15041e-05 0)
(-8.50742e-05 6.58117e-05 0)
(-8.25006e-05 5.06462e-05 0)
(-8.0583e-05 3.58873e-05 0)
(-7.93107e-05 2.14173e-05 0)
(-7.86763e-05 7.11996e-06 0)
(-0.0190043 0.0783231 0)
(-0.0187594 0.075427 0)
(-0.0184793 0.0725713 0)
(-0.0181682 0.069761 0)
(-0.0178294 0.0670007 0)
(-0.0174668 0.0642944 0)
(-0.0170832 0.0616453 0)
(-0.0166817 0.0590565 0)
(-0.0162656 0.0565305 0)
(-0.015837 0.0540693 0)
(-0.0153982 0.0516747 0)
(-0.0149519 0.0493481 0)
(-0.0145001 0.0470903 0)
(-0.0140448 0.0449022 0)
(-0.0135876 0.042784 0)
(-0.0131301 0.0407361 0)
(-0.0126738 0.0387582 0)
(-0.0122201 0.0368502 0)
(-0.0117701 0.0350115 0)
(-0.0113251 0.0332414 0)
(-0.0108861 0.031539 0)
(-0.010454 0.0299035 0)
(-0.0100294 0.0283338 0)
(-0.00961309 0.0268284 0)
(-0.00920566 0.0253863 0)
(-0.0088076 0.0240059 0)
(-0.00841935 0.0226858 0)
(-0.00804127 0.0214244 0)
(-0.00767365 0.0202202 0)
(-0.00731672 0.0190716 0)
(-0.00697067 0.0179769 0)
(-0.00663562 0.0169343 0)
(-0.00631163 0.0159423 0)
(-0.00599875 0.0149991 0)
(-0.00569696 0.0141031 0)
(-0.0054062 0.0132524 0)
(-0.00512641 0.0124455 0)
(-0.00485747 0.0116806 0)
(-0.00459923 0.0109561 0)
(-0.00435154 0.0102704 0)
(-0.00411421 0.00962189 0)
(-0.00388704 0.00900896 0)
(-0.00366981 0.00843008 0)
(-0.00346228 0.00788376 0)
(-0.00326422 0.00736852 0)
(-0.00307536 0.00688292 0)
(-0.00289545 0.00642558 0)
(-0.00272421 0.00599515 0)
(-0.00256137 0.00559031 0)
(-0.00240666 0.00520981 0)
(-0.00225979 0.00485241 0)
(-0.00212049 0.00451693 0)
(-0.00198848 0.00420224 0)
(-0.00186348 0.00390724 0)
(-0.00174522 0.00363088 0)
(-0.00163341 0.00337214 0)
(-0.00152781 0.00313006 0)
(-0.00142813 0.0029037 0)
(-0.00133413 0.00269218 0)
(-0.00124555 0.00249465 0)
(-0.00116214 0.00231028 0)
(-0.00108366 0.00213832 0)
(-0.00100988 0.00197802 0)
(-0.000940571 0.00182868 0)
(-0.000875513 0.00168964 0)
(-0.000814493 0.00156024 0)
(-0.000757305 0.0014399 0)
(-0.000703752 0.00132805 0)
(-0.000653644 0.00122413 0)
(-0.000606796 0.00112763 0)
(-0.000563034 0.00103808 0)
(-0.000522189 0.000955002 0)
(-0.000484101 0.00087797 0)
(-0.000448617 0.000806572 0)
(-0.00041559 0.00074042 0)
(-0.000384881 0.000679148 0)
(-0.000356359 0.000622411 0)
(-0.000329898 0.000569884 0)
(-0.00030538 0.000521261 0)
(-0.000282693 0.000476252 0)
(-0.000261731 0.000434585 0)
(-0.000242395 0.000396003 0)
(-0.000224592 0.000360264 0)
(-0.000208234 0.000327141 0)
(-0.000193242 0.000296417 0)
(-0.000179538 0.000267891 0)
(-0.000167052 0.000241369 0)
(-0.00015572 0.000216671 0)
(-0.000145482 0.000193624 0)
(-0.000136284 0.000172065 0)
(-0.000128076 0.000151838 0)
(-0.000120814 0.000132795 0)
(-0.000114457 0.000114795 0)
(-0.000108971 9.77013e-05 0)
(-0.000104325 8.13833e-05 0)
(-0.000100493 6.57142e-05 0)
(-9.74526e-05 5.05711e-05 0)
(-9.51876e-05 3.58342e-05 0)
(-9.36846e-05 2.13856e-05 0)
(-9.29353e-05 7.10941e-06 0)
(-0.0219155 0.0781874 0)
(-0.021633 0.0752963 0)
(-0.02131 0.0724455 0)
(-0.0209512 0.0696402 0)
(-0.0205606 0.0668847 0)
(-0.0201424 0.064183 0)
(-0.0197001 0.0615385 0)
(-0.0192371 0.0589542 0)
(-0.0187571 0.0564325 0)
(-0.0182629 0.0539756 0)
(-0.017757 0.0515852 0)
(-0.0172422 0.0492625 0)
(-0.0167212 0.0470087 0)
(-0.0161962 0.0448244 0)
(-0.015669 0.0427099 0)
(-0.0151414 0.0406655 0)
(-0.0146152 0.0386911 0)
(-0.0140919 0.0367863 0)
(-0.0135731 0.0349508 0)
(-0.01306 0.0331838 0)
(-0.0125537 0.0314844 0)
(-0.0120553 0.0298517 0)
(-0.0115657 0.0282847 0)
(-0.0110856 0.0267819 0)
(-0.0106158 0.0253423 0)
(-0.0101568 0.0239643 0)
(-0.00970904 0.0226465 0)
(-0.00927304 0.0213873 0)
(-0.00884911 0.0201852 0)
(-0.00843751 0.0190386 0)
(-0.00803845 0.0179457 0)
(-0.00765207 0.016905 0)
(-0.00727846 0.0159147 0)
(-0.00691765 0.0149731 0)
(-0.00656962 0.0140786 0)
(-0.00623433 0.0132294 0)
(-0.00591168 0.0124239 0)
(-0.00560154 0.0116603 0)
(-0.00530375 0.0109371 0)
(-0.00501811 0.0102526 0)
(-0.00474443 0.00960521 0)
(-0.00448246 0.00899335 0)
(-0.00423195 0.00841548 0)
(-0.00399264 0.0078701 0)
(-0.00376424 0.00735575 0)
(-0.00354645 0.00687099 0)
(-0.00333898 0.00641445 0)
(-0.00314151 0.00598476 0)
(-0.00295373 0.00558063 0)
(-0.00277531 0.00520078 0)
(-0.00260595 0.004844 0)
(-0.00244531 0.00450911 0)
(-0.00229308 0.00419496 0)
(-0.00214893 0.00390047 0)
(-0.00201255 0.00362459 0)
(-0.00188362 0.0033663 0)
(-0.00176184 0.00312464 0)
(-0.0016469 0.00289867 0)
(-0.00153849 0.00268752 0)
(-0.00143634 0.00249032 0)
(-0.00134016 0.00230628 0)
(-0.00124966 0.00213462 0)
(-0.00116457 0.0019746 0)
(-0.00108465 0.00182552 0)
(-0.00100963 0.00168671 0)
(-0.000939258 0.00155754 0)
(-0.000873311 0.00143741 0)
(-0.000811554 0.00132575 0)
(-0.00075377 0.00122201 0)
(-0.000699746 0.00112568 0)
(-0.00064928 0.00103628 0)
(-0.000602179 0.000953347 0)
(-0.000558256 0.000876449 0)
(-0.000517337 0.000805175 0)
(-0.000479251 0.000739137 0)
(-0.000443838 0.000677971 0)
(-0.000410947 0.000621333 0)
(-0.000380433 0.000568897 0)
(-0.000352159 0.000520358 0)
(-0.000325996 0.000475427 0)
(-0.000301823 0.000433832 0)
(-0.000279525 0.000395317 0)
(-0.000258995 0.00035964 0)
(-0.000240132 0.000326574 0)
(-0.000222843 0.000295904 0)
(-0.000207039 0.000267427 0)
(-0.000192641 0.000240951 0)
(-0.000179574 0.000216296 0)
(-0.000167768 0.000193289 0)
(-0.000157161 0.000171767 0)
(-0.000147695 0.000151575 0)
(-0.000139321 0.000132565 0)
(-0.00013199 0.000114596 0)
(-0.000125664 9.75322e-05 0)
(-0.000120306 8.12424e-05 0)
(-0.000115886 6.56004e-05 0)
(-0.000112381 5.04836e-05 0)
(-0.000109769 3.57721e-05 0)
(-0.000108035 2.13486e-05 0)
(-0.000107171 7.0971e-06 0)
(-0.0248212 0.0780324 0)
(-0.0245012 0.075147 0)
(-0.0241355 0.0723019 0)
(-0.0237291 0.0695021 0)
(-0.0232867 0.0667521 0)
(-0.022813 0.0640557 0)
(-0.022312 0.0614165 0)
(-0.0217877 0.0588373 0)
(-0.0212441 0.0563206 0)
(-0.0206843 0.0538686 0)
(-0.0201113 0.0514829 0)
(-0.0195283 0.0491649 0)
(-0.0189383 0.0469155 0)
(-0.0183436 0.0447355 0)
(-0.0177465 0.0426252 0)
(-0.017149 0.0405849 0)
(-0.016553 0.0386144 0)
(-0.0159603 0.0367134 0)
(-0.0153727 0.0348815 0)
(-0.0147915 0.033118 0)
(-0.0142182 0.031422 0)
(-0.0136537 0.0297926 0)
(-0.0130992 0.0282286 0)
(-0.0125555 0.0267289 0)
(-0.0120233 0.025292 0)
(-0.0115034 0.0239168 0)
(-0.0109963 0.0226016 0)
(-0.0105025 0.0213449 0)
(-0.0100224 0.0201452 0)
(-0.00955622 0.0190008 0)
(-0.00910425 0.0179101 0)
(-0.00866664 0.0168715 0)
(-0.00824349 0.0158831 0)
(-0.00783484 0.0149435 0)
(-0.00744067 0.0140507 0)
(-0.00706093 0.0132032 0)
(-0.00669549 0.0123993 0)
(-0.00634423 0.0116372 0)
(-0.00600695 0.0109154 0)
(-0.00568345 0.0102323 0)
(-0.00537348 0.00958617 0)
(-0.00507678 0.00897552 0)
(-0.00479306 0.00839879 0)
(-0.00452201 0.0078545 0)
(-0.00426332 0.00734116 0)
(-0.00401666 0.00685737 0)
(-0.00378168 0.00640173 0)
(-0.00355803 0.00597289 0)
(-0.00334535 0.00556956 0)
(-0.00314329 0.00519047 0)
(-0.00295147 0.0048344 0)
(-0.00276953 0.00450017 0)
(-0.00259711 0.00418665 0)
(-0.00243385 0.00389274 0)
(-0.00227939 0.0036174 0)
(-0.00213337 0.00335963 0)
(-0.00199544 0.00311844 0)
(-0.00186525 0.00289293 0)
(-0.00174248 0.00268219 0)
(-0.00162678 0.00248539 0)
(-0.00151784 0.00230171 0)
(-0.00141534 0.00213039 0)
(-0.00131898 0.00197068 0)
(-0.00122846 0.0018219 0)
(-0.00114349 0.00168337 0)
(-0.00106379 0.00155445 0)
(-0.0009891 0.00143456 0)
(-0.000919156 0.00132312 0)
(-0.00085371 0.00121958 0)
(-0.000792523 0.00112345 0)
(-0.000735366 0.00103423 0)
(-0.00068202 0.000951458 0)
(-0.000632274 0.000874712 0)
(-0.000585929 0.000803579 0)
(-0.000542793 0.000737672 0)
(-0.000502685 0.000676628 0)
(-0.000465433 0.000620102 0)
(-0.000430873 0.00056777 0)
(-0.000398851 0.000519327 0)
(-0.000369219 0.000474485 0)
(-0.000341841 0.000432972 0)
(-0.000316587 0.000394533 0)
(-0.000293334 0.000358927 0)
(-0.000271971 0.000325927 0)
(-0.000252389 0.000295318 0)
(-0.00023449 0.000266897 0)
(-0.000218183 0.000240474 0)
(-0.000203383 0.000215867 0)
(-0.000190011 0.000192906 0)
(-0.000177998 0.000171426 0)
(-0.000167278 0.000151275 0)
(-0.000157793 0.000132303 0)
(-0.00014949 0.000114369 0)
(-0.000142325 9.7339e-05 0)
(-0.000136257 8.10814e-05 0)
(-0.000131251 6.54705e-05 0)
(-0.000127281 5.03836e-05 0)
(-0.000124323 3.57013e-05 0)
(-0.00012236 2.13063e-05 0)
(-0.000121381 7.08304e-06 0)
(-0.0277207 0.0778581 0)
(-0.0273634 0.0749792 0)
(-0.0269549 0.0721405 0)
(-0.0265011 0.0693469 0)
(-0.026007 0.066603 0)
(-0.025478 0.0639127 0)
(-0.0249185 0.0612793 0)
(-0.0243329 0.0587059 0)
(-0.0237258 0.0561949 0)
(-0.0231006 0.0537483 0)
(-0.0224607 0.0513679 0)
(-0.0218096 0.0490551 0)
(-0.0211506 0.0468107 0)
(-0.0204865 0.0446356 0)
(-0.0198196 0.04253 0)
(-0.0191523 0.0404943 0)
(-0.0184867 0.0385281 0)
(-0.0178248 0.0366314 0)
(-0.0171685 0.0348036 0)
(-0.0165195 0.033044 0)
(-0.0158791 0.0313518 0)
(-0.0152487 0.029726 0)
(-0.0146294 0.0281655 0)
(-0.0140222 0.0266692 0)
(-0.0134279 0.0252356 0)
(-0.0128472 0.0238634 0)
(-0.0122809 0.0225511 0)
(-0.0117294 0.0212972 0)
(-0.0111932 0.0201002 0)
(-0.0106726 0.0189584 0)
(-0.0101678 0.0178701 0)
(-0.00967906 0.0168338 0)
(-0.00920648 0.0158477 0)
(-0.0087501 0.0149101 0)
(-0.00830988 0.0140193 0)
(-0.00788578 0.0131737 0)
(-0.00747765 0.0123716 0)
(-0.00708536 0.0116112 0)
(-0.00670868 0.0108911 0)
(-0.00634738 0.0102094 0)
(-0.0060012 0.00956476 0)
(-0.00566984 0.00895547 0)
(-0.00535297 0.00838004 0)
(-0.00505027 0.00783696 0)
(-0.00476136 0.00732477 0)
(-0.00448588 0.00684206 0)
(-0.00422345 0.00638743 0)
(-0.00397367 0.00595956 0)
(-0.00373615 0.00555712 0)
(-0.00351048 0.00517888 0)
(-0.00329625 0.0048236 0)
(-0.00309306 0.00449012 0)
(-0.00290051 0.0041773 0)
(-0.00271817 0.00388405 0)
(-0.00254567 0.00360933 0)
(-0.00238259 0.00335213 0)
(-0.00222854 0.00311148 0)
(-0.00208315 0.00288647 0)
(-0.00194603 0.0026762 0)
(-0.00181682 0.00247984 0)
(-0.00169515 0.00229657 0)
(-0.00158068 0.00212563 0)
(-0.00147306 0.00196628 0)
(-0.00137197 0.00181783 0)
(-0.00127707 0.00167961 0)
(-0.00118806 0.00155098 0)
(-0.00110465 0.00143136 0)
(-0.00102653 0.00132016 0)
(-0.000953439 0.00121686 0)
(-0.000885105 0.00112094 0)
(-0.000821271 0.00103192 0)
(-0.000761692 0.000949334 0)
(-0.000706136 0.000872759 0)
(-0.000654376 0.000801785 0)
(-0.000606202 0.000736025 0)
(-0.000561409 0.000675117 0)
(-0.000519805 0.000618717 0)
(-0.000481207 0.000566502 0)
(-0.000445444 0.000518168 0)
(-0.000412351 0.000473426 0)
(-0.000381774 0.000432006 0)
(-0.00035357 0.000393653 0)
(-0.000327601 0.000358126 0)
(-0.000303742 0.000325199 0)
(-0.000281873 0.000294658 0)
(-0.000261883 0.000266301 0)
(-0.000243671 0.000239937 0)
(-0.000227142 0.000215385 0)
(-0.000212208 0.000192475 0)
(-0.000198792 0.000171044 0)
(-0.000186819 0.000150937 0)
(-0.000176226 0.000132007 0)
(-0.000166954 0.000114114 0)
(-0.000158951 9.71217e-05 0)
(-0.000152174 8.09005e-05 0)
(-0.000146584 6.53244e-05 0)
(-0.00014215 5.02711e-05 0)
(-0.000138846 3.56216e-05 0)
(-0.000136654 2.12587e-05 0)
(-0.000135561 7.06724e-06 0)
(-0.0306135 0.0776647 0)
(-0.0302189 0.0747929 0)
(-0.0297678 0.0719612 0)
(-0.0292665 0.0691746 0)
(-0.0287209 0.0664375 0)
(-0.0281367 0.0637539 0)
(-0.0275188 0.061127 0)
(-0.0268721 0.05856 0)
(-0.0262017 0.0560552 0)
(-0.0255112 0.0536148 0)
(-0.0248046 0.0512403 0)
(-0.0240855 0.0489332 0)
(-0.0233578 0.0466944 0)
(-0.0226243 0.0445247 0)
(-0.0218878 0.0424244 0)
(-0.0211509 0.0403936 0)
(-0.0204158 0.0384324 0)
(-0.0196849 0.0365404 0)
(-0.0189601 0.0347171 0)
(-0.0182433 0.0329619 0)
(-0.0175361 0.0312739 0)
(-0.01684 0.0296522 0)
(-0.016156 0.0280956 0)
(-0.0154854 0.0266029 0)
(-0.0148291 0.0251729 0)
(-0.0141879 0.0238041 0)
(-0.0135625 0.0224951 0)
(-0.0129534 0.0212443 0)
(-0.0123612 0.0200503 0)
(-0.0117863 0.0189113 0)
(-0.0112288 0.0178257 0)
(-0.0106891 0.016792 0)
(-0.0101672 0.0158083 0)
(-0.00966319 0.014873 0)
(-0.00917704 0.0139845 0)
(-0.00870868 0.013141 0)
(-0.00825797 0.0123408 0)
(-0.00782473 0.0115824 0)
(-0.00740875 0.010864 0)
(-0.00700975 0.0101841 0)
(-0.00662745 0.009541 0)
(-0.0062615 0.00893322 0)
(-0.00591157 0.00835921 0)
(-0.00557728 0.00781748 0)
(-0.00525822 0.00730657 0)
(-0.004954 0.00682505 0)
(-0.00466418 0.00637156 0)
(-0.00438834 0.00594475 0)
(-0.00412603 0.00554331 0)
(-0.00387681 0.00516601 0)
(-0.00364023 0.00481161 0)
(-0.00341584 0.00447896 0)
(-0.00320318 0.00416692 0)
(-0.00300182 0.0038744 0)
(-0.00281131 0.00360036 0)
(-0.00263121 0.0033438 0)
(-0.0024611 0.00310375 0)
(-0.00230053 0.00287929 0)
(-0.00214911 0.00266955 0)
(-0.00200641 0.00247368 0)
(-0.00187205 0.00229086 0)
(-0.00174563 0.00212035 0)
(-0.00162678 0.0019614 0)
(-0.00151514 0.00181331 0)
(-0.00141034 0.00167543 0)
(-0.00131204 0.00154713 0)
(-0.00121992 0.0014278 0)
(-0.00113365 0.00131688 0)
(-0.00105293 0.00121384 0)
(-0.000977468 0.00111816 0)
(-0.000906973 0.00102935 0)
(-0.000841177 0.000946975 0)
(-0.000779823 0.000870591 0)
(-0.000722662 0.000799793 0)
(-0.000669461 0.000734197 0)
(-0.000619993 0.00067344 0)
(-0.000574048 0.00061718 0)
(-0.000531423 0.000565095 0)
(-0.000491927 0.00051688 0)
(-0.000455381 0.00047225 0)