/*--------------------------------*- C++ -*----------------------------------*\
| =========                 |                                                 |
| \\      /  F ield         | OpenFOAM: The Open Source CFD Toolbox           |
|  \\    /   O peration     | Version:  2406                                  |
|   \\  /    A nd           | Website:  www.openfoam.com                      |
|    \\/     M anipulation  |                                                 |
\*---------------------------------------------------------------------------*/
FoamFile
{
    version     2.0;
    format      ascii;
    arch        "LSB;label=32;scalar=64";
    class       volScalarField;
    location    "200";
    object      T;
}
// * * * * * * * * * * * * * * * * * * * * * * * * * * * * * * * * * * * * * //

dimensions      [0 0 0 1 0 0 0];

internalField   nonuniform List<scalar> 
20000
(
299.649
299.65
299.653
299.657
299.663
299.669
299.676
299.684
299.692
299.702
299.711
299.721
299.732
299.743
299.754
299.765
299.776
299.787
299.799
299.81
299.821
299.833
299.844
299.855
299.865
299.876
299.886
299.896
299.905
299.915
299.924
299.933
299.941
299.949
299.957
299.965
299.972
299.978
299.985
299.991
299.997
300.002
300.007
300.012
300.017
300.021
300.025
300.029
300.032
300.035
300.038
300.04
300.043
300.045
300.047
300.048
300.05
300.051
300.052
300.053
300.053
300.054
300.054
300.054
300.054
300.054
300.053
300.053
300.052
300.052
300.051
300.05
300.049
300.048
300.046
300.045
300.044
300.042
300.041
300.039
300.038
300.036
300.034
300.033
300.031
300.029
300.027
300.025
300.023
300.021
300.019
300.017
300.015
300.013
300.011
300.009
300.007
300.005
300.003
300.001
298.947
298.951
298.96
298.972
298.988
299.006
299.028
299.051
299.077
299.105
299.134
299.164
299.196
299.228
299.261
299.295
299.328
299.362
299.397
299.431
299.464
299.498
299.531
299.564
299.596
299.627
299.657
299.687
299.716
299.744
299.772
299.798
299.823
299.848
299.871
299.894
299.915
299.935
299.955
299.973
299.991
300.007
300.022
300.037
300.051
300.063
300.075
300.086
300.096
300.105
300.114
300.121
300.128
300.134
300.14
300.145
300.149
300.152
300.155
300.158
300.159
300.161
300.161
300.162
300.161
300.161
300.16
300.158
300.157
300.155
300.152
300.149
300.146
300.143
300.139
300.136
300.131
300.127
300.123
300.118
300.113
300.108
300.103
300.098
300.093
300.087
300.082
300.076
300.07
300.064
300.058
300.052
300.046
300.04
300.034
300.028
300.022
300.016
300.009
300.003
298.245
298.252
298.267
298.287
298.313
298.344
298.38
298.419
298.462
298.508
298.556
298.607
298.659
298.713
298.769
298.824
298.881
298.938
298.995
299.051
299.108
299.163
299.218
299.273
299.326
299.378
299.429
299.479
299.527
299.574
299.62
299.663
299.706
299.746
299.785
299.823
299.858
299.892
299.925
299.955
299.984
300.012
300.037
300.062
300.084
300.105
300.125
300.143
300.16
300.175
300.189
300.202
300.214
300.224
300.233
300.241
300.248
300.254
300.259
300.263
300.266
300.268
300.269
300.269
300.269
300.268
300.266
300.264
300.261
300.258
300.253
300.249
300.244
300.238
300.232
300.226
300.219
300.212
300.205
300.197
300.189
300.181
300.172
300.163
300.154
300.145
300.136
300.126
300.117
300.107
300.097
300.087
300.077
300.067
300.057
300.047
300.036
300.026
300.016
300.005
297.544
297.554
297.574
297.603
297.639
297.682
297.732
297.787
297.847
297.912
297.979
298.05
298.124
298.199
298.276
298.355
298.434
298.513
298.593
298.672
298.751
298.829
298.906
298.982
299.057
299.13
299.201
299.271
299.338
299.404
299.468
299.529
299.588
299.645
299.699
299.752
299.802
299.849
299.894
299.937
299.978
300.016
300.052
300.086
300.118
300.148
300.175
300.2
300.224
300.245
300.265
300.283
300.299
300.313
300.326
300.337
300.347
300.355
300.362
300.367
300.372
300.375
300.376
300.377
300.377
300.375
300.373
300.37
300.365
300.36
300.355
300.348
300.341
300.333
300.325
300.316
300.307
300.297
300.286
300.276
300.264
300.253
300.241
300.229
300.216
300.203
300.19
300.177
300.164
300.15
300.136
300.122
300.108
300.094
300.08
300.065
300.051
300.036
300.022
300.007
296.843
296.856
296.882
296.919
296.966
297.021
297.085
297.156
297.233
297.316
297.403
297.494
297.588
297.686
297.785
297.885
297.987
298.089
298.191
298.293
298.395
298.495
298.594
298.692
298.788
298.881
298.973
299.063
299.15
299.234
299.316
299.394
299.47
299.544
299.614
299.681
299.745
299.806
299.864
299.919
299.972
300.021
300.067
300.111
300.152
300.19
300.225
300.258
300.288
300.316
300.341
300.364
300.384
300.403
300.419
300.434
300.446
300.457
300.465
300.472
300.478
300.481
300.484
300.485
300.484
300.482
300.479
300.475
300.47
300.463
300.456
300.448
300.439
300.429
300.418
300.406
300.394
300.381
300.368
300.354
300.34
300.325
300.31
300.294
300.278
300.261
300.245
300.227
300.21
300.193
300.175
300.157
300.139
300.121
300.102
300.084
300.065
300.047
300.028
300.009
296.143
296.159
296.191
296.236
296.293
296.361
296.439
296.525
296.62
296.721
296.827
296.938
297.054
297.172
297.293
297.416
297.54
297.665
297.79
297.915
298.039
298.161
298.282
298.402
298.519
298.633
298.746
298.855
298.961
299.064
299.164
299.26
299.353
299.442
299.528
299.61
299.688
299.763
299.834
299.902
299.965
300.026
300.082
300.135
300.185
300.232
300.275
300.315
300.352
300.385
300.416
300.444
300.47
300.492
300.512
300.53
300.545
300.558
300.568
300.577
300.584
300.588
300.591
300.592
300.591
300.589
300.585
300.58
300.574
300.566
300.557
300.547
300.536
300.524
300.51
300.496
300.482
300.466
300.45
300.433
300.415
300.397
300.378
300.359
300.339
300.319
300.299
300.278
300.257
300.235
300.214
300.192
300.17
300.147
300.125
300.102
300.08
300.057
300.034
300.011
295.444
295.463
295.5
295.553
295.621
295.701
295.793
295.896
296.007
296.126
296.252
296.384
296.52
296.66
296.803
296.948
297.095
297.242
297.39
297.537
297.683
297.828
297.971
298.112
298.25
298.386
298.518
298.647
298.773
298.894
299.012
299.126
299.236
299.341
299.442
299.539
299.632
299.72
299.804
299.884
299.959
300.03
300.097
300.16
300.219
300.274
300.325
300.372
300.415
300.455
300.492
300.525
300.555
300.581
300.605
300.626
300.644
300.659
300.672
300.682
300.689
300.695
300.698
300.699
300.699
300.696
300.692
300.685
300.678
300.669
300.658
300.646
300.633
300.618
300.603
300.586
300.569
300.55
300.531
300.511
300.49
300.469
300.447
300.424
300.401
300.377
300.353
300.328
300.303
300.278
300.252
300.227
300.2
300.174
300.148
300.121
300.094
300.067
300.04
300.013
294.746
294.768
294.811
294.872
294.95
295.043
295.149
295.267
295.395
295.533
295.678
295.83
295.987
296.148
296.313
296.48
296.65
296.82
296.99
297.159
297.328
297.495
297.66
297.823
297.982
298.139
298.291
298.44
298.585
298.725
298.861
298.992
299.119
299.24
299.357
299.469
299.576
299.677
299.774
299.866
299.953
300.035
300.112
300.185
300.252
300.316
300.374
300.429
300.479
300.525
300.567
300.605
300.64
300.671
300.698
300.722
300.742
300.76
300.774
300.786
300.795
300.801
300.805
300.806
300.806
300.803
300.797
300.79
300.782
300.771
300.759
300.745
300.73
300.713
300.695
300.676
300.656
300.635
300.613
300.589
300.565
300.541
300.515
300.489
300.462
300.435
300.407
300.379
300.35
300.321
300.291
300.261
300.231
300.201
300.17
300.139
300.109
300.078
300.047
300.016
294.049
294.074
294.123
294.192
294.28
294.386
294.506
294.64
294.785
294.941
295.105
295.277
295.455
295.638
295.824
296.014
296.205
296.398
296.591
296.783
296.974
297.163
297.35
297.534
297.715
297.892
298.065
298.233
298.397
298.556
298.71
298.859
299.002
299.14
299.272
299.398
299.519
299.635
299.744
299.848
299.947
300.039
300.127
300.209
300.286
300.357
300.424
300.486
300.543
300.595
300.642
300.686
300.725
300.759
300.79
300.817
300.841
300.861
300.877
300.89
300.9
300.907
300.912
300.913
300.912
300.909
300.903
300.895
300.885
300.873
300.859
300.844
300.827
300.808
300.787
300.766
300.743
300.719
300.694
300.668
300.64
300.612
300.583
300.554
300.523
300.492
300.461
300.429
300.396
300.363
300.33
300.296
300.262
300.227
300.193
300.158
300.123
300.088
300.053
300.018
293.354
293.382
293.436
293.514
293.612
293.73
293.864
294.013
294.176
294.35
294.533
294.725
294.924
295.128
295.336
295.548
295.762
295.977
296.192
296.407
296.62
296.832
297.04
297.246
297.448
297.645
297.839
298.027
298.21
298.387
298.559
298.725
298.885
299.039
299.187
299.328
299.463
299.592
299.714
299.83
299.94
300.044
300.142
300.233
300.319
300.399
300.474
300.542
300.606
300.664
300.717
300.766
300.809
300.848
300.883
300.913
300.939
300.961
300.98
300.994
301.006
301.013
301.018
301.02
301.019
301.015
301.009
301
300.989
300.975
300.96
300.942
300.923
300.902
300.879
300.855
300.83
300.803
300.775
300.746
300.715
300.684
300.652
300.618
300.585
300.55
300.515
300.479
300.442
300.405
300.368
300.33
300.292
300.254
300.215
300.176
300.137
300.098
300.059
300.02
292.66
292.692
292.751
292.837
292.946
293.075
293.224
293.389
293.568
293.76
293.963
294.174
294.394
294.619
294.85
295.084
295.32
295.557
295.795
296.032
296.268
296.501
296.732
296.959
297.181
297.4
297.613
297.821
298.023
298.219
298.409
298.592
298.769
298.939
299.102
299.258
299.407
299.549
299.685
299.813
299.934
300.049
300.157
300.258
300.352
300.441
300.523
300.599
300.669
300.733
300.792
300.846
300.894
300.937
300.975
301.008
301.037
301.061
301.082
301.098
301.11
301.119
301.125
301.126
301.125
301.121
301.114
301.104
301.092
301.077
301.06
301.041
301.019
300.996
300.971
300.945
300.916
300.887
300.856
300.823
300.79
300.755
300.72
300.683
300.646
300.607
300.568
300.529
300.489
300.448
300.407
300.365
300.323
300.28
300.238
300.195
300.152
300.108
300.065
300.022
291.969
292.003
292.068
292.162
292.281
292.423
292.585
292.766
292.962
293.172
293.394
293.625
293.866
294.112
294.364
294.62
294.879
295.139
295.399
295.658
295.916
296.171
296.424
296.672
296.916
297.155
297.388
297.616
297.837
298.051
298.259
298.46
298.653
298.839
299.017
299.188
299.351
299.507
299.655
299.795
299.928
300.053
300.171
300.282
300.386
300.482
300.572
300.655
300.732
300.803
300.867
300.925
300.978
301.025
301.067
301.103
301.135
301.161
301.184
301.201
301.215
301.225
301.23
301.233
301.231
301.227
301.219
301.208
301.195
301.178
301.16
301.139
301.115
301.09
301.063
301.034
301.003
300.97
300.936
300.901
300.864
300.826
300.787
300.747
300.706
300.665
300.622
300.579
300.535
300.49
300.445
300.399
300.353
300.307
300.26
300.213
300.166
300.119
300.071
300.024
291.279
291.316
291.387
291.489
291.618
291.772
291.948
292.144
292.357
292.585
292.826
293.078
293.339
293.607
293.88
294.158
294.439
294.721
295.004
295.285
295.565
295.843
296.116
296.386
296.651
296.91
297.164
297.411
297.651
297.884
298.109
298.327
298.537
298.739
298.933
299.118
299.296
299.465
299.625
299.778
299.922
300.058
300.186
300.306
300.419
300.524
300.621
300.712
300.795
300.872
300.941
301.005
301.062
301.113
301.158
301.198
301.232
301.261
301.285
301.305
301.319
301.33
301.336
301.338
301.337
301.332
301.324
301.312
301.297
301.28
301.259
301.237
301.211
301.184
301.154
301.122
301.089
301.054
301.017
300.978
300.938
300.897
300.855
300.812
300.767
300.722
300.675
300.628
300.581
300.532
300.483
300.434
300.384
300.333
300.283
300.232
300.18
300.129
300.077
300.026
290.591
290.631
290.708
290.818
290.957
291.123
291.314
291.525
291.755
292.001
292.261
292.532
292.814
293.103
293.398
293.698
294
294.305
294.61
294.914
295.216
295.515
295.81
296.101
296.387
296.667
296.94
297.207
297.466
297.717
297.96
298.195
298.422
298.64
298.849
299.049
299.24
299.422
299.596
299.76
299.916
300.062
300.201
300.33
300.452
300.565
300.67
300.768
300.858
300.94
301.016
301.084
301.146
301.201
301.25
301.292
301.329
301.361
301.387
301.408
301.423
301.435
301.442
301.444
301.442
301.437
301.428
301.415
301.4
301.381
301.359
301.334
301.307
301.277
301.245
301.211
301.175
301.137
301.097
301.055
301.012
300.968
300.922
300.876
300.828
300.779
300.729
300.678
300.626
300.574
300.521
300.468
300.414
300.359
300.305
300.25
300.195
300.139
300.084
300.028
289.906
289.949
290.031
290.149
290.298
290.477
290.681
290.908
291.154
291.418
291.697
291.988
292.29
292.6
292.917
293.239
293.563
293.89
294.217
294.543
294.867
295.188
295.505
295.817
296.124
296.424
296.717
297.003
297.281
297.551
297.812
298.064
298.307
298.541
298.765
298.98
299.185
299.38
299.566
299.742
299.909
300.067
300.215
300.354
300.485
300.606
300.719
300.824
300.92
301.009
301.09
301.163
301.229
301.288
301.341
301.386
301.426
301.46
301.488
301.51
301.527
301.539
301.547
301.549
301.548
301.542
301.532
301.518
301.501
301.481
301.458
301.431
301.402
301.37
301.336
301.299
301.26
301.219
301.177
301.132
301.086
301.039
300.99
300.939
300.888
300.835
300.782
300.727
300.672
300.616
300.559
300.502
300.444
300.386
300.327
300.268
300.209
300.149
300.09
300.03
289.223
289.269
289.357
289.482
289.642
289.833
290.051
290.293
290.556
290.838
291.135
291.446
291.769
292.1
292.438
292.781
293.128
293.477
293.826
294.174
294.52
294.863
295.201
295.534
295.862
296.182
296.495
296.8
297.097
297.385
297.664
297.933
298.192
298.442
298.681
298.911
299.13
299.338
299.537
299.725
299.903
300.071
300.23
300.378
300.518
300.647
300.768
300.879
300.982
301.077
301.163
301.242
301.312
301.375
301.431
301.48
301.523
301.558
301.588
301.612
301.63
301.643
301.651
301.654
301.652
301.646
301.636
301.621
301.603
301.581
301.556
301.528
301.497
301.463
301.426
301.387
301.346
301.302
301.256
301.209
301.16
301.109
301.057
301.003
300.948
300.892
300.835
300.776
300.717
300.658
300.597
300.536
300.474
300.412
300.349
300.286
300.223
300.159
300.096
300.032
288.543
288.592
288.685
288.819
288.989
289.191
289.423
289.68
289.96
290.259
290.576
290.907
291.249
291.601
291.961
292.326
292.694
293.065
293.436
293.806
294.174
294.538
294.898
295.252
295.6
295.941
296.274
296.598
296.914
297.22
297.516
297.803
298.078
298.344
298.598
298.842
299.075
299.297
299.508
299.708
299.897
300.076
300.244
300.402
300.55
300.688
300.816
300.935
301.044
301.145
301.237
301.32
301.395
301.462
301.522
301.574
301.619
301.657
301.689
301.714
301.733
301.747
301.755
301.758
301.756
301.75
301.739
301.724
301.704
301.681
301.654
301.624
301.591
301.555
301.516
301.475
301.43
301.384
301.336
301.285
301.233
301.179
301.123
301.066
301.008
300.948
300.887
300.825
300.763
300.699
300.635
300.57
300.504
300.438
300.371
300.304
300.237
300.169
300.102
300.034
287.866
287.918
288.016
288.158
288.338
288.552
288.797
289.07
289.366
289.684
290.019
290.369
290.732
291.105
291.485
291.872
292.263
292.655
293.048
293.44
293.83
294.215
294.597
294.972
295.34
295.701
296.054
296.397
296.732
297.056
297.37
297.673
297.965
298.246
298.515
298.773
299.02
299.255
299.478
299.69
299.891
300.08
300.259
300.426
300.583
300.729
300.865
300.99
301.106
301.213
301.31
301.398
301.477
301.548
301.611
301.667
301.714
301.755
301.788
301.815
301.836
301.85
301.859
301.862
301.86
301.853
301.842
301.825
301.805
301.781
301.752
301.72
301.685
301.647
301.606
301.562
301.515
301.466
301.415
301.361
301.306
301.249
301.19
301.129
301.067
301.004
300.94
300.874
300.808
300.74
300.672
300.603
300.534
300.464
300.393
300.322
300.251
300.179
300.108
300.036
287.192
287.246
287.35
287.5
287.689
287.916
288.175
288.462
288.775
289.11
289.464
289.834
290.217
290.61
291.012
291.42
291.833
292.247
292.662
293.076
293.487
293.894
294.296
294.692
295.081
295.462
295.834
296.197
296.55
296.892
297.223
297.543
297.852
298.148
298.433
298.705
298.965
299.214
299.449
299.673
299.885
300.085
300.273
300.45
300.615
300.769
300.913
301.045
301.168
301.28
301.383
301.476
301.559
301.635
301.701
301.759
301.81
301.852
301.888
301.916
301.938
301.953
301.962
301.966
301.964
301.956
301.944
301.927
301.905
301.879
301.85
301.816
301.779
301.739
301.695
301.648
301.599
301.547
301.493
301.437
301.378
301.318
301.256
301.192
301.127
301.06
300.992
300.923
300.853
300.781
300.709
300.637
300.563
300.489
300.415
300.34
300.265
300.189
300.114
300.038
286.52
286.578
286.687
286.845
287.044
287.283
287.555
287.858
288.187
288.54
288.912
289.301
289.704
290.118
290.541
290.971
291.405
291.841
292.277
292.713
293.145
293.574
293.997
294.414
294.824
295.224
295.616
295.998
296.369
296.729
297.078
297.415
297.739
298.051
298.351
298.637
298.911
299.172
299.421
299.656
299.879
300.089
300.287
300.473
300.647
300.81
300.96
301.1
301.229
301.347
301.455
301.553
301.641
301.72
301.79
301.851
301.904
301.949
301.987
302.017
302.039
302.056
302.065
302.069
302.067
302.059
302.046
302.028
302.005
301.978
301.947
301.911
301.872
301.83
301.784
301.735
301.683
301.629
301.571
301.512
301.451
301.387
301.322
301.254
301.186
301.115
301.044
300.971
300.897
300.822
300.747
300.67
300.593
300.515
300.437
300.358
300.279
300.199
300.12
300.04
285.853
285.913
286.028
286.193
286.403
286.653
286.939
287.256
287.602
287.972
288.363
288.771
289.194
289.629
290.073
290.524
290.979
291.436
291.895
292.352
292.806
293.256
293.7
294.138
294.567
294.988
295.399
295.8
296.189
296.567
296.933
297.287
297.627
297.955
298.269
298.57
298.857
299.131
299.392
299.639
299.873
300.094
300.302
300.497
300.679
300.85
301.008
301.155
301.29
301.414
301.527
301.63
301.723
301.805
301.879
301.943
301.999
302.046
302.085
302.116
302.14
302.157
302.168
302.171
302.169
302.161
302.147
302.128
302.104
302.076
302.043
302.006
301.965
301.92
301.872
301.821
301.766
301.709
301.649
301.587
301.522
301.456
301.387
301.317
301.244
301.171
301.096
301.019
300.942
300.863
300.784
300.703
300.622
300.541
300.458
300.376
300.293
300.209
300.126
300.042
285.188
285.251
285.372
285.544
285.764
286.026
286.325
286.658
287.02
287.407
287.816
288.244
288.687
289.142
289.607
290.079
290.555
291.034
291.514
291.993
292.468
292.939
293.404
293.862
294.312
294.753
295.183
295.602
296.01
296.406
296.789
297.159
297.516
297.859
298.188
298.503
298.804
299.091
299.363
299.622
299.867
300.098
300.316
300.52
300.711
300.89
301.055
301.209
301.35
301.48
301.599
301.706
301.803
301.89
301.967
302.034
302.093
302.142
302.183
302.216
302.241
302.259
302.269
302.273
302.271
302.262
302.248
302.228
302.203
302.173
302.139
302.1
302.057
302.01
301.96
301.906
301.849
301.789
301.727
301.662
301.594
301.524
301.452
301.378
301.303
301.226
301.147
301.067
300.986
300.904
300.82
300.736
300.651
300.566
300.48
300.393
300.306
300.219
300.131
300.044
284.528
284.593
284.719
284.9
285.129
285.403
285.715
286.063
286.441
286.845
287.273
287.719
288.182
288.657
289.143
289.636
290.134
290.634
291.136
291.635
292.132
292.624
293.11
293.588
294.058
294.518
294.968
295.406
295.832
296.246
296.646
297.032
297.405
297.763
298.107
298.436
298.75
299.05
299.335
299.605
299.861
300.103
300.33
300.543
300.743
300.929
301.102
301.263
301.411
301.546
301.67
301.782
301.884
301.974
302.055
302.125
302.186
302.238
302.28
302.315
302.341
302.359
302.371
302.375
302.372
302.363
302.348
302.328
302.302
302.27
302.234
302.194
302.149
302.1
302.048
301.991
301.932
301.869
301.804
301.736
301.665
301.592
301.517
301.44
301.361
301.28
301.198
301.115
301.03
300.944
300.857
300.769
300.681
300.591
300.501
300.411
300.32
300.229
300.137
300.046
283.871
283.939
284.071
284.259
284.498
284.783
285.109
285.471
285.865
286.287
286.732
287.198
287.68
288.176
288.682
289.196
289.715
290.237
290.759
291.28
291.798
292.311
292.817
293.316
293.806
294.286
294.754
295.211
295.655
296.086
296.504
296.906
297.295
297.668
298.026
298.37
298.697
299.01
299.307
299.589
299.855
300.107
300.344
300.566
300.775
300.969
301.149
301.316
301.47
301.612
301.741
301.858
301.964
302.058
302.142
302.215
302.279
302.333
302.377
302.413
302.44
302.46
302.471
302.475
302.473
302.464
302.448
302.426
302.399
302.367
302.329
302.287
302.24
302.189
302.134
302.076
302.014
301.949
301.88
301.809
301.736
301.66
301.581
301.501
301.419
301.335
301.249
301.162
301.074
300.984
300.893
300.802
300.709
300.616
300.523
300.428
300.333
300.238
300.143
300.048
283.218
283.289
283.426
283.621
283.87
284.167
284.506
284.883
285.293
285.732
286.195
286.68
287.182
287.697
288.224
288.759
289.299
289.842
290.385
290.927
291.466
292
292.527
293.046
293.555
294.054
294.542
295.017
295.48
295.928
296.362
296.781
297.185
297.574
297.947
298.304
298.645
298.97
299.279
299.572
299.849
300.111
300.358
300.589
300.806
301.008
301.196
301.37
301.53
301.677
301.811
301.933
302.043
302.142
302.229
302.305
302.371
302.427
302.473
302.511
302.539
302.559
302.571
302.576
302.573
302.563
302.547
302.525
302.496
302.463
302.423
302.38
302.331
302.278
302.221
302.16
302.095
302.028
301.956
301.883
301.806
301.727
301.645
301.562
301.476
301.389
301.3
301.209
301.117
301.024
300.93
300.834
300.738
300.641
300.544
300.446
300.347
300.248
300.149
300.05
282.569
282.643
282.785
282.988
283.247
283.555
283.907
284.299
284.725
285.18
285.662
286.165
286.686
287.222
287.769
288.324
288.885
289.449
290.014
290.577
291.136
291.69
292.238
292.777
293.306
293.825
294.331
294.825
295.305
295.771
296.221
296.657
297.076
297.48
297.867
298.238
298.592
298.93
299.251
299.555
299.844
300.116
300.372
300.612
300.837
301.047
301.242
301.423
301.589
301.742
301.881
302.008
302.122
302.224
302.315
302.394
302.463
302.521
302.569
302.608
302.637
302.658
302.671
302.675
302.672
302.662
302.645
302.622
302.593
302.558
302.517
302.472
302.421
302.366
302.307
302.243
302.176
302.106
302.032
301.955
301.876
301.794
301.709
301.622
301.533
301.442
301.35
301.256
301.16
301.063
300.966
300.867
300.767
300.666
300.565
300.463
300.36
300.258
300.155
300.052
281.925
282.002
282.149
282.359
282.627
282.947
283.312
283.718
284.16
284.632
285.132
285.653
286.194
286.749
287.317
287.892
288.474
289.059
289.644
290.228
290.808
291.383
291.951
292.51
293.059
293.596
294.122
294.634
295.131
295.614
296.082
296.533
296.968
297.387
297.788
298.173
298.54
298.89
299.223
299.539
299.838
300.12
300.385
300.635
300.868
301.086
301.288
301.475
301.648
301.806
301.951
302.082
302.201
302.307
302.4
302.483
302.554
302.614
302.664
302.704
302.735
302.756
302.769
302.774
302.771
302.761
302.743
302.719
302.689
302.652
302.61
302.563
302.511
302.453
302.392
302.326
302.257
302.184
302.107
302.028
301.945
301.86
301.772
301.682
301.59
301.496
301.4
301.302
301.203
301.103
301.001
300.899
300.795
300.691
300.586
300.48
300.374
300.267
300.16
300.053
281.285
281.364
281.517
281.735
282.012
282.343
282.721
283.142
283.599
284.088
284.605
285.146
285.705
286.28
286.868
287.464
288.066
288.671
289.278
289.882
290.483
291.078
291.666
292.245
292.813
293.37
293.913
294.444
294.959
295.459
295.943
296.41
296.861
297.294
297.71
298.108
298.488
298.851
299.196
299.523
299.832
300.124
300.399
300.657
300.899
301.124
301.333
301.527
301.706
301.87
302.02
302.156
302.279
302.388
302.485
302.571
302.644
302.707
302.758
302.8
302.832
302.854
302.867
302.872
302.869
302.859
302.84
302.815
302.784
302.746
302.703
302.654
302.599
302.54
302.477
302.409
302.337
302.261
302.182
302.099
302.014
301.926
301.835
301.742
301.646
301.549
301.449
301.348
301.246
301.142
301.037
300.93
300.823
300.715
300.606
300.497
300.387
300.277
300.166
300.055
280.649
280.732
280.889
281.115
281.402
281.744
282.135
282.569
283.042
283.548
284.083
284.641
285.22
285.814
286.422
287.038
287.661
288.287
288.914
289.539
290.16
290.775
291.383
291.981
292.569
293.145
293.707
294.255
294.788
295.305
295.805
296.289
296.754
297.202
297.632
298.044
298.437
298.812
299.168
299.506
299.826
300.128
300.413
300.68
300.929
301.162
301.379
301.579
301.764
301.934
302.089
302.229
302.356
302.469
302.57
302.658
302.734
302.798
302.852
302.895
302.928
302.951
302.965
302.97
302.967
302.956
302.937
302.911
302.878
302.839
302.794
302.744
302.688
302.627
302.561
302.49
302.416
302.338
302.256
302.171
302.082
301.991
301.897
301.801
301.702
301.601
301.499
301.394
301.288
301.181
301.072
300.962
300.851
300.739
300.627
300.514
300.4
300.286
300.172
300.057
280.019
280.104
280.266
280.499
280.796
281.149
281.553
282.001
282.49
283.012
283.564
284.141
284.738
285.352
285.979
286.616
287.259
287.905
288.552
289.198
289.839
290.475
291.102
291.72
292.327
292.921
293.502
294.068
294.618
295.152
295.669
296.168
296.649
297.111
297.555
297.98
298.386
298.773
299.141
299.49
299.821
300.133
300.426
300.702
300.96
301.2
301.424
301.631
301.822
301.997
302.157
302.302
302.433
302.55
302.654
302.744
302.823
302.89
302.945
302.989
303.023
303.047
303.061
303.067
303.063
303.052
303.033
303.006
302.972
302.932
302.885
302.833
302.775
302.712
302.644
302.572
302.495
302.414
302.329
302.241
302.15
302.056
301.959
301.859
301.758
301.653
301.547
301.44
301.33
301.219
301.107
300.993
300.879
300.763
300.647
300.53
300.413
300.295
300.177
300.059
279.393
279.481
279.649
279.889
280.194
280.558
280.975
281.438
281.941
282.48
283.049
283.644
284.26
284.894
285.54
286.197
286.86
287.526
288.194
288.86
289.521
290.176
290.824
291.461
292.087
292.699
293.298
293.882
294.449
295
295.533
296.048
296.544
297.021
297.479
297.917
298.336
298.735
299.114
299.474
299.815
300.137
300.439
300.724
300.99
301.238
301.468
301.682
301.879
302.059
302.224
302.374
302.509
302.63
302.737
302.83
302.911
302.98
303.037
303.083
303.118
303.142
303.157
303.163
303.159
303.147
303.128
303.1
303.065
303.024
302.976
302.922
302.862
302.797
302.727
302.652
302.573
302.49
302.402
302.312
302.218
302.12
302.02
301.918
301.813
301.705
301.596
301.485
301.372
301.257
301.141
301.024
300.906
300.787
300.668
300.547
300.426
300.305
300.183
300.061
278.773
278.863
279.036
279.283
279.598
279.973
280.402
280.879
281.397
281.953
282.539
283.152
283.786
284.439
285.105
285.781
286.464
287.151
287.838
288.524
289.206
289.881
290.547
291.204
291.848
292.48
293.096
293.698
294.282
294.849
295.398
295.929
296.44
296.931
297.403
297.854
298.285
298.697
299.088
299.458
299.809
300.141
300.453
300.745
301.019
301.275
301.512
301.732
301.935
302.121
302.291
302.445
302.585
302.709
302.819
302.916
302.999
303.07
303.129
303.176
303.212
303.237
303.252
303.258
303.254
303.242
303.222
303.193
303.158
303.115
303.065
303.01
302.948
302.881
302.809
302.732
302.65
302.565
302.475
302.381
302.284
302.184
302.081
301.975
301.867
301.757
301.644
301.529
301.413
301.295
301.176
301.055
300.934
300.811
300.688
300.564
300.439
300.314
300.188
300.063
278.157
278.25
278.428
278.683
279.006
279.392
279.834
280.325
280.858
281.429
282.033
282.663
283.316
283.988
284.673
285.369
286.072
286.778
287.486
288.191
288.893
289.587
290.273
290.949
291.612
292.262
292.896
293.515
294.117
294.7
295.265
295.811
296.336
296.842
297.327
297.792
298.236
298.659
299.061
299.443
299.804
300.145
300.466
300.767
301.049
301.312
301.556
301.783
301.991
302.183
302.358
302.516
302.659
302.787
302.901
303
303.086
303.159
303.219
303.268
303.305
303.331
303.347
303.352
303.349
303.336
303.315
303.286
303.249
303.205
303.154
303.097
303.034
302.965
302.891
302.811
302.727
302.639
302.546
302.45
302.351
302.248
302.141
302.033
301.921
301.807
301.692
301.574
301.454
301.333
301.21
301.086
300.961
300.835
300.708
300.58
300.452
300.323
300.194
300.065
277.547
277.643
277.826
278.087
278.42
278.817
279.271
279.775
280.324
280.911
281.531
282.179
282.85
283.54
284.245
284.96
285.683
286.409
287.136
287.862
288.583
289.297
290.002
290.696
291.378
292.046
292.698
293.334
293.952
294.552
295.133
295.694
296.234
296.754
297.253
297.73
298.187
298.621
299.035
299.427
299.798
300.149
300.479
300.788
301.078
301.349
301.6
301.832
302.047
302.244
302.424
302.587
302.734
302.865
302.982
303.084
303.172
303.247
303.309
303.359
303.397
303.424
303.44
303.446
303.442
303.429
303.408
303.378
303.34
303.295
303.242
303.184
303.118
303.048
302.971
302.89
302.803
302.713
302.618
302.519
302.416
302.31
302.201
302.089
301.975
301.858
301.739
301.618
301.495
301.37
301.244
301.116
300.988
300.858
300.727
300.596
300.464
300.332
300.199
300.066
276.943
277.041
277.229
277.497
277.839
278.247
278.713
279.231
279.794
280.397
281.034
281.699
282.389
283.097
283.821
284.555
285.297
286.043
286.79
287.535
288.275
289.008
289.732
290.445
291.146
291.831
292.501
293.154
293.789
294.405
295.002
295.578
296.133
296.667
297.179
297.669
298.138
298.584
299.009
299.412
299.793
300.153
300.492
300.81
301.107
301.385
301.643
301.882
302.102
302.304
302.489
302.656
302.807
302.942
303.062
303.167
303.258
303.334
303.398
303.449
303.488
303.516
303.533
303.539
303.535
303.522
303.499
303.469
303.43
303.383
303.33
303.269
303.202
303.13
303.051
302.967
302.879
302.786
302.688
302.586
302.481
302.372
302.261
302.146
302.028
301.908
301.786
301.661
301.535
301.407
301.277
301.146
301.014
300.881
300.747
300.612
300.477
300.341
300.205
300.068
276.344
276.445
276.637
276.913
277.264
277.682
278.16
278.691
279.269
279.888
280.541
281.224
281.931
282.658
283.401
284.154
284.916
285.681
286.447
287.211
287.971
288.723
289.466
290.197
290.916
291.619
292.307
292.977
293.628
294.26
294.872
295.463
296.032
296.58
297.106
297.609
298.089
298.547
298.983
299.397
299.788
300.157
300.504
300.831
301.136
301.421
301.685
301.931
302.157
302.364
302.553
302.725
302.88
303.019
303.142
303.249
303.342
303.421
303.486
303.539
303.579
303.607
303.624
303.631
303.627
303.613
303.59
303.559
303.519
303.471
303.416
303.354
303.286
303.211
303.13
303.045
302.954
302.858
302.758
302.654
302.546
302.434
302.319
302.201
302.081
301.958
301.832
301.704
301.575
301.443
301.31
301.176
301.04
300.904
300.766
300.628
300.489
300.35
300.21
300.07
275.751
275.855
276.052
276.334
276.694
277.123
277.613
278.157
278.75
279.384
280.054
280.754
281.479
282.224
282.985
283.757
284.538
285.322
286.107
286.891
287.669
288.44
289.202
289.952
290.688
291.409
292.114
292.801
293.468
294.116
294.743
295.349
295.933
296.494
297.033
297.549
298.041
298.511
298.958
299.381
299.782
300.161
300.517
300.851
301.164
301.456
301.728
301.979
302.211
302.423
302.617
302.794
302.952
303.094
303.22
303.331
303.426
303.507
303.574
303.628
303.669
303.698
303.715
303.722
303.718
303.704
303.68
303.648
303.607
303.558
303.502
303.438
303.368
303.291
303.209
303.121
303.028
302.93
302.827
302.72
302.609
302.495
302.377
302.257
302.133
302.007
301.878
301.747