/*--------------------------------*- C++ -*----------------------------------*\
| =========                 |                                                 |
| \\      /  F ield         | OpenFOAM: The Open Source CFD Toolbox           |
|  \\    /   O peration     | Version:  2406                                  |
|   \\  /    A nd           | Website:  www.openfoam.com                      |
|    \\/     M anipulation  |                                                 |
\*---------------------------------------------------------------------------*/
FoamFile
{
    version     2.0;
    format      ascii;
    arch        "LSB;label=32;scalar=64";
    class       volVectorField;
    location    "100";
    object      flux;
}
// * * * * * * * * * * * * * * * * * * * * * * * * * * * * * * * * * * * * * //

dimensions      [0 1 -1 1 0 0 0];

internalField   nonuniform List<vector> 
20000
(
(-4.18141e-05 0.0892497 0)
(-0.00012257 0.0890825 0)
(-0.000197439 0.0887595 0)
(-0.000266689 0.0882928 0)
(-0.000330719 0.0876927 0)
(-0.000389783 0.0869699 0)
(-0.000443911 0.0861339 0)
(-0.000493101 0.0851946 0)
(-0.000538129 0.0841614 0)
(-0.00057918 0.083042 0)
(-0.000615945 0.081845 0)
(-0.000648792 0.0805785 0)
(-0.000678184 0.0792499 0)
(-0.000704276 0.0778659 0)
(-0.000727106 0.076433 0)
(-0.000746803 0.0749577 0)
(-0.000763586 0.073446 0)
(-0.00077768 0.0719035 0)
(-0.000789265 0.0703354 0)
(-0.000798482 0.0687466 0)
(-0.000805456 0.0671417 0)
(-0.000810318 0.065525 0)
(-0.000813204 0.0639006 0)
(-0.000814253 0.0622724 0)
(-0.0008136 0.0606438 0)
(-0.000811374 0.0590182 0)
(-0.000807696 0.0573985 0)
(-0.000802678 0.0557876 0)
(-0.000796427 0.054188 0)
(-0.000789044 0.0526021 0)
(-0.000780626 0.051032 0)
(-0.000771263 0.0494798 0)
(-0.000761045 0.0479472 0)
(-0.000750054 0.0464358 0)
(-0.000738371 0.0449471 0)
(-0.000726071 0.0434825 0)
(-0.000713226 0.042043 0)
(-0.000699904 0.0406298 0)
(-0.000686169 0.0392436 0)
(-0.00067208 0.0378853 0)
(-0.000657695 0.0365554 0)
(-0.000643067 0.0352546 0)
(-0.000628247 0.0339833 0)
(-0.000613281 0.0327418 0)
(-0.000598213 0.0315303 0)
(-0.000583084 0.0303491 0)
(-0.000567933 0.0291982 0)
(-0.000552794 0.0280775 0)
(-0.000537702 0.0269871 0)
(-0.000522686 0.0259268 0)
(-0.000507775 0.0248965 0)
(-0.000492995 0.0238959 0)
(-0.00047837 0.0229246 0)
(-0.000463923 0.0219825 0)
(-0.000449672 0.0210691 0)
(-0.000435637 0.0201839 0)
(-0.000421833 0.0193266 0)
(-0.000408277 0.0184967 0)
(-0.000394982 0.0176936 0)
(-0.000381959 0.0169169 0)
(-0.00036922 0.0161659 0)
(-0.000356774 0.0154401 0)
(-0.00034463 0.0147389 0)
(-0.000332794 0.0140616 0)
(-0.000321273 0.0134078 0)
(-0.000310073 0.0127766 0)
(-0.000299198 0.0121676 0)
(-0.000288651 0.0115799 0)
(-0.000278435 0.011013 0)
(-0.000268554 0.0104662 0)
(-0.000259008 0.00993888 0)
(-0.000249798 0.00943027 0)
(-0.000240926 0.00893975 0)
(-0.00023239 0.00846663 0)
(-0.000224192 0.00801024 0)
(-0.00021633 0.00756992 0)
(-0.000208803 0.00714498 0)
(-0.00020161 0.00673476 0)
(-0.00019475 0.00633859 0)
(-0.00018822 0.00595581 0)
(-0.00018202 0.00558575 0)
(-0.000176147 0.00522777 0)
(-0.0001706 0.00488121 0)
(-0.000165375 0.00454541 0)
(-0.000160472 0.00421975 0)
(-0.000155887 0.00390357 0)
(-0.000151619 0.00359624 0)
(-0.000147666 0.00329713 0)
(-0.000144025 0.00300561 0)
(-0.000140696 0.00272106 0)
(-0.000137675 0.00244286 0)
(-0.000134961 0.0021704 0)
(-0.000132553 0.00190305 0)
(-0.00013045 0.00164022 0)
(-0.000128649 0.00138128 0)
(-0.00012715 0.00112565 0)
(-0.000125953 0.000872714 0)
(-0.000125055 0.000621871 0)
(-0.000124457 0.000372525 0)
(-0.000124158 0.000124075 0)
(-0.000125407 0.0892277 0)
(-0.000367635 0.0890607 0)
(-0.000592279 0.0887378 0)
(-0.000800142 0.088271 0)
(-0.0009922 0.087671 0)
(-0.00116899 0.0869482 0)
(-0.00133136 0.0861128 0)
(-0.00147945 0.0851737 0)
(-0.00161446 0.0841404 0)
(-0.00173721 0.0830214 0)
(-0.00184752 0.0818249 0)
(-0.00194627 0.0805588 0)
(-0.0020345 0.0792304 0)
(-0.00211269 0.0778466 0)
(-0.00218109 0.076414 0)
(-0.00224017 0.0749392 0)
(-0.00229055 0.0734279 0)
(-0.00233286 0.0718858 0)
(-0.00236763 0.0703181 0)
(-0.00239526 0.0687297 0)
(-0.00241617 0.0671251 0)
(-0.00243075 0.0655088 0)
(-0.0024394 0.0638848 0)
(-0.00244255 0.062257 0)
(-0.00244059 0.0606289 0)
(-0.00243392 0.0590036 0)
(-0.00242289 0.0573844 0)
(-0.00240784 0.0557739 0)
(-0.00238909 0.0541747 0)
(-0.00236694 0.0525891 0)
(-0.00234169 0.0510194 0)
(-0.0023136 0.0494676 0)
(-0.00228295 0.0479353 0)
(-0.00224998 0.0464243 0)
(-0.00221493 0.044936 0)
(-0.00217804 0.0434718 0)
(-0.0021395 0.0420327 0)
(-0.00209954 0.0406197 0)
(-0.00205834 0.0392339 0)
(-0.00201607 0.0378759 0)
(-0.00197292 0.0365464 0)
(-0.00192904 0.0352459 0)
(-0.00188459 0.0339749 0)
(-0.00183969 0.0327337 0)
(-0.00179449 0.0315226 0)
(-0.00174911 0.0303416 0)
(-0.00170366 0.029191 0)
(-0.00165825 0.0280706 0)
(-0.00161297 0.0269805 0)
(-0.00156793 0.0259204 0)
(-0.0015232 0.0248904 0)
(-0.00147886 0.02389 0)
(-0.00143499 0.022919 0)
(-0.00139165 0.0219771 0)
(-0.0013489 0.0210639 0)
(-0.0013068 0.0201789 0)
(-0.0012654 0.0193219 0)
(-0.00122473 0.0184921 0)
(-0.00118485 0.0176893 0)
(-0.00114578 0.0169127 0)
(-0.00110757 0.0161619 0)
(-0.00107023 0.0154363 0)
(-0.0010338 0.0147352 0)
(-0.000998299 0.0140582 0)
(-0.00096374 0.0134045 0)
(-0.000930142 0.0127735 0)
(-0.000897519 0.0121646 0)
(-0.000865881 0.0115771 0)
(-0.000835238 0.0110103 0)
(-0.000805596 0.0104637 0)
(-0.00077696 0.00993642 0)
(-0.000749333 0.00942794 0)
(-0.000722718 0.00893754 0)
(-0.000697113 0.00846454 0)
(-0.00067252 0.00800827 0)
(-0.000648935 0.00756805 0)
(-0.000626356 0.00714321 0)
(-0.00060478 0.0067331 0)
(-0.000584201 0.00633702 0)
(-0.000564615 0.00595434 0)
(-0.000546016 0.00558437 0)
(-0.000528399 0.00522648 0)
(-0.000511757 0.00488 0)
(-0.000496085 0.00454429 0)
(-0.000481375 0.00421871 0)
(-0.000467622 0.0039026 0)
(-0.00045482 0.00359535 0)
(-0.000442961 0.00329631 0)
(-0.00043204 0.00300487 0)
(-0.000422052 0.00272039 0)
(-0.00041299 0.00244226 0)
(-0.000404851 0.00216986 0)
(-0.000397628 0.00190258 0)
(-0.000391317 0.00163981 0)
(-0.000385916 0.00138094 0)
(-0.00038142 0.00112537 0)
(-0.000377827 0.000872498 0)
(-0.000375134 0.000621718 0)
(-0.000373339 0.000372433 0)
(-0.000372442 0.000124045 0)
(-0.000208811 0.0891835 0)
(-0.000612456 0.0890166 0)
(-0.00098709 0.0886941 0)
(-0.0013335 0.0882275 0)
(-0.0016535 0.0876278 0)
(-0.00194795 0.0869054 0)
(-0.00221843 0.0860703 0)
(-0.00246548 0.0851317 0)
(-0.00269045 0.0840989 0)
(-0.00289471 0.0829804 0)
(-0.00307856 0.0817846 0)
(-0.00324333 0.0805191 0)
(-0.00339041 0.0791912 0)
(-0.0035206 0.0778081 0)
(-0.0036345 0.0763763 0)
(-0.00373294 0.0749022 0)
(-0.00381694 0.0733917 0)
(-0.00388749 0.0718504 0)
(-0.00394543 0.0702834 0)
(-0.00399148 0.0686957 0)
(-0.0040263 0.067092 0)
(-0.00405058 0.0654765 0)
(-0.00406499 0.0638533 0)
(-0.00407024 0.0622263 0)
(-0.00406698 0.0605989 0)
(-0.00405586 0.0589745 0)
(-0.00403748 0.0573561 0)
(-0.0040124 0.0557463 0)
(-0.00398116 0.0541479 0)
(-0.00394425 0.0525632 0)
(-0.00390217 0.0509943 0)
(-0.00385537 0.0494432 0)
(-0.00380429 0.0479117 0)
(-0.00374935 0.0464014 0)
(-0.00369095 0.0449139 0)
(-0.00362946 0.0434503 0)
(-0.00356525 0.0420119 0)
(-0.00349866 0.0405997 0)
(-0.00343 0.0392145 0)
(-0.00335957 0.0378572 0)
(-0.00328766 0.0365284 0)
(-0.00321454 0.0352285 0)
(-0.00314046 0.0339582 0)
(-0.00306565 0.0327176 0)
(-0.00299033 0.031507 0)
(-0.0029147 0.0303266 0)
(-0.00283896 0.0291765 0)
(-0.00276329 0.0280567 0)
(-0.00268785 0.0269671 0)
(-0.00261279 0.0259076 0)
(-0.00253825 0.0248781 0)
(-0.00246437 0.0238782 0)
(-0.00239126 0.0229077 0)
(-0.00231904 0.0219662 0)
(-0.0022478 0.0210535 0)
(-0.00217765 0.020169 0)
(-0.00210865 0.0193123 0)
(-0.00204088 0.018483 0)
(-0.00197442 0.0176805 0)
(-0.00190932 0.0169043 0)
(-0.00184564 0.0161539 0)
(-0.00178343 0.0154286 0)
(-0.00172272 0.014728 0)
(-0.00166356 0.0140512 0)
(-0.00160597 0.0133978 0)
(-0.00154998 0.0127672 0)
(-0.00149562 0.0121586 0)
(-0.0014429 0.0115713 0)
(-0.00139183 0.0110049 0)
(-0.00134244 0.0104585 0)
(-0.00129472 0.00993152 0)
(-0.00124868 0.00942329 0)
(-0.00120433 0.00893313 0)
(-0.00116166 0.00846036 0)
(-0.00112068 0.00800431 0)
(-0.00108138 0.00756431 0)
(-0.00104376 0.00713969 0)
(-0.0010078 0.00672977 0)
(-0.000973508 0.0063339 0)
(-0.00094087 0.0059514 0)
(-0.000909877 0.00558162 0)
(-0.00088052 0.0052239 0)
(-0.000852788 0.00487759 0)
(-0.000826672 0.00454205 0)
(-0.00080216 0.00421662 0)
(-0.000779242 0.00390068 0)
(-0.000757908 0.00359358 0)
(-0.000738147 0.00329469 0)
(-0.000719949 0.00300339 0)
(-0.000703304 0.00271905 0)
(-0.000688204 0.00244106 0)
(-0.00067464 0.00216879 0)
(-0.000662604 0.00190164 0)
(-0.000652089 0.001639 0)
(-0.000643088 0.00138026 0)
(-0.000635596 0.00112482 0)
(-0.000629608 0.000872068 0)
(-0.00062512 0.000621411 0)
(-0.00062213 0.000372249 0)
(-0.000620635 0.000123984 0)
(-0.000292251 0.0891174 0)
(-0.000856996 0.0889504 0)
(-0.00138141 0.0886284 0)
(-0.00186642 0.0881621 0)
(-0.00231434 0.087563 0)
(-0.00272657 0.0868411 0)
(-0.00310504 0.0860065 0)
(-0.00345084 0.0850686 0)
(-0.0037657 0.0840366 0)
(-0.00405149 0.082919 0)
(-0.0043089 0.081724 0)
(-0.00453963 0.0804594 0)
(-0.00474548 0.0791325 0)
(-0.00492761 0.0777504 0)
(-0.00508698 0.0763198 0)
(-0.00522477 0.0748468 0)
(-0.00534238 0.0733374 0)
(-0.00544117 0.0717972 0)
(-0.00552227 0.0702314 0)
(-0.00558671 0.0686448 0)
(-0.00563544 0.0670423 0)
(-0.0056694 0.065428 0)
(-0.00568957 0.063806 0)
(-0.00569691 0.0621802 0)
(-0.00569236 0.0605541 0)
(-0.0056768 0.0589309 0)
(-0.00565108 0.0573136 0)
(-0.00561598 0.0557051 0)
(-0.00557225 0.0541078 0)
(-0.00552059 0.0525243 0)
(-0.00546169 0.0509565 0)
(-0.00539618 0.0494066 0)
(-0.00532469 0.0478762 0)
(-0.00524779 0.0463671 0)
(-0.00516605 0.0448806 0)
(-0.00507999 0.0434181 0)
(-0.00499012 0.0419808 0)
(-0.00489691 0.0405696 0)
(-0.00480081 0.0391855 0)
(-0.00470224 0.0378292 0)
(-0.00460159 0.0365013 0)
(-0.00449925 0.0352025 0)
(-0.00439556 0.033933 0)
(-0.00429085 0.0326933 0)
(-0.00418542 0.0314837 0)
(-0.00407957 0.0303042 0)
(-0.00397357 0.0291549 0)
(-0.00386765 0.028036 0)
(-0.00376206 0.0269472 0)
(-0.003657 0.0258885 0)
(-0.00355267 0.0248596 0)
(-0.00344926 0.0238605 0)
(-0.00334694 0.0228907 0)
(-0.00324586 0.02195 0)
(-0.00314615 0.0210379 0)
(-0.00304795 0.020154 0)
(-0.00295138 0.019298 0)
(-0.00285653 0.0184693 0)
(-0.00276351 0.0176674 0)
(-0.00267239 0.0168918 0)
(-0.00258327 0.0161419 0)
(-0.00249619 0.0154172 0)
(-0.00241122 0.0147171 0)
(-0.00232841 0.0140408 0)
(-0.0022478 0.0133879 0)
(-0.00216944 0.0127577 0)
(-0.00209335 0.0121495 0)
(-0.00201956 0.0115628 0)
(-0.00194809 0.0109967 0)
(-0.00187895 0.0104507 0)
(-0.00181216 0.00992417 0)
(-0.00174772 0.00941631 0)
(-0.00168565 0.00892651 0)
(-0.00162593 0.0084541 0)
(-0.00156857 0.00799839 0)
(-0.00151356 0.00755871 0)
(-0.0014609 0.0071344 0)
(-0.00141057 0.00672479 0)
(-0.00136257 0.00632921 0)
(-0.00131689 0.00594699 0)
(-0.00127351 0.00557749 0)
(-0.00123242 0.00522003 0)
(-0.00119361 0.00487398 0)
(-0.00115705 0.00453869 0)
(-0.00112275 0.0042135 0)
(-0.00109067 0.00389779 0)
(-0.00106081 0.00359092 0)
(-0.00103315 0.00329225 0)
(-0.00100768 0.00300116 0)
(-0.000984383 0.00271704 0)
(-0.000963248 0.00243925 0)
(-0.000944263 0.00216719 0)
(-0.000927417 0.00190023 0)
(-0.000912699 0.00163779 0)
(-0.000900101 0.00137924 0)
(-0.000889614 0.00112398 0)
(-0.000881233 0.000871422 0)
(-0.000874952 0.000620951 0)
(-0.000870767 0.000371974 0)
(-0.000868675 0.000123892 0)
(-0.000375867 0.0890297 0)
(-0.00110154 0.0888625 0)
(-0.00177532 0.0885408 0)
(-0.00239886 0.088075 0)
(-0.0029746 0.0874764 0)
(-0.00350449 0.0867553 0)
(-0.00399087 0.0859215 0)
(-0.00443531 0.0849846 0)
(-0.00484002 0.0839536 0)
(-0.0052073 0.0828371 0)
(-0.00553819 0.0816433 0)
(-0.00583481 0.0803799 0)
(-0.00609937 0.0790544 0)
(-0.00633339 0.0776736 0)
(-0.00653818 0.0762444 0)
(-0.00671531 0.0747729 0)
(-0.00686652 0.073265 0)
(-0.00699352 0.0717263 0)
(-0.00709777 0.070162 0)
(-0.00718057 0.068577 0)
(-0.00724318 0.066976 0)
(-0.00728681 0.0653633 0)
(-0.00731273 0.063743 0)
(-0.00732217 0.0621188 0)
(-0.00731633 0.0604943 0)
(-0.00729634 0.0588727 0)
(-0.00726329 0.057257 0)
(-0.00721818 0.05565 0)
(-0.00716197 0.0540544 0)
(-0.00709558 0.0524724 0)
(-0.00701987 0.0509062 0)
(-0.00693567 0.0493578 0)
(-0.00684378 0.0478289 0)
(-0.00674494 0.0463213 0)
(-0.00663988 0.0448363 0)
(-0.00652927 0.0433752 0)
(-0.00641376 0.0419393 0)
(-0.00629396 0.0405296 0)
(-0.00617044 0.0391468 0)
(-0.00604375 0.0377918 0)
(-0.00591439 0.0364653 0)
(-0.00578285 0.0351677 0)
(-0.00564957 0.0338995 0)
(-0.00551499 0.032661 0)
(-0.00537949 0.0314526 0)
(-0.00524344 0.0302742 0)
(-0.00510719 0.0291261 0)
(-0.00497106 0.0280083 0)
(-0.00483534 0.0269206 0)
(-0.00470031 0.0258629 0)
(-0.00456622 0.0248351 0)
(-0.00443331 0.0238369 0)
(-0.00430179 0.0228681 0)
(-0.00417187 0.0219283 0)
(-0.00404372 0.0210171 0)
(-0.00391751 0.0201341 0)
(-0.00379338 0.019279 0)
(-0.00367147 0.0184511 0)
(-0.00355191 0.01765 0)
(-0.00343481 0.0168751 0)
(-0.00332025 0.016126 0)
(-0.00320833 0.015402 0)
(-0.00309912 0.0147025 0)
(-0.00299268 0.014027 0)
(-0.00288908 0.0133747 0)
(-0.00278836 0.0127451 0)
(-0.00269056 0.0121375 0)
(-0.00259572 0.0115514 0)
(-0.00250386 0.0109859 0)
(-0.002415 0.0104404 0)
(-0.00232915 0.00991436 0)
(-0.00224634 0.00940701 0)
(-0.00216655 0.0089177 0)
(-0.00208979 0.00844575 0)
(-0.00201607 0.00799049 0)
(-0.00194537 0.00755125 0)
(-0.00187768 0.00712735 0)
(-0.001813 0.00671815 0)
(-0.00175131 0.00632295 0)
(-0.00169259 0.00594112 0)
(-0.00163684 0.00557198 0)
(-0.00158402 0.00521488 0)
(-0.00153413 0.00486917 0)
(-0.00148715 0.0045342 0)
(-0.00144306 0.00420934 0)
(-0.00140183 0.00389394 0)
(-0.00136345 0.00358737 0)
(-0.0013279 0.003289 0)
(-0.00129516 0.0029982 0)
(-0.00126522 0.00271435 0)
(-0.00123805 0.00243684 0)
(-0.00121365 0.00216504 0)
(-0.001192 0.00189836 0)
(-0.00117308 0.00163617 0)
(-0.00115689 0.00137788 0)
(-0.00114341 0.00112287 0)
(-0.00113264 0.000870561 0)
(-0.00112457 0.000620338 0)
(-0.00111919 0.000371606 0)
(-0.0011165 0.000123769 0)
(-0.000459438 0.0889198 0)
(-0.00134597 0.0887529 0)
(-0.00216891 0.0884314 0)
(-0.00293073 0.0879662 0)
(-0.00363411 0.0873683 0)
(-0.00428151 0.0866481 0)
(-0.0048757 0.0858154 0)
(-0.00541869 0.0848796 0)
(-0.00591316 0.0838499 0)
(-0.00636184 0.0827348 0)
(-0.00676613 0.0815424 0)
(-0.00712855 0.0802806 0)
(-0.00745174 0.0789567 0)
(-0.0077376 0.0775777 0)
(-0.00798778 0.0761502 0)
(-0.0082042 0.0746805 0)
(-0.00838898 0.0731744 0)
(-0.00854415 0.0716376 0)
(-0.00867151 0.0700753 0)
(-0.00877266 0.0684923 0)
(-0.00884912 0.0668933 0)
(-0.00890243 0.0652826 0)
(-0.00893409 0.0636642 0)
(-0.00894563 0.0620421 0)
(-0.0089385 0.0604195 0)
(-0.00891408 0.0587999 0)
(-0.0088737 0.0571863 0)
(-0.00881859 0.0555813 0)
(-0.00874992 0.0539876 0)
(-0.00866881 0.0524075 0)
(-0.00857631 0.0508433 0)
(-0.00847344 0.0492968 0)
(-0.00836118 0.0477698 0)
(-0.00824043 0.046264 0)
(-0.00811207 0.0447809 0)
(-0.00797694 0.0433217 0)
(-0.00783582 0.0418875 0)
(-0.00768945 0.0404795 0)
(-0.00753855 0.0390984 0)
(-0.00738376 0.0377451 0)
(-0.00722572 0.0364202 0)
(-0.00706502 0.0351242 0)
(-0.0069022 0.0338576 0)
(-0.00673777 0.0326207 0)
(-0.00657223 0.0314137 0)
(-0.00640601 0.0302368 0)
(-0.00623955 0.0290902 0)
(-0.00607324 0.0279737 0)
(-0.00590743 0.0268873 0)
(-0.00574246 0.0258309 0)
(-0.00557864 0.0248044 0)
(-0.00541626 0.0238075 0)
(-0.00525559 0.0228398 0)
(-0.00509686 0.0219012 0)
(-0.00494029 0.0209911 0)
(-0.00478609 0.0201093 0)
(-0.00463444 0.0192551 0)
(-0.00448551 0.0184283 0)
(-0.00433944 0.0176282 0)
(-0.00419637 0.0168543 0)
(-0.00405641 0.0161061 0)
(-0.00391967 0.015383 0)
(-0.00378625 0.0146843 0)
(-0.00365622 0.0140096 0)
(-0.00352965 0.0133582 0)
(-0.0034066 0.0127294 0)
(-0.00328711 0.0121226 0)
(-0.00317124 0.0115371 0)
(-0.00305901 0.0109723 0)
(-0.00295045 0.0104275 0)
(-0.00284557 0.00990211 0)
(-0.00274439 0.00939539 0)
(-0.00264691 0.00890668 0)
(-0.00255314 0.00843531 0)
(-0.00246307 0.00798061 0)
(-0.00237669 0.00754192 0)
(-0.002294 0.00711855 0)
(-0.00221497 0.00670985 0)
(-0.0021396 0.00631514 0)
(-0.00206787 0.00593378 0)
(-0.00199975 0.00556509 0)
(-0.00193523 0.00520843 0)
(-0.00187428 0.00486315 0)
(-0.00181688 0.0045286 0)
(-0.00176301 0.00420414 0)
(-0.00171264 0.00388913 0)
(-0.00166575 0.00358294 0)
(-0.00162232 0.00328493 0)
(-0.00158232 0.00299449 0)
(-0.00154574 0.002711 0)
(-0.00151256 0.00243383 0)
(-0.00148274 0.00216237 0)
(-0.00145629 0.00189601 0)
(-0.00143318 0.00163415 0)
(-0.0014134 0.00137618 0)
(-0.00139693 0.00112149 0)
(-0.00138377 0.000869486 0)
(-0.00137391 0.000619571 0)
(-0.00136734 0.000371147 0)
(-0.00136405 0.000123616 0)
(-0.000542807 0.0887878 0)
(-0.00159002 0.0886213 0)
(-0.00256201 0.0883002 0)
(-0.00346188 0.0878357 0)
(-0.00429273 0.0872387 0)
(-0.00505746 0.0865195 0)
(-0.00575933 0.085688 0)
(-0.00640075 0.0847537 0)
(-0.00698486 0.0837255 0)
(-0.00751482 0.082612 0)
(-0.00799239 0.0814214 0)
(-0.00842052 0.0801615 0)
(-0.00880226 0.0788395 0)
(-0.00913989 0.0774626 0)
(-0.0094354 0.0760372 0)
(-0.00969107 0.0745697 0)
(-0.00990938 0.0730659 0)
(-0.0100927 0.0715313 0)
(-0.0102431 0.0699713 0)
(-0.0103626 0.0683906 0)
(-0.0104529 0.066794 0)
(-0.0105158 0.0651857 0)
(-0.0105532 0.0635698 0)
(-0.0105669 0.06195 0)
(-0.0105585 0.0603299 0)
(-0.0105296 0.0587127 0)
(-0.0104819 0.0571014 0)
(-0.0104168 0.0554988 0)
(-0.0103357 0.0539075 0)
(-0.0102399 0.0523298 0)
(-0.0101306 0.0507678 0)
(-0.0100091 0.0492236 0)
(-0.00987651 0.0476989 0)
(-0.00973388 0.0461954 0)
(-0.00958226 0.0447144 0)
(-0.00942263 0.0432574 0)
(-0.00925594 0.0418254 0)
(-0.00908305 0.0404194 0)
(-0.00890479 0.0390404 0)
(-0.00872196 0.0376891 0)
(-0.00853528 0.0363662 0)
(-0.00834545 0.0350721 0)
(-0.00815311 0.0338074 0)
(-0.00795889 0.0325723 0)
(-0.00776334 0.0313671 0)
(-0.00756701 0.030192 0)
(-0.00737038 0.029047 0)
(-0.00717392 0.0279321 0)
(-0.00697806 0.0268474 0)
(-0.00678319 0.0257926 0)
(-0.00658968 0.0247676 0)
(-0.00639787 0.0237721 0)
(-0.00620808 0.022806 0)
(-0.00602058 0.0218687 0)
(-0.00583564 0.02096 0)
(-0.0056535 0.0200794 0)
(-0.00547437 0.0192266 0)
(-0.00529844 0.0184009 0)
(-0.0051259 0.017602 0)
(-0.0049569 0.0168293 0)
(-0.00479157 0.0160822 0)
(-0.00463006 0.0153601 0)
(-0.00447245 0.0146626 0)
(-0.00431885 0.0139888 0)
(-0.00416934 0.0133384 0)
(-0.00402399 0.0127105 0)
(-0.00388285 0.0121046 0)
(-0.00374598 0.01152 0)
(-0.00361341 0.010956 0)
(-0.00348517 0.0104121 0)
(-0.00336129 0.00988742 0)
(-0.00324177 0.00938145 0)
(-0.00312663 0.00889346 0)
(-0.00301586 0.00842279 0)
(-0.00290946 0.00796877 0)
(-0.00280743 0.00753073 0)
(-0.00270975 0.00710799 0)
(-0.0026164 0.00669989 0)
(-0.00252737 0.00630577 0)
(-0.00244264 0.00592497 0)
(-0.00236218 0.00555683 0)
(-0.00228596 0.00520071 0)
(-0.00221397 0.00485594 0)
(-0.00214617 0.00452188 0)
(-0.00208253 0.0041979 0)
(-0.00202303 0.00388336 0)
(-0.00196764 0.00357762 0)
(-0.00191634 0.00328006 0)
(-0.0018691 0.00299005 0)
(-0.00182588 0.00270698 0)
(-0.00178668 0.00243022 0)
(-0.00175147 0.00215916 0)
(-0.00172022 0.0018932 0)
(-0.00169292 0.00163173 0)
(-0.00166955 0.00137413 0)
(-0.0016501 0.00111982 0)
(-0.00163456 0.000868196 0)
(-0.00162291 0.000618652 0)
(-0.00161514 0.000370596 0)
(-0.00161126 0.000123433 0)
(-0.000625975 0.0886339 0)
(-0.00183362 0.0884677 0)
(-0.00295448 0.0881472 0)
(-0.00399218 0.0876835 0)
(-0.00495029 0.0870876 0)
(-0.00583217 0.0863696 0)
(-0.00664154 0.0855396 0)
(-0.00738124 0.0846068 0)
(-0.00805483 0.0835804 0)
(-0.00866594 0.0824689 0)
(-0.00921667 0.0812803 0)
(-0.0097104 0.0800226 0)
(-0.0101506 0.078703 0)
(-0.0105399 0.0773284 0)
(-0.0108807 0.0759055 0)
(-0.0111756 0.0744405 0)
(-0.0114273 0.0729393 0)
(-0.0116387 0.0714074 0)
(-0.0118122 0.06985 0)
(-0.0119499 0.0682721 0)
(-0.0120541 0.0666783 0)
(-0.0121266 0.0650728 0)
(-0.0121698 0.0634596 0)
(-0.0121855 0.0618427 0)
(-0.0121758 0.0602254 0)
(-0.0121426 0.058611 0)
(-0.0120876 0.0570025 0)
(-0.0120125 0.0554027 0)
(-0.011919 0.0538141 0)
(-0.0118085 0.0522391 0)
(-0.0116825 0.0506799 0)
(-0.0115423 0.0491383 0)
(-0.0113894 0.0476163 0)
(-0.0112249 0.0461153 0)
(-0.0110501 0.044637 0)
(-0.010866 0.0431824 0)
(-0.0106738 0.0417529 0)
(-0.0104744 0.0403494 0)
(-0.0102688 0.0389728 0)
(-0.010058 0.0376238 0)
(-0.00984272 0.0363032 0)
(-0.00962381 0.0350113 0)
(-0.00940202 0.0337488 0)
(-0.00917804 0.0325159 0)
(-0.00895254 0.0313128 0)
(-0.00872613 0.0301397 0)
(-0.00849938 0.0289967 0)
(-0.00827283 0.0278837 0)
(-0.00804697 0.0268009 0)
(-0.00782225 0.0257479 0)
(-0.0075991 0.0247247 0)
(-0.00737791 0.023731 0)
(-0.00715904 0.0227664 0)
(-0.00694282 0.0218308 0)
(-0.00672955 0.0209237 0)
(-0.00651951 0.0200446 0)
(-0.00631294 0.0191933 0)
(-0.00611006 0.018369 0)
(-0.00591109 0.0175715 0)
(-0.0057162 0.0168001 0)
(-0.00552555 0.0160543 0)
(-0.00533929 0.0153335 0)
(-0.00515755 0.0146372 0)
(-0.00498042 0.0139646 0)
(-0.00480801 0.0133152 0)
(-0.00464039 0.0126885 0)
(-0.00447763 0.0120836 0)
(-0.0043198 0.0115 0)
(-0.00416692 0.010937 0)
(-0.00401904 0.010394 0)
(-0.00387618 0.00987029 0)
(-0.00373835 0.00936519 0)
(-0.00360557 0.00887805 0)
(-0.00347783 0.0084082 0)
(-0.00335514 0.00795496 0)
(-0.00323748 0.00751768 0)
(-0.00312483 0.00709567 0)
(-0.00301719 0.00668828 0)
(-0.00291452 0.00629485 0)
(-0.00281681 0.00591471 0)
(-0.00272402 0.00554721 0)
(-0.00263613 0.00519169 0)
(-0.00255311 0.00484752 0)
(-0.00247492 0.00451405 0)
(-0.00240153 0.00419063 0)
(-0.00233292 0.00387663 0)
(-0.00226905 0.00357142 0)
(-0.00220989 0.00327438 0)
(-0.00215541 0.00298487 0)
(-0.00210558 0.00270229 0)
(-0.00206037 0.00242601 0)
(-0.00201976 0.00215542 0)
(-0.00198373 0.00188992 0)
(-0.00195225 0.0016289 0)
(-0.0019253 0.00137175 0)
(-0.00190287 0.00111788 0)
(-0.00188494 0.000866692 0)
(-0.00187151 0.00061758 0)
(-0.00186255 0.000369954 0)
(-0.00185808 0.000123219 0)
(-0.000708968 0.0884581 0)
(-0.00207673 0.0882923 0)
(-0.00334621 0.0879724 0)
(-0.00452149 0.0875097 0)
(-0.00560663 0.0869149 0)
(-0.00660544 0.0861984 0)
(-0.00752212 0.08537 0)
(-0.00835991 0.0844391 0)
(-0.00912282 0.0834147 0)
(-0.00981492 0.0823054 0)
(-0.0104387 0.0811192 0)
(-0.0109979 0.0798639 0)
(-0.0114964 0.0785469 0)
(-0.0119374 0.0771751 0)
(-0.0123233 0.075755 0)
(-0.0126573 0.0742929 0)
(-0.0129425 0.0727947 0)
(-0.0131819 0.0712658 0)
(-0.0133784 0.0697116 0)
(-0.0135344 0.0681368 0)
(-0.0136523 0.0665461 0)
(-0.0137345 0.0649437 0)
(-0.0137833 0.0633338 0)
(-0.0138011 0.0617201 0)
(-0.0137902 0.060106 0)
(-0.0137525 0.0584948 0)
(-0.0136902 0.0568895 0)
(-0.0136052 0.0552928 0)
(-0.0134993 0.0537074 0)
(-0.0133741 0.0521356 0)
(-0.0132314 0.0505794 0)
(-0.0130727 0.0490409 0)
(-0.0128995 0.0475219 0)
(-0.0127132 0.0460239 0)
(-0.0125152 0.0445485 0)
(-0.0123067 0.0430968 0)
(-0.012089 0.0416701 0)
(-0.0118632 0.0402694 0)
(-0.0116304 0.0388955 0)
(-0.0113916 0.0375492 0)
(-0.0111477 0.0362312 0)
(-0.0108998 0.0349419 0)
(-0.0106486 0.0336819 0)
(-0.0103949 0.0324514 0)
(-0.0101395 0.0312507 0)
(-0.00988311 0.0300799 0)
(-0.00962629 0.0289392 0)
(-0.0093697 0.0278285 0)
(-0.00911389 0.0267477 0)
(-0.00885938 0.0256969 0)
(-0.00860664 0.0246757 0)
(-0.00835613 0.0236839 0)
(-0.00810824 0.0227213 0)
(-0.00786335 0.0217875 0)
(-0.00762181 0.0208822 0)
(-0.00738391 0.0200049 0)
(-0.00714995 0.0191552 0)
(-0.00692018 0.0183326 0)
(-0.00669483 0.0175367 0)
(-0.0064741 0.0167668 0)
(-0.00625817 0.0160225 0)
(-0.00604722 0.0153031 0)
(-0.00584137 0.0146081 0)
(-0.00564076 0.0139369 0)
(-0.00544549 0.0132889 0)
(-0.00525564 0.0126633 0)
(-0.00507131 0.0120596 0)
(-0.00489255 0.0114772 0)
(-0.0047194 0.0109153 0)
(-0.00455191 0.0103734 0)
(-0.00439011 0.00985072 0)
(-0.00423401 0.00934663 0)
(-0.00408362 0.00886045 0)
(-0.00393895 0.00839153 0)
(-0.00379999 0.00793919 0)
(-0.00366672 0.00750277 0)
(-0.00353914 0.0070816 0)
(-0.00341723 0.00667502 0)
(-0.00330095 0.00628237 0)
(-0.00319028 0.00590298 0)
(-0.00308519 0.00553621 0)
(-0.00298565 0.0051814 0)
(-0.00289162 0.00483791 0)
(-0.00280306 0.0045051 0)
(-0.00271995 0.00418232 0)
(-0.00264224 0.00386894 0)
(-0.0025699 0.00356434 0)
(-0.00250289 0.00326789 0)
(-0.00244119 0.00297895 0)
(-0.00238475 0.00269693 0)
(-0.00233355 0.0024212 0)
(-0.00228756 0.00215115 0)
(-0.00224674 0.00188617 0)
(-0.00221109 0.00162567 0)
(-0.00218057 0.00136903 0)
(-0.00215516 0.00111567 0)
(-0.00213486 0.000864973 0)
(-0.00211964 0.000616356 0)
(-0.00210951 0.000369221 0)
(-0.00210444 0.000122975 0)
(-0.000791785 0.0882606 0)
(-0.00231933 0.0880951 0)
(-0.0037371 0.087776 0)
(-0.00504969 0.0873143 0)
(-0.00626159 0.0867208 0)
(-0.00737709 0.0860059 0)
(-0.00840084 0.0851793 0)
(-0.00933651 0.0842505 0)
(-0.0101886 0.0832284 0)
(-0.0109615 0.0821216 0)
(-0.0116581 0.080938 0)
(-0.0122827 0.0796856 0)
(-0.0128395 0.0783715 0)
(-0.0133319 0.0770028 0)
(-0.0137629 0.0755858 0)
(-0.0141359 0.074127 0)
(-0.0144544 0.0726321 0)
(-0.0147218 0.0711067 0)
(-0.0149412 0.0695559 0)
(-0.0151154 0.0679846 0)
(-0.0152471 0.0663975 0)
(-0.0153389 0.0647987 0)
(-0.0153935 0.0631924 0)
(-0.0154134 0.0615823 0)
(-0.0154011 0.0599718 0)
(-0.0153591 0.0583642 0)
(-0.0152895 0.0567624 0)
(-0.0151946 0.0551694 0)
(-0.0150762 0.0535875 0)
(-0.0149365 0.0520191 0)
(-0.0147771 0.0504665 0)
(-0.0145999 0.0489314 0)
(-0.0144064 0.0474158 0)
(-0.0141984 0.0459211 0)
(-0.0139772 0.044449 0)
(-0.0137444 0.0430006 0)
(-0.0135012 0.0415771 0)
(-0.013249 0.0401795 0)
(-0.012989 0.0388086 0)
(-0.0127223 0.0374654 0)
(-0.01245 0.0361503 0)
(-0.0121731 0.0348639 0)
(-0.0118926 0.0336067 0)
(-0.0116093 0.0323789 0)
(-0.011324 0.0311809 0)
(-0.0110376 0.0300127 0)
(-0.0107508 0.0288745 0)
(-0.0104643 0.0277663 0)
(-0.0101786 0.026688 0)
(-0.00989432 0.0256395 0)
(-0.00961206 0.0246206 0)
(-0.00933228 0.023631 0)
(-0.00905544 0.0226706 0)
(-0.00878194 0.0217389 0)
(-0.00851218 0.0208356 0)
(-0.00824649 0.0199602 0)
(-0.0079852 0.0191124 0)
(-0.00772859 0.0182917 0)
(-0.00747691 0.0174975 0)
(-0.00723039 0.0167294 0)
(-0.00698924 0.0159867 0)
(-0.00675364 0.015269 0)
(-0.00652375 0.0145755 0)
(-0.0062997 0.0139058 0)
(-0.00608162 0.0132592 0)
(-0.0058696 0.012635 0)
(-0.00566374 0.0120327 0)
(-0.00546409 0.0114516 0)
(-0.00527072 0.010891 0)
(-0.00508366 0.0103502 0)
(-0.00490295 0.00982872 0)
(-0.00472862 0.00932576 0)
(-0.00456066 0.00884067 0)
(-0.00439909 0.00837279 0)
(-0.0042439 0.00792147 0)
(-0.00409507 0.00748602 0)
(-0.00395258 0.00706579 0)
(-0.00381642 0.00666012 0)
(-0.00368656 0.00626834 0)
(-0.00356297 0.0058898 0)
(-0.0034456 0.00552385 0)
(-0.00333443 0.00516983 0)
(-0.00322941 0.00482711 0)
(-0.00313051 0.00449504 0)
(-0.00303769 0.00417298 0)
(-0.0029509 0.00386031 0)
(-0.00287011 0.00355638 0)
(-0.00279528 0.00326059 0)
(-0.00272636 0.0029723 0)
(-0.00266333 0.00269091 0)
(-0.00260615 0.00241579 0)
(-0.00255478 0.00214634 0)
(-0.00250921 0.00188196 0)
(-0.00246939 0.00162204 0)
(-0.0024353 0.00136598 0)
(-0.00240693 0.00111318 0)
(-0.00238425 0.000863042 0)
(-0.00236726 0.00061498 0)
(-0.00235594 0.000368397 0)
(-0.00235028 0.0001227 0)
(-0.00087441 0.0880413 0)
(-0.00256135 0.0878762 0)
(-0.00412708 0.0875579 0)
(-0.00557664 0.0870973 0)
(-0.00691501 0.0865053 0)
(-0.00814692 0.0857922 0)
(-0.00927749 0.0849677 0)
(-0.0103108 0.0840412 0)
(-0.0112518 0.0830216 0)
(-0.0121053 0.0819175 0)
(-0.0128747 0.0807369 0)
(-0.0135644 0.0794876 0)
(-0.0141793 0.0781768 0)
(-0.0147231 0.0768114 0)
(-0.0151991 0.075398 0)
(-0.015611 0.0739428 0)
(-0.0159628 0.0724516 0)
(-0.0162581 0.07093 0)
(-0.0165004 0.069383 0)
(-0.0166928 0.0678157 0)
(-0.0168382 0.0662325 0)
(-0.0169395 0.0646377 0)
(-0.0169998 0.0630354 0)
(-0.0170218 0.0614292 0)
(-0.0170083 0.0598227 0)
(-0.0169618 0.0582191 0)
(-0.016885 0.0566214 0)
(-0.0167802 0.0550323 0)
(-0.0166495 0.0534543 0)
(-0.0164952 0.0518899 0)
(-0.0163191 0.0503411 0)
(-0.0161234 0.0488098 0)
(-0.0159098 0.0472979 0)
(-0.01568 0.045807 0)
(-0.0154358 0.0443385 0)
(-0.0151786 0.0428937 0)
(-0.0149101 0.0414737 0)
(-0.0146316 0.0400796 0)
(-0.0143444 0.0387122 0)
(-0.0140499 0.0373723 0)
(-0.0137492 0.0360604 0)
(-0.0134434 0.0347773 0)
(-0.0131336 0.0335232 0)
(-0.0128207 0.0322985 0)
(-0.0125057 0.0311034 0)
(-0.0121894 0.0299382 0)
(-0.0118727 0.0288028 0)
(-0.0115562 0.0276973 0)
(-0.0112407 0.0266217 0)
(-0.0109268 0.0255758 0)
(-0.0106151 0.0245594 0)
(-0.0103061 0.0235723 0)
(-0.0100004 0.0226142 0)
(-0.00969836 0.0216848 0)
(-0.00940045 0.0207838 0)
(-0.00910704 0.0199106 0)
(-0.00881848 0.0190649 0)
(-0.00853509 0.0182462 0)
(-0.00825715 0.017454 0)
(-0.00798491 0.0166878 0)
(-0.00771859 0.015947 0)
(-0.00745841 0.015231 0)
(-0.00720452 0.0145393 0)
(-0.0069571 0.0138712 0)
(-0.00671626 0.0132262 0)
(-0.00648211 0.0126036 0)
(-0.00625476 0.0120028 0)
(-0.00603428 0.0114231 0)
(-0.00582073 0.0108639 0)
(-0.00561416 0.0103245 0)
(-0.00541459 0.0098043 0)
(-0.00522206 0.00930258 0)
(-0.00503658 0.0088187 0)
(-0.00485815 0.00835199 0)
(-0.00468676 0.00790178 0)
(-0.0045224 0.00746742 0)
(-0.00436505 0.00704823 0)
(-0.00421468 0.00664357 0)
(-0.00407127 0.00625276 0)
(-0.00393477 0.00587516 0)
(-0.00380516 0.00551012 0)
(-0.00368238 0.00515699 0)
(-0.00356641 0.00481512 0)
(-0.00345719 0.00448387 0)
(-0.00335468 0.00416261 0)
(-0.00325884 0.00385071 0)
(-0.00316962 0.00354755 0)
(-0.00308697 0.00325249 0)
(-0.00301087 0.00296492 0)
(-0.00294126 0.00268422 0)
(-0.00287811 0.00240979 0)
(-0.00282138 0.00214101 0)
(-0.00277105 0.00187728 0)
(-0.00272707 0.00161801 0)
(-0.00268943 0.00136258 0)
(-0.0026581 0.00111041 0)
(-0.00263306 0.000860898 0)
(-0.00261429 0.000613452 0)
(-0.00260179 0.000367481 0)
(-0.00259553 0.000122395 0)
(-0.000956819 0.0878002 0)
(-0.00280275 0.0876357 0)
(-0.00451604 0.0873181 0)
(-0.00610222 0.0868588 0)
(-0.00756672 0.0862685 0)
(-0.00891474 0.0855573 0)
(-0.0101519 0.0847351 0)
(-0.0112826 0.0838111 0)
(-0.0123122 0.0827943 0)
(-0.0132462 0.0816932 0)
(-0.014088 0.0805159 0)
(-0.0148428 0.07927 0)
(-0.0155156 0.0779628 0)
(-0.0161106 0.0766011 0)