/*--------------------------------*- C++ -*----------------------------------*\
| =========                 |                                                 |
| \\      /  F ield         | OpenFOAM: The Open Source CFD Toolbox           |
|  \\    /   O peration     | Version:  2406                                  |
|   \\  /    A nd           | Website:  www.openfoam.com                      |
|    \\/     M anipulation  |                                                 |
\*---------------------------------------------------------------------------*/
FoamFile
{
    version     2.0;
    format      ascii;
    arch        "LSB;label=32;scalar=64";
    class       volScalarField;
    location    "100";
    object      gradTx;
}
// * * * * * * * * * * * * * * * * * * * * * * * * * * * * * * * * * * * * * //

dimensions      [0 -1 0 1 0 0 0];

internalField   nonuniform List<scalar> 
20000
(
-0.130255
-0.381818
-0.615044
-0.830764
-1.03022
-1.21421
-1.38283
-1.53606
-1.67632
-1.8042
-1.91873
-2.02105
-2.11261
-2.19389
-2.26501
-2.32637
-2.37865
-2.42255
-2.45864
-2.48735
-2.50908
-2.52422
-2.53321
-2.53648
-2.53444
-2.52751
-2.51605
-2.50042
-2.48095
-2.45795
-2.43173
-2.40256
-2.37073
-2.33649
-2.3001
-2.26178
-2.22177
-2.18027
-2.13748
-2.0936
-2.04879
-2.00322
-1.95705
-1.91043
-1.86349
-1.81636
-1.76917
-1.72201
-1.67499
-1.62822
-1.58177
-1.53573
-1.49017
-1.44516
-1.40077
-1.35705
-1.31405
-1.27182
-1.23041
-1.18984
-1.15016
-1.11139
-1.07356
-1.03669
-1.0008
-0.965908
-0.93203
-0.899176
-0.867354
-0.836572
-0.806835
-0.778146
-0.750507
-0.723919
-0.69838
-0.673888
-0.650441
-0.628035
-0.606664
-0.586325
-0.567011
-0.548717
-0.531435
-0.51516
-0.499885
-0.485603
-0.472308
-0.459994
-0.448653
-0.438281
-0.428871
-0.420418
-0.412917
-0.406364
-0.400755
-0.396086
-0.392355
-0.389558
-0.387695
-0.386764
-0.390654
-1.14522
-1.84501
-2.49252
-3.0908
-3.64151
-4.14732
-4.60862
-5.02922
-5.41159
-5.7552
-6.06283
-6.33768
-6.58124
-6.79432
-6.97836
-7.1353
-7.2671
-7.37539
-7.46149
-7.52662
-7.57203
-7.59898
-7.60878
-7.60269
-7.5819
-7.54754
-7.50065
-7.44224
-7.37325
-7.29458
-7.20709
-7.11161
-7.0089
-6.89973
-6.78479
-6.66476
-6.54027
-6.41192
-6.28027
-6.14585
-6.00916
-5.87067
-5.73082
-5.59002
-5.44865
-5.30706
-5.1656
-5.02457
-4.88425
-4.74492
-4.60681
-4.47015
-4.33514
-4.20197
-4.07082
-3.94183
-3.81516
-3.69092
-3.56923
-3.45019
-3.33389
-3.2204
-3.1098
-3.00215
-2.89748
-2.79586
-2.69731
-2.60185
-2.50951
-2.42031
-2.33425
-2.25134
-2.17158
-2.09497
-2.0215
-1.95116
-1.88395
-1.81984
-1.75883
-1.70089
-1.64601
-1.59417
-1.54535
-1.49953
-1.45669
-1.41681
-1.37987
-1.34585
-1.31473
-1.28651
-1.26115
-1.23865
-1.21899
-1.20217
-1.18816
-1.17697
-1.16858
-1.16299
-1.1602
-0.650468
-1.90786
-3.07488
-4.15398
-5.15082
-6.06807
-6.91063
-7.68023
-8.38102
-9.0173
-9.59003
-10.1033
-10.5615
-10.967
-11.3218
-11.6285
-11.8901
-12.1099
-12.2904
-12.4338
-12.5423
-12.6179
-12.6628
-12.6792
-12.669
-12.6344
-12.5772
-12.499
-12.4017
-12.2867
-12.1556
-12.0098
-11.8507
-11.6796
-11.4977
-11.3061
-11.1061
-10.8987
-10.6848
-10.4654
-10.2414
-10.0136
-9.78284
-9.5498
-9.31516
-9.07958
-8.84365
-8.60792
-8.37291
-8.13908
-7.9069
-7.67675
-7.44902
-7.22404
-7.00213
-6.78358
-6.56864
-6.35755
-6.15052
-5.94773
-5.74937
-5.55556
-5.36645
-5.18215
-5.00275
-4.82835
-4.659
-4.49477
-4.3357
-4.18183
-4.03318
-3.88977
-3.75161
-3.6187
-3.49104
-3.36861
-3.2514
-3.1394
-3.03257
-2.9309
-2.83436
-2.74291
-2.65652
-2.57516
-2.49881
-2.42742
-2.36096
-2.2994
-2.24271
-2.19086
-2.14382
-2.10157
-2.06408
-2.03132
-2.00328
-1.97994
-1.96129
-1.94731
-1.938
-1.93334
-0.910391
-2.66963
-4.30324
-5.81407
-7.20938
-8.49354
-9.67251
-10.7497
-11.7305
-12.6208
-13.4226
-14.1414
-14.7826
-15.35
-15.8464
-16.2757
-16.6421
-16.9498
-17.2024
-17.4032
-17.5549
-17.6607
-17.7236
-17.7464
-17.7323
-17.6838
-17.6037
-17.4943
-17.3581
-17.1972
-17.0137
-16.8096
-16.5869
-16.3474
-16.0928
-15.8247
-15.5447
-15.2544
-14.955
-14.6479
-14.3344
-14.0156
-13.6926
-13.3664
-13.038
-12.7083
-12.3781
-12.0481
-11.7192
-11.3919
-11.0669
-10.7448
-10.4261
-10.1112
-9.80057
-9.49467
-9.19383
-8.89838
-8.6086
-8.32477
-8.04713
-7.77587
-7.51118
-7.25322
-7.00213
-6.75802
-6.52099
-6.29112
-6.06848
-5.85312
-5.64506
-5.44434
-5.25096
-5.06493
-4.88625
-4.71489
-4.55084
-4.39407
-4.24455
-4.10225
-3.96712
-3.83912
-3.71821
-3.60434
-3.49747
-3.39754
-3.30453
-3.21837
-3.13902
-3.06645
-3.00061
-2.94147
-2.88899
-2.84315
-2.8039
-2.77124
-2.74513
-2.72556
-2.71253
-2.70601
-1.17086
-3.43139
-5.5303
-7.4727
-9.26616
-10.9168
-12.432
-13.8164
-15.0771
-16.2213
-17.252
-18.176
-19.0001
-19.7291
-20.3671
-20.9188
-21.3899
-21.7855
-22.1102
-22.3682
-22.5632
-22.6991
-22.7799
-22.8093
-22.7911
-22.7288
-22.6259
-22.4853
-22.3102
-22.1034
-21.8676
-21.6053
-21.319
-21.0112
-20.6839
-20.3393
-19.9795
-19.6063
-19.2215
-18.8269
-18.4239
-18.0141
-17.599
-17.1797
-16.7576
-16.3338
-15.9094
-15.4853
-15.0626
-14.6419
-14.2242
-13.8102
-13.4005
-12.9958
-12.5966
-12.2034
-11.8167
-11.437
-11.0646
-10.6998
-10.3429
-9.99425
-9.65405
-9.3225
-8.99977
-8.68602
-8.38137
-8.08593
-7.79977
-7.52296
-7.25554
-6.99756
-6.74901
-6.50991
-6.28025
-6.06
-5.84915
-5.64766
-5.45549
-5.27259
-5.0989
-4.93439
-4.77898
-4.63263
-4.49526
-4.36683
-4.24728
-4.13654
-4.03456
-3.94128
-3.85666
-3.78065
-3.7132
-3.65427
-3.60383
-3.56185
-3.52829
-3.50314
-3.48639
-3.47801
-1.4312
-4.19282
-6.75635
-9.12951
-11.3206
-13.3373
-15.1883
-16.8798
-18.4201
-19.8178
-21.0772
-22.2061
-23.2129
-24.1034
-24.8827
-25.5569
-26.1325
-26.6159
-27.0126
-27.3277
-27.5659
-27.7319
-27.8306
-27.8665
-27.8443
-27.7683
-27.6425
-27.4708
-27.2569
-27.0042
-26.7161
-26.3956
-26.0459
-25.6697
-25.2699
-24.8489
-24.4093
-23.9534
-23.4833
-23.0011
-22.5088
-22.0082
-21.501
-20.9888
-20.4731
-19.9554
-19.4368
-18.9187
-18.4022
-17.8883
-17.378
-16.8722
-16.3717
-15.8772
-15.3895
-14.9092
-14.4368
-13.9728
-13.5178
-13.0721
-12.6361
-12.2102
-11.7945
-11.3895
-10.9952
-10.6119
-10.2397
-9.87873
-9.52913
-9.19094
-8.86424
-8.54905
-8.2454
-7.95328
-7.6727
-7.40363
-7.14603
-6.89986
-6.66508
-6.44162
-6.22943
-6.02844
-5.83858
-5.65977
-5.49195
-5.33505
-5.18898
-5.05369
-4.9291
-4.81514
-4.71176
-4.61889
-4.53649
-4.46449
-4.40287
-4.35158
-4.31058
-4.27986
-4.25939
-4.24915
-1.6909
-4.95308
-7.98092
-10.7841
-13.3723
-15.7545
-17.9409
-19.939
-21.7585
-23.4094
-24.8971
-26.2307
-27.4199
-28.4716
-29.3922
-30.1886
-30.8687
-31.4397
-31.9083
-32.2805
-32.5618
-32.7579
-32.8744
-32.9168
-32.8906
-32.8008
-32.6523
-32.4495
-32.1968
-31.8983
-31.5579
-31.1794
-30.7663
-30.322
-29.8497
-29.3524
-28.8332
-28.2946
-27.7393
-27.1698
-26.5882
-25.9969
-25.3978
-24.7927
-24.1836
-23.572
-22.9595
-22.3475
-21.7373
-21.1303
-20.5275
-19.93
-19.3388
-18.7547
-18.1786
-17.6112
-17.0532
-16.5052
-15.9677
-15.4412
-14.9262
-14.4231
-13.9321
-13.4536
-12.9879
-12.5351
-12.0955
-11.6691
-11.2561
-10.8567
-10.4707
-10.0984
-9.73975
-9.3947
-9.06326
-8.74542
-8.44113
-8.15035
-7.87302
-7.60907
-7.35842
-7.121
-6.89673
-6.68552
-6.48728
-6.30194
-6.12941
-5.96959
-5.82242
-5.68781
-5.56569
-5.456
-5.35866
-5.27362
-5.20082
-5.14023
-5.09181
-5.05552
-5.03133
-5.01925
-1.94997
-5.7119
-9.2035
-12.436
-15.4206
-18.1678
-20.6891
-22.9933
-25.0916
-26.9953
-28.7109
-30.2489
-31.6201
-32.8329
-33.8944
-34.813
-35.5973
-36.2558
-36.7962
-37.2253
-37.5496
-37.7757
-37.9101
-37.9591
-37.9288
-37.8253
-37.654
-37.4201
-37.1288
-36.7846
-36.3921
-35.9555
-35.4792
-34.9668
-34.4221
-33.8487
-33.2499
-32.6288
-31.9885
-31.3317
-30.6611
-29.9791
-29.2882
-28.5905
-27.8881
-27.1828
-26.4764
-25.7707
-25.0671
-24.3671
-23.6719
-22.9829
-22.3011
-21.6276
-20.9632
-20.3089
-19.6654
-19.0335
-18.4136
-17.8065
-17.2126
-16.6324
-16.0663
-15.5145
-14.9774
-14.4553
-13.9483
-13.4566
-12.9804
-12.5197
-12.0747
-11.6453
-11.2317
-10.8338
-10.4516
-10.0851
-9.73416
-9.39884
-9.07902
-8.77464
-8.48559
-8.21181
-7.95318
-7.70962
-7.48102
-7.26728
-7.06832
-6.88402
-6.71431
-6.55908
-6.41826
-6.29175
-6.1795
-6.08144
-5.99749
-5.92762
-5.87178
-5.82993
-5.80204
-5.7881
-2.20851
-6.46922
-10.4238
-14.0849
-17.4652
-20.5766
-23.4321
-26.0419
-28.4185
-30.5744
-32.5175
-34.2595
-35.8126
-37.1861
-38.3884
-39.4287
-40.3171
-41.0629
-41.6749
-42.1609
-42.5282
-42.7842
-42.9364
-42.9919
-42.9577
-42.8405
-42.6464
-42.3816
-42.0516
-41.6617
-41.2172
-40.7228
-40.1832
-39.6029
-38.986
-38.3366
-37.6584
-36.955
-36.2297
-35.4858
-34.7263
-33.954
-33.1715
-32.3812
-31.5857
-30.7869
-29.9869
-29.1875
-28.3907
-27.5978
-26.8105
-26.0302
-25.258
-24.4951
-23.7427
-23.0016
-22.2728
-21.557
-20.855
-20.1674
-19.4948
-18.8377
-18.1964
-17.5715
-16.9632
-16.3719
-15.7976
-15.2408
-14.7014
-14.1797
-13.6756
-13.1893
-12.7209
-12.2702
-11.8373
-11.4222
-11.0248
-10.645
-10.2828
-9.93804
-9.61067
-9.30059
-9.00767
-8.73181
-8.4729
-8.23083
-8.00549
-7.79676
-7.60454
-7.42873
-7.26923
-7.12596
-6.99883
-6.88776
-6.79268
-6.71355
-6.6503
-6.6029
-6.57132
-6.55553
-2.46649
-7.22493
-11.6414
-15.7303
-19.5055
-22.9804
-26.1695
-29.0841
-31.7383
-34.1461
-36.3161
-38.2617
-39.9962
-41.53
-42.8728
-44.0347
-45.0269
-45.86
-46.5434
-47.086
-47.4962
-47.7822
-47.9521
-48.0141
-47.976
-47.845
-47.6284
-47.3326
-46.964
-46.5286
-46.0321
-45.48
-44.8774
-44.2293
-43.5403
-42.815
-42.0576
-41.272
-40.462
-39.6313
-38.783
-37.9204
-37.0465
-36.164
-35.2755
-34.3833
-33.4899
-32.5972
-31.7072
-30.8218
-29.9425
-29.071
-28.2086
-27.3566
-26.5163
-25.6886
-24.8747
-24.0753
-23.2913
-22.5234
-21.7722
-21.0383
-20.3221
-19.6242
-18.9449
-18.2844
-17.6431
-17.0212
-16.4188
-15.8361
-15.2732
-14.7301
-14.2069
-13.7036
-13.2202
-12.7565
-12.3127
-11.8885
-11.484
-11.099
-10.7334
-10.3871
-10.0599
-9.75185
-9.4627
-9.19235
-8.94068
-8.70757
-8.49289
-8.29655
-8.11842
-7.95841
-7.81642
-7.69238
-7.5862
-7.49782
-7.42718
-7.37425
-7.33897
-7.32134
-2.72387
-7.97886
-12.8563
-17.3718
-21.5409
-25.3785
-28.9003
-32.1192
-35.0504
-37.7093
-40.1058
-42.2544
-44.1699
-45.8638
-47.3467
-48.6299
-49.7257
-50.6456
-51.4004
-51.9996
-52.4525
-52.7683
-52.956
-53.0245
-52.9824
-52.8378
-52.5985
-52.2719
-51.8649
-51.384
-50.8357
-50.226
-49.5605
-48.8447
-48.0839
-47.2829
-46.4464
-45.5788
-44.6844
-43.7669
-42.8301
-41.8776
-40.9124
-39.9378
-38.9566
-37.9713
-36.9847
-35.9988
-35.016
-34.0381
-33.0671
-32.1046
-31.1522
-30.2114
-29.2833
-28.3693
-27.4704
-26.5876
-25.7218
-24.8738
-24.0442
-23.2337
-22.4428
-21.672
-20.9218
-20.1924
-19.4842
-18.7974
-18.1321
-17.4886
-16.867
-16.2672
-15.6895
-15.1336
-14.5997
-14.0877
-13.5976
-13.1291
-12.6824
-12.2572
-11.8534
-11.471
-11.1097
-10.7695
-10.4502
-10.1516
-9.87367
-9.61623
-9.37915
-9.16232
-8.9656
-8.78889
-8.63209
-8.4951
-8.37784
-8.28024
-8.20223
-8.14377
-8.10482
-8.08535
-2.98059
-8.73084
-14.0679
-19.009
-23.5711
-27.7703
-31.624
-35.1463
-38.3537
-41.2631
-43.8856
-46.2368
-48.3327
-50.1862
-51.8089
-53.2131
-54.4122
-55.4188
-56.2447
-56.9003
-57.3959
-57.7415
-57.9469
-58.0218
-57.9757
-57.8175
-57.5557
-57.1983
-56.7529
-56.2268
-55.6268
-54.9596
-54.2314
-53.4482
-52.6156
-51.7391
-50.8238
-49.8745
-48.8957
-47.8917
-46.8667
-45.8243
-44.7682
-43.7018
-42.628
-41.55
-40.4703
-39.3915
-38.3161
-37.2461
-36.1835
-35.1303
-34.0882
-33.0586
-32.0432
-31.043
-30.0594
-29.0934
-28.146
-27.218
-26.3102
-25.4233
-24.5579
-23.7145
-22.8936
-22.0955
-21.3205
-20.569
-19.841
-19.1369
-18.4566
-17.8004
-17.1681
-16.5599
-15.9757
-15.4154
-14.8791
-14.3665
-13.8777
-13.4124
-12.9706
-12.5521
-12.1568
-11.7845
-11.435
-11.1083
-10.8042
-10.5225
-10.2631
-10.0258
-9.81057
-9.61721
-9.44563
-9.29573
-9.16742
-9.06062
-8.97526
-8.91129
-8.86866
-8.84736
-3.23657
-9.48067
-15.2761
-20.6415
-25.5954
-30.1553
-34.3399
-38.1647
-41.6476
-44.8068
-47.6545
-50.2077
-52.4837
-54.4963
-56.2583
-57.7831
-59.0852
-60.1783
-61.0751
-61.787
-62.3251
-62.7003
-62.9234
-63.0048
-62.9548
-62.783
-62.4987
-62.1106
-61.627
-61.0557
-60.4041
-59.6796
-58.8889
-58.0384
-57.1343
-56.1826
-55.1886
-54.1578
-53.0949
-52.0048
-50.8917
-49.7598
-48.613
-47.455
-46.289
-45.1184
-43.946
-42.7746
-41.6067
-40.4448
-39.291
-38.1474
-37.0157
-35.8978
-34.7951
-33.709
-32.641
-31.592
-30.5632
-29.5555
-28.5698
-27.6067
-26.667
-25.7512
-24.8597
-23.9931
-23.1515
-22.3355
-21.545
-20.7804
-20.0417
-19.3291
-18.6425
-17.9821
-17.3477
-16.7393
-16.1569
-15.6003
-15.0695
-14.5643
-14.0845
-13.6301
-13.2008
-12.7965
-12.4171
-12.0623
-11.7321
-11.4262
-11.1445
-10.8869
-10.6531
-10.4431
-10.2568
-10.0941
-9.95473
-9.83876
-9.74607
-9.6766
-9.63032
-9.60718
-3.49175
-10.2282
-16.4805
-22.269
-27.6134
-32.5328
-37.0474
-41.1737
-44.9312
-48.3395
-51.4117
-54.1663
-56.6216
-58.7929
-60.6938
-62.3389
-63.7437
-64.923
-65.8904
-66.6584
-67.239
-67.6438
-67.8844
-67.9722
-67.9183
-67.733
-67.4263
-67.0076
-66.4858
-65.8695
-65.1666
-64.3849
-63.5318
-62.6143
-61.639
-60.6122
-59.5399
-58.4277
-57.2811
-56.1049
-54.9041
-53.683
-52.4458
-51.1964
-49.9386
-48.6756
-47.4108
-46.147
-44.8871
-43.6336
-42.3888
-41.155
-39.9342
-38.7281
-37.5384
-36.3667
-35.2145
-34.0828
-32.9729
-31.8858
-30.8223
-29.7833
-28.7695
-27.7815
-26.8197
-25.8847
-24.9769
-24.0964
-23.2437
-22.4188
-21.6219
-20.853
-20.1124
-19.3998
-18.7154
-18.0591
-17.4308
-16.8303
-16.2576
-15.7126
-15.195
-14.7047
-14.2416
-13.8054
-13.3961
-13.0134
-12.6571
-12.3271
-12.0232
-11.7452
-11.493
-11.2665
-11.0655
-10.8899
-10.7396
-10.6145
-10.5145
-10.4395
-10.3896
-10.3646
-3.74607
-10.9731
-17.6809
-23.8909
-29.6246
-34.9023
-39.7457
-44.1725
-48.2038
-51.8602
-55.1563
-58.1114
-60.7457
-63.0751
-65.1144
-66.8793
-68.3864
-69.6516
-70.6895
-71.5134
-72.1362
-72.5705
-72.8286
-72.9229
-72.8651
-72.6663
-72.3373
-71.8881
-71.3283
-70.667
-69.9129
-69.0743
-68.1591
-67.1747
-66.1284
-65.0268
-63.8764
-62.6832
-61.4531
-60.1913
-58.903
-57.5929
-56.2656
-54.9253
-53.5758
-52.2208
-50.8639
-49.5081
-48.1564
-46.8116
-45.4762
-44.1525
-42.8427
-41.5488
-40.2725
-39.0155
-37.7793
-36.5652
-35.3745
-34.2081
-33.0672
-31.9526
-30.8649
-29.8049
-28.7731
-27.77
-26.796
-25.8515
-24.9366
-24.0516
-23.1967
-22.3719
-21.5772
-20.8128
-20.0786
-19.3744
-18.7003
-18.0561
-17.4417
-16.857
-16.3017
-15.7757
-15.2789
-14.811
-14.3718
-13.9612
-13.579
-13.2249
-12.8989
-12.6007
-12.3301
-12.0871
-11.8715
-11.6831
-11.5218
-11.3876
-11.2803
-11.1999
-11.1463
-11.1195
-3.99946
-11.7154
-18.8768
-25.507
-31.6285
-37.2632
-42.4341
-47.1605
-51.4644
-55.3682
-58.8872
-62.0423
-64.8547
-67.3416
-69.5188
-71.4032
-73.0123
-74.3631
-75.4711
-76.3508
-77.0157
-77.4793
-77.7549
-77.8556
-77.7938
-77.5816
-77.2304
-76.7508
-76.1531
-75.4471
-74.6421
-73.7467
-72.7696
-71.7186
-70.6015
-69.4254
-68.1971
-66.9233
-65.6099
-64.2628
-62.8873
-61.4887
-60.0716
-58.6406
-57.1998
-55.7532
-54.3045
-52.8569
-51.4138
-49.9781
-48.5523
-47.1391
-45.7407
-44.3592
-42.9966
-41.6546
-40.3348
-39.0386
-37.7673
-36.5221
-35.304
-34.1139
-32.9527
-31.821
-30.7194
-29.6485
-28.6086
-27.6001
-26.6234
-25.6785
-24.7658
-23.8851
-23.0368
-22.2206
-21.4367
-20.685
-19.9652
-19.2775
-18.6215
-17.9972
-17.4044
-16.8428
-16.3124
-15.8128
-15.3439
-14.9056
-14.4975
-14.1195
-13.7714
-13.453
-13.1642
-12.9047
-12.6745
-12.4733
-12.3012
-12.1579
-12.0433
-11.9575
-11.9003
-11.8717
-4.25187
-12.4547
-20.0682
-27.1167
-33.6246
-39.6149
-45.1122
-50.1368
-54.7124
-58.8624
-62.6036
-65.9578
-68.9477
-71.5915
-73.9062
-75.9095
-77.6201
-79.0562
-80.2341
-81.1693
-81.8761
-82.369
-82.662
-82.7691
-82.7034
-82.4778
-82.1044
-81.5946
-80.9592
-80.2086
-79.3527
-78.4009
-77.3621
-76.2448
-75.0572
-73.8068
-72.5011
-71.1468
-69.7506
-68.3184
-66.8562
-65.3692
-63.8627
-62.3414
-60.8097
-59.2718
-57.7316
-56.1928
-54.6586
-53.1322
-51.6165
-50.1141
-48.6274
-47.1588
-45.7101
-44.2834
-42.8803
-41.5023
-40.1508
-38.827
-37.532
-36.2669
-35.0324
-33.8292
-32.6581
-31.5196
-30.4141
-29.342
-28.3036
-27.2991
-26.3287
-25.3925
-24.4906
-23.623
-22.7896
-21.9904
-21.2253
-20.4941
-19.7967
-19.133
-18.5028
-17.9058
-17.3418
-16.8108
-16.3123
-15.8463
-15.4124
-15.0106
-14.6405
-14.302
-13.995
-13.7191
-13.4744
-13.2605
-13.0775
-12.9251
-12.8034
-12.7121
-12.6513
-12.6209
-4.50323
-13.191
-21.2545
-28.7198
-35.6123
-41.9568
-47.779
-53.1008
-57.9469
-62.3422
-66.3045
-69.8571
-73.0237
-75.8238
-78.2753
-80.397
-82.2088
-83.7297
-84.9773
-85.9677
-86.7164
-87.2384
-87.5488
-87.6621
-87.5926
-87.3537
-86.9582
-86.4182
-85.7453
-84.9504
-84.0439
-83.0358
-81.9355
-80.7522
-79.4943
-78.1701
-76.7871
-75.3528
-73.874
-72.3572
-70.8085
-69.2337
-67.6381
-66.0268
-64.4046
-62.7758
-61.1445
-59.5147
-57.8898
-56.2732
-54.6679
-53.0767
-51.5021
-49.9466
-48.4124
-46.9013
-45.4153
-43.9558
-42.5244
-41.1223
-39.7508
-38.4109
-37.1034
-35.8291
-34.5888
-33.3829
-32.2121
-31.0766
-29.9768
-28.9129
-27.8852
-26.8937
-25.9384
-25.0195
-24.1368
-23.2904
-22.48
-21.7056
-20.9671
-20.2641
-19.5966
-18.9643
-18.367
-17.8046
-17.2766
-16.783
-16.3236
-15.8979
-15.506
-15.1475
-14.8223
-14.5302
-14.2709
-14.0445
-13.8506
-13.6892
-13.5603
-13.4636
-13.3992
-13.367
-4.75347
-13.924
-22.4357
-30.3157
-37.5913
-44.2884
-50.4342
-56.0516
-61.167
-65.8066
-69.9891
-73.7391
-77.0817
-80.0374
-82.625
-84.8647
-86.7772
-88.3827
-89.6996
-90.745
-91.5352
-92.0862
-92.4139
-92.5335
-92.4602
-92.208
-91.7905
-91.2206
-90.5102
-89.6711
-88.7142
-87.6501
-86.4887
-85.2396
-83.9119
-82.514
-81.0543
-79.5402
-77.9793
-76.3782
-74.7434
-73.081
-71.3968
-69.696
-67.9836
-66.2643
-64.5424
-62.822
-61.1068
-59.4003
-57.7058
-56.0262
-54.3641
-52.7222
-51.1027
-49.5077
-47.939
-46.3984
-44.8875
-43.4075
-41.9598
-40.5454
-39.1652
-37.8202
-36.5109
-35.2381
-34.0021
-32.8035
-31.6426
-30.5197
-29.4348
-28.3882
-27.3799
-26.4099
-25.4781
-24.5847
-23.7293
-22.9118
-22.1322
-21.3902
-20.6856
-20.0182
-19.3877
-18.794
-18.2367
-17.7157
-17.2307
-16.7814
-16.3677
-15.9893
-15.646
-15.3376
-15.064
-14.8249
-14.6203
-14.45
-14.3138
-14.2118
-14.1438
-14.1098
-5.00255
-14.6536
-23.6112
-31.9042
-39.5611
-46.609
-53.0768
-58.9886
-64.3721
-69.2547
-73.6564
-77.6029
-81.1206
-84.2312
-86.9544
-89.3115
-91.3242
-93.0138
-94.3997
-95.4999
-96.3315
-96.9114
-97.2562
-97.3821
-97.305
-97.0396
-96.6002
-96.0004
-95.2528
-94.3697
-93.3627
-92.2428
-91.0206
-89.7061
-88.3087
-86.8376
-85.3014
-83.708
-82.0652
-80.3802
-78.6598
-76.9104
-75.1379
-73.3479
-71.5458
-69.7364
-67.9243
-66.1137
-64.3087
-62.5128
-60.7295
-58.9618
-57.2127
-55.4848
-53.7804
-52.1018
-50.4509
-48.8296
-47.2395
-45.682
-44.1584
-42.6699
-41.2174
-39.8019
-38.424
-37.0845
-35.7838
-34.5224
-33.3007
-32.1188
-30.9771
-29.8757
-28.8145
-27.7937
-26.8132
-25.8728
-24.9726
-24.1124
-23.2919
-22.511
-21.7695
-21.0671
-20.4036
-19.7787
-19.1923
-18.644
-18.1335
-17.6607
-17.2253
-16.8271
-16.4658
-16.1413
-15.8533
-15.6017
-15.3864
-15.2071
-15.0638
-14.9565
-14.8849
-14.8492
-5.25039
-15.3796
-24.781
-33.4849
-41.521
-48.9181
-55.7064
-61.9111
-67.5613
-72.6858
-77.3055
-81.4476
-85.1396
-88.4042
-91.2624
-93.7362
-95.8487
-97.622
-99.0765
-100.231
-101.104
-101.713
-102.074
-102.207
-102.126
-101.847
-101.386
-100.757
-99.9719
-99.0451
-97.9882
-96.8128
-95.53
-94.1503
-92.6838
-91.1398
-89.5274
-87.8551
-86.131
-84.3625
-82.5568
-80.7207
-78.8604
-76.9818
-75.0904
-73.1913
-71.2894
-69.3892
-67.4947
-65.6099
-63.7382
-61.883
-60.0472
-58.2336
-56.4448
-54.683
-52.9504
-51.2488
-49.5799
-47.9452
-46.3461
-44.7839
-43.2594
-41.7738
-40.3276
-38.9217
-37.5566
-36.2327
-34.9505
-33.7101
-32.5118
-31.3558
-30.2421
-29.1707
-28.1416
-27.1547
-26.2098
-25.307
-24.4458
-23.6263
-22.848
-22.1108
-21.4144
-20.7586
-20.1431
-19.5676
-19.0319
-18.5357
-18.0787
-17.6607
-17.2816
-16.941
-16.6387
-16.3747
-16.1486
-15.9605
-15.8102
-15.6975
-15.6224
-15.5849
-5.49693
-16.1018
-25.9447
-35.0572
-43.4707
-51.2152
-58.3222
-64.8183
-70.7338
-76.0989
-80.9356
-85.2722
-89.1375
-92.5554
-95.5478
-98.1378
-100.349
-102.206
-103.729
-104.938
-105.852
-106.489
-106.868
-107.006
-106.921
-106.63
-106.147
-105.488
-104.666
-103.696
-102.589
-101.359
-100.016
-98.5714
-97.036
-95.4195
-93.7314
-91.9806
-90.1755
-88.3239
-86.4335
-84.5111
-82.5635
-80.5966
-78.6164
-76.6282
-74.637
-72.6475
-70.6641
-68.6907
-66.7312
-64.7888
-62.8668
-60.9681
-59.0953
-57.2508
-55.4368
-53.6553
-51.908
-50.1966
-48.5224
-46.8868
-45.2908
-43.7353
-42.2213
-40.7494
-39.3202
-37.9341
-36.5916
-35.293
-34.0385
-32.8282
-31.6621
-30.5404
-29.463
-28.4298
-27.4406
-26.4953
-25.5938
-24.7357
-23.9209
-23.1491
-22.42
-21.7334
-21.089
-20.4865
-19.9256
-19.4061
-18.9276
-18.4901
-18.0931
-17.7365
-17.42
-17.1436
-16.9069
-16.71
-16.5526
-16.4346
-16.356
-16.3167
-5.74212
-16.82
-27.1019
-36.6209
-45.4097
-53.4997
-60.9236
-67.7095
-73.8889
-79.4932
-84.5456
-89.0758
-93.1135
-96.6838
-99.8096
-102.515
-104.826
-106.765
-108.356
-109.618
-110.573
-111.239
-111.634
-111.779
-111.69
-111.386
-110.882
-110.193
-109.335
-108.321
-107.165
-105.88
-104.477
-102.968
-101.364
-99.6756
-97.9122
-96.0833
-94.1977
-92.2636
-90.2888
-88.2807
-86.2462
-84.1916
-82.123
-80.0461
-77.9661
-75.8879
-73.816
-71.7547
-69.7077
-67.6787
-65.671
-63.6876
-61.7312
-59.8044
-57.9095
-56.0485
-54.2233
-52.4356
-50.6867
-48.9782
-47.3109
-45.6861
-44.1046
-42.567
-41.074
-39.6261
-38.2238
-36.8673
-35.5568
-34.2925
-33.0744
-31.9027
-30.7772
-29.6979
-28.6646
-27.6771
-26.7354
-25.839
-24.9879
-24.1816
-23.42
-22.7028
-22.0297
-21.4003
-20.8144
-20.2717
-19.7719
-19.3148
-18.9001
-18.5276
-18.197
-17.9083
-17.6611
-17.4553
-17.2909
-17.1676
-17.0855
-17.0445
-5.98589
-17.5341
-28.2525
-38.1756
-47.3375
-55.7709
-63.51
-70.584
-77.0257
-82.8679
-88.1349
-92.8573
-97.0664
-100.788
-104.047
-106.867
-109.276
-111.297
-112.956
-114.272
-115.267
-115.961
-116.374
-116.524
-116.432
-116.115
-115.589
-114.871
-113.977
-112.92
-111.715
-110.375
-108.912
-107.339
-105.667
-103.907
-102.069
-100.162
-98.1967
-96.1805
-94.1219
-92.0285
-89.9076
-87.7658
-85.6094
-83.4444
-81.2761
-79.1096
-76.9498
-74.8009
-72.667
-70.5519
-68.4589
-66.3913
-64.3519
-62.3433
-60.368
-58.428
-56.5253
-54.6616
-52.8386
-51.0574
-49.3194
-47.6256
-45.9769
-44.3741
-42.8177
-41.3084
-39.8465
-38.4324
-37.0663
-35.7483
-34.4785
-33.2571
-32.0838
-30.9586
-29.8815
-28.8521
-27.8704
-26.936
-26.0487
-25.2082
-24.4143
-23.6666
-22.9649
-22.3088
-21.698
-21.1323
-20.6113
-20.1348
-19.7025
-19.3141
-18.9696
-18.6685
-18.4108
-18.1964
-18.0249
-17.8965
-17.8109
-17.7681
-6.22819
-18.2438
-29.3961
-39.7209
-49.2536
-58.0284
-66.0807
-73.441
-80.1435
-86.2222
-91.7023
-96.616
-100.995
-104.868
-108.258
-111.193
-113.699
-115.802
-117.528
-118.898
-119.933
-120.655
-121.084
-121.241
-121.145
-120.815
-120.268
-119.521
-118.59
-117.491
-116.237
-114.843
-113.321
-111.684
-109.945
-108.113
-106.2
-104.217
-102.171
-100.074
-97.9317
-95.7536
-93.5468
-91.3183
-89.0747
-86.822
-84.5659
-82.3118
-80.0645
-77.8286
-75.6084
-73.4076
-71.23
-69.0787
-66.9567
-64.8668
-62.8115
-60.793
-58.8133
-56.8742
-54.9773
-53.1241
-51.3158
-49.5534
-47.838
-46.1702
-44.5509
-42.9805
-41.4594
-39.988
-38.5666
-37.1953
-35.8741
-34.6032
-33.3825
-32.2118
-31.091
-30.02
-28.9985
-28.0263
-27.1031
-26.2286
-25.4025
-24.6246
-23.8944
-23.2118
-22.5763
-21.9876
-21.4456
-20.9498
-20.5
-20.0959
-19.7374
-19.4242
-19.1561
-18.9329
-18.7545
-18.6209
-18.5318
-18.4873
-6.46894
-18.9491
-30.5324
-41.2563
-51.1576
-60.2715
-68.6351
-76.28
-83.2416
-89.5552
-95.2472
-100.351
-104.9
-108.922
-112.443
-115.491
-118.094
-120.279
-122.071
-123.494
-124.569
-125.319
-125.765
-125.928
-125.828
-125.485
-124.917
-124.141
-123.174
-122.032
-120.73
-119.282
-117.702
-116.002
-114.195
-112.292
-110.306
-108.245
-106.121
-103.942
-101.717
-99.4551
-97.163
-94.8484
-92.518
-90.1782
-87.8349
-85.4936
-83.1595
-80.8372
-78.5311
-76.2453
-73.9834
-71.749
-69.545
-67.3743
-65.2396
-63.143
-61.0868
-59.0727
-57.1025
-55.1777
-53.2994
-51.469
-49.6872
-47.955
-46.2731
-44.6419
-43.0621
-41.5338
-40.0574
-38.6331
-37.2609
-35.9408
-34.6729
-33.4569
-32.2929
-31.1804
-30.1194
-29.1097
-28.1508
-27.2425
-26.3845
-25.5765
-24.8181
-24.1091
-23.449
-22.8376
-22.2746
-21.7596
-21.2924
-20.8728
-20.5004
-20.175
-19.8966
-19.6648
-19.4795
-19.3407
-19.2482
-19.2019
-6.7081
-19.6496
-31.6612
-42.7816
-53.0489
-62.4998
-71.1726
-79.1001
-86.3191
-92.8661
-98.7685
-104.061
-108.778
-112.949
-116.6
-119.761
-122.46
-124.726
-126.584
-128.059
-129.174
-129.952
-130.414
-130.583
-130.48
-130.124
-129.535
-128.731
-127.728
-126.544
-125.194
-123.692
-122.053
-120.29
-118.417
-116.444
-114.384
-112.247
-110.044
-107.785
-105.478
-103.132
-100.755
-98.355
-95.9384
-93.5121
-91.0822
-88.6544
-86.2339
-83.8258
-81.4344
-79.0641
-76.7187
-74.4016
-72.1161
-69.8652
-67.6515
-65.4775
-63.3452
-61.2567
-59.2137
-57.2176
-55.27
-53.3718
-51.5242
-49.7279
-47.9838
-46.2924
-44.6541
-43.0693
-41.5384
-40.0614
-38.6385
-37.2696
-35.9548
-34.6939
-33.4867
-32.3332
-31.233
-30.1859
-29.1915
-28.2497
-27.3599
-26.5221
-25.7357
-25.0004
-24.3159
-23.6819
-23.0981
-22.5641
-22.0796
-21.6445
-21.2583
-20.9209
-20.6322
-20.3918
-20.1997
-20.0557
-19.9598
-19.9118
-6.94561
-20.3453
-32.7822
-44.2963
-54.9272
-64.7127
-73.6926
-81.9007
-89.3753
-96.1541
-102.266
-107.745
-112.629
-116.948
-120.729
-124.001
-126.796
-129.142
-131.066
-132.593
-133.748
-134.553
-135.032
-135.207
-135.1
-134.731
-134.121
-133.289
-132.251
-131.024
-129.626
-128.071
-126.374
-124.549
-122.609
-120.567
-118.434
-116.221
-113.941
-111.601
-109.212
-106.783
-104.322
-101.837
-99.3352
-96.823
-94.3071
-91.7933
-89.2871
-86.7937
-84.3177
-81.8635
-79.4349
-77.0358
-74.6695
-72.3388
-70.0468
-67.7957
-65.588
-63.4255
-61.3102
-59.2435
-57.2268
-55.2615
-53.3484
-51.4886
-49.6827
-47.9314
-46.2351
-44.5943
-43.0091
-41.4798
-40.0065
-38.5892
-37.2278
-35.9222
-34.6724
-33.478
-32.3388
-31.2546
-30.2251
-29.2499
-28.3287
-27.4611
-26.6468
-25.8855
-25.1769
-24.5204
-23.9159
-23.363
-22.8614
-22.4108
-22.011
-21.6617
-21.3627
-21.1138
-20.9149
-20.7658
-20.6665
-20.6168
-7.1814
-21.036
-33.8951
-45.8001
-56.7918
-66.9096
-76.1943
-84.6811
-92.4094
-99.4184
-105.737
-111.403
-116.453
-120.918
-124.827
-128.211
-131.1
-133.526
-135.515
-137.095
-138.288
-139.121
-139.616
-139.797
-139.686
-139.305
-138.675
-137.813
-136.74
-135.473
-134.027
-132.419
-130.665
-128.778
-126.772
-124.66
-122.454
-120.167
-117.809
-115.39
-112.92
-110.409
-107.864
-105.295
-102.707
-100.11
-97.5086
-94.9095
-92.3183
-89.7402
-87.1801
-84.6426
-82.1316
-79.6511
-77.2044
-74.7946
-72.4248
-70.0973
-67.8146
-65.5787
-63.3915
-61.2547
-59.1696
-57.1375
-55.1595
-53.2366
-51.3694
-49.5586
-47.8047
-46.1082
-44.4692
-42.888
-41.3646
-39.8992
-38.4916
-37.1417
-35.8494
-34.6145
-33.4367
-32.3157
-31.2512
-30.2428
-29.2904
-28.3934
-27.5515
-26.7643
-26.0316
-25.3528
-24.7278
-24.1561
-23.6375
-23.1716
-22.7582
-22.397
-22.0879
-21.8306
-21.6249
-21.4708
-21.3681
-21.3167
-7.41542
-21.7215
-34.9997
-47.2926
-58.6425
-69.09
-78.6772
-87.4406
-95.4208
-102.658
-109.183
-115.033
-120.248
-124.858
-128.895
-132.389
-135.373
-137.877
-139.931
-141.562
-142.795
-143.654
-144.166
-144.352
-144.238
-143.845
-143.194
-142.304
-141.196
-139.887
-138.394
-136.734
-134.923
-132.974
-130.903
-128.722
-126.445
-124.083
-121.648
-119.15
-116.6
-114.006
-111.379
-108.726
-106.054
-103.372
-100.686
-98.0023
-95.3266
-92.6646
-90.0211
-87.4008
-84.8081
-82.2467
-79.7202
-77.232
-74.7849
-72.3816
-70.0245
-67.7157
-65.4573
-63.2508
-61.0978
-58.9995
-56.957
-54.9714
-53.0433
-51.1735
-49.3625
-47.6107
-45.9183
-44.2856
-42.7126
-41.1994
-39.7459
-38.3521
-37.0177
-35.7425
-34.5263
-33.3687
-32.2695
-31.2284
-30.2449
-29.3186
-28.4493
-27.6365
-26.8799
-26.179
-25.5336
-24.9433
-24.4078
-23.9267
-23.4998
-23.1269
-22.8077
-22.542
-22.3296
-22.1704
-22.0644
-22.0114
-7.64761
-22.4017
-36.0956
-48.7734
-60.4787
-71.2533
-81.1408
-90.1786
-98.4086
-105.872
-112.602
-118.635
-124.013
-128.768
-132.931
-136.534
-139.611
-142.194
-144.313
-145.995
-147.266
-148.152
-148.68
-148.872
-148.754
-148.349
-147.677
-146.76
-145.617
-144.267
-142.728
-141.016
-139.147
-137.138
-135.001
-132.753
-130.404
-127.968
-125.457
-122.881
-120.251
-117.576
-114.867
-112.13
-109.375
-106.609
-103.839
-101.071
-98.3115
-95.5661
-92.8398
-90.1375
-87.4636
-84.822
-82.2164
-79.6502
-77.1265
-74.648
-72.2171
-69.8361
-67.5069
-65.2313
-63.0108
-60.8468
-58.7404
-56.6926
-54.7042
-52.7759
-50.9082
-49.1015
-47.3561
-45.6722
-44.05
-42.4894
-40.9905
-39.553
-38.1768
-36.8617
-35.6074
-34.4136
-33.28
-32.2062
-31.1919
-30.2366
-29.3401
-28.5018
-27.7215
-26.9987
-26.3331
-25.7243
-25.172
-24.6759
-24.2357
-23.851
-23.5218
-23.2478
-23.0288
-22.8646
-22.7553
-22.7006
-7.87792
-23.0763
-37.1826
-50.2422
-62.3
-73.3991
-83.5843
-92.8943
-101.372
-109.061
-115.993
-122.208
-127.747
-132.645
-136.934
-140.646
-143.816
-146.477
-148.659
-150.391
-151.701
-152.614
-153.157
-153.356
-153.234
-152.816
-152.124
-151.18
-150.003
-148.612
-147.026
-145.262
-143.338
-141.268
-139.067
-136.75
-134.331
-131.822
-129.235
-126.581
-123.872
-121.117
-118.326
-115.507
-112.669
-109.82
-106.966
-104.115
-101.272
-98.444
-95.6356
-92.852
-90.0975
-87.3763
-84.6923
-82.0489
-79.4491
-76.8959
-74.3918
-71.9391
-69.5398
-67.1957
-64.9084
-62.6792
-60.5094
-58.3999
-56.3516
-54.3652
-52.4412
-50.5801
-48.7822
-47.0476
-45.3766
-43.769
-42.2249
-40.7441
-39.3264
-37.9717
-36.6797
-35.4499
-34.2822
-33.1761
-32.1312
-31.1472
-30.2237
-29.3602
-28.5563
-27.8118
-27.1261
-26.499
-25.9301
-25.419
-24.9655
-24.5693
-24.2302
-23.9479
-23.7223
-23.5532
-23.4406
-23.3842
-8.10628
-23.7452
-38.2604
-51.6986
-64.1059
-75.5267
-86.0071
-95.587
-104.311
-112.222
-119.355
-125.75
-131.45
-136.491
-140.903
-144.723
-147.985
-150.723
-152.968
-154.751
-156.098
-157.038
-157.597
-157.801
-157.676
-157.246
-156.534
-155.562
-154.351
-152.92
-151.288
-149.473
-147.493
-145.362
-143.098
-140.714
-138.225
-135.643
-132.981
-130.251
-127.463
-124.628
-121.756
-118.855
-115.935
-113.003
-110.067
-107.133
-104.208
-101.298
-98.4079
-95.5435
-92.7092
-89.9091
-87.1473
-84.4272
-81.7522
-79.125
-76.5483
-74.0245
-71.5556
-69.1435
-66.7899
-64.4961
-62.2634
-60.0928
-57.9851