/*--------------------------------*- C++ -*----------------------------------*\
| =========                 |                                                 |
| \\      /  F ield         | OpenFOAM: The Open Source CFD Toolbox           |
|  \\    /   O peration     | Version:  2406                                  |
|   \\  /    A nd           | Website:  www.openfoam.com                      |
|    \\/     M anipulation  |                                                 |
\*---------------------------------------------------------------------------*/
FoamFile
{
    version     2.0;
    format      ascii;
    arch        "LSB;label=32;scalar=64";
    class       volScalarField;
    location    "140";
    object      gradTy;
}
// * * * * * * * * * * * * * * * * * * * * * * * * * * * * * * * * * * * * * //

dimensions      [0 -1 0 1 0 0 0];

internalField   nonuniform List<scalar> 
20000
(
-100.906
-86.687
-73.17
-60.3389
-48.1754
-36.6619
-25.78
-15.5121
-5.83975
3.25641
11.7939
19.7911
27.2669
34.2399
40.7278
46.7485
52.3199
57.4597
62.1854
66.5139
70.4621
74.0462
77.2824
80.1866
82.7741
85.0601
87.0593
88.786
90.2541
91.4772
92.4683
93.2402
93.8052
94.1751
94.3616
94.3757
94.2281
93.9292
93.4888
92.9166
92.2216
91.4127
90.4982
89.4862
88.3843
87.1999
85.94
84.6112
83.2198
81.7718
80.2729
78.7284
77.1435
75.5229
73.871
72.1923
70.4905
68.7695
67.0327
65.2833
63.5243
61.7585
59.9885
58.2165
56.4449
54.6755
52.9101
51.1504
49.3977
47.6534
45.9186
44.1942
42.4811
40.7801
39.0916
37.4161
35.754
34.1056
32.4709
30.8499
29.2427
27.649
26.0687
24.5014
22.9468
21.4043
19.8736
18.354
16.8449
15.3457
13.8556
12.3739
10.8999
9.43257
7.97121
6.51492
5.0628
3.61395
2.16743
0.72232
-100.881
-86.6659
-73.1522
-60.324
-48.1633
-36.6527
-25.7739
-15.5082
-5.83802
3.25552
11.7908
19.7862
27.2604
34.2315
40.7177
46.7369
52.307
57.4456
62.1701
66.4976
70.4447
74.0279
77.2633
80.1667
82.7536
85.0391
87.0378
88.7641
90.2319
91.4546
92.4455
93.2172
93.782
94.1519
94.3383
94.3524
94.2049
93.906
93.4658
92.8937
92.1989
91.3901
90.4759
89.4641
88.3625
87.1784
85.9188
84.5903
83.1993
81.7516
80.2531
78.709
77.1244
75.5042
73.8528
72.1745
70.4731
68.7525
67.0161
65.2671
63.5086
61.7432
59.9737
58.2022
56.431
54.662
52.8971
51.1378
49.3855
47.6417
45.9072
44.1833
42.4706
40.77
39.0819
37.4069
35.7452
34.0972
32.4629
30.8423
29.2355
27.6422
26.0623
24.4954
22.9411
21.399
19.8687
18.3495
16.8408
15.3419
13.8522
12.3709
10.8972
9.43024
7.96924
6.51331
5.06155
3.61305
2.16689
0.722142
-100.831
-86.623
-73.1163
-60.2944
-48.1397
-36.6346
-25.7611
-15.5006
-5.83514
3.25384
11.7849
19.7765
27.247
34.2147
40.6976
46.7138
52.2811
57.4172
62.1395
66.4648
70.4099
73.9914
77.2252
80.1272
82.7128
84.9971
86.9948
88.7203
90.1873
91.4095
92.3999
93.1712
93.7357
94.1054
94.2918
94.3058
94.1584
93.8597
93.4196
92.8478
92.1534
91.345
90.4312
89.4199
88.3189
87.1354
85.8764
84.5486
83.1582
81.7113
80.2135
78.6702
77.0864
75.467
73.8164
72.1388
70.4383
68.7186
66.983
65.2349
63.4773
61.7128
59.9441
58.1735
56.4031
54.635
52.871
51.1125
49.3612
47.6181
45.8846
44.1615
42.4497
40.7499
39.0626
37.3884
35.7276
34.0803
32.4468
30.8271
29.221
27.6286
26.0494
24.4833
22.9298
21.3885
19.8589
18.3404
16.8324
15.3343
13.8454
12.3648
10.8918
9.42558
7.96531
6.5101
5.05905
3.61127
2.16583
0.721785
-100.756
-86.5583
-73.0621
-60.2497
-48.1042
-36.6075
-25.7419
-15.4892
-5.8309
3.25143
11.7762
19.7619
27.2268
34.1893
40.6674
46.6792
52.2424
57.3748
62.0935
66.4156
70.3578
73.9366
77.168
80.0678
82.6515
84.9342
86.9304
88.6546
90.1206
91.3418
92.3315
93.1022
93.6663
94.0357
94.2219
94.236
94.0886
93.7902
93.3505
92.7791
92.0851
91.2774
90.3642
89.3537
88.2535
87.0709
85.8128
84.486
83.0966
81.6508
80.1541
78.6119
77.0293
75.4111
73.7617
72.0854
70.3862
68.6677
66.9334
65.1866
63.4302
61.6671
59.8997
58.1304
56.3614
54.5946
52.8318
51.0747
49.3246
47.5829
45.8506
44.1288
42.4182
40.7197
39.0337
37.3607
35.7011
34.0551
32.4228
30.8043
29.1994
27.6081
26.0301
24.4651
22.9128
21.3726
19.8442
18.3268
16.82
15.323
13.8351
12.3556
10.8837
9.4186
7.95941
6.50528
5.05531
3.6086
2.16422
0.721251
-100.657
-86.4728
-72.9898
-60.1901
-48.0566
-36.5713
-25.7165
-15.4739
-5.82514
3.24826
11.7646
19.7424
27.1999
34.1555
40.6272
46.6331
52.1908
57.3181
62.0322
66.35
70.2883
73.8635
77.0917
79.9887
82.5699
84.8503
86.8446
88.567
90.0315
91.2516
92.2403
93.0102
93.5738
93.9429
94.1289
94.1429
93.9957
93.6975
93.2582
92.6874
91.9942
91.1872
90.275
89.2655
88.1663
86.9849
85.7281
84.4025
83.0145
81.5701
80.0749
78.5342
76.9532
75.3366
73.6888
72.0142
70.3167
68.5999
66.8673
65.1222
63.3676
61.6062
59.8405
58.073
56.3057
54.5407
52.7796
51.0242
49.2759
47.5359
45.8053
44.0852
42.3763
40.6795
38.9951
37.3238
35.6659
34.0215
32.3908
30.7738
29.1706
27.5808
26.0044
24.441
22.8902
21.3515
19.8246
18.3087
16.8034
15.3078
13.8214
12.3434
10.873
9.4093
7.95155
6.49885
5.05031
3.60503
2.16208
0.720538
-100.533
-86.3662
-72.8996
-60.1157
-47.9972
-36.5262
-25.6848
-15.4548
-5.81792
3.24427
11.7501
19.718
27.1663
34.1133
40.577
46.5755
52.1264
57.2473
61.9555
66.268
70.2014
73.7722
76.9965
79.8899
82.4678
84.7454
86.7373
88.4576
89.9203
91.1389
92.1263
92.8953
93.4582
93.8268
94.0126
94.0266
93.8796
93.5818
93.143
92.5729
91.8805
91.0746
90.1634
89.1552
88.0574
86.8774
85.6221
84.2982
82.912
81.4693
79.976
78.4372
76.8581
75.2435
73.5978
71.9252
70.2298
68.5151
66.7847
65.0418
63.2893
61.53
59.7666
58.0012
56.2361
54.4733
52.7144
50.9612
49.215
47.4771
45.7487
44.0307
42.324
40.6292
38.947
37.2777
35.6218
33.9794
32.3508
30.7358
29.1345
27.5468
25.9723
24.4108
22.8619
21.3251
19.8001
18.2861
16.7826
15.2889
13.8044
12.3282
10.8595
9.39768
7.94173
6.49082
5.04408
3.60058
2.15941
0.719648
-100.384
-86.2381
-72.7915
-60.0265
-47.926
-36.472
-25.6467
-15.4318
-5.80927
3.23946
11.7327
19.6887
27.126
34.0626
40.5168
46.5064
52.0491
57.1624
61.8636
66.1697
70.0973
73.6628
76.8822
79.7713
82.3455
84.6197
86.6086
88.3264
89.7869
91.0036
91.9896
92.7575
93.3195
93.6876
93.8731
93.8871
93.7403
93.4429
93.0048
92.4355
91.7442
90.9394
90.0297
89.0229
87.9267
86.7485
85.4951
84.1732
82.789
81.3485
79.8573
78.3208
76.7441
75.1319
73.4886
71.8185
70.1256
68.4135
66.6856
64.9453
63.1954
61.4387
59.6779
57.9151
56.1527
54.3924
52.6362
50.8856
49.142
47.4067
45.6808
43.9654
42.2612
40.5689
38.8892
37.2224
35.5689
33.929
32.3028
30.6902
29.0913
27.5059
25.9337
24.3746
22.828
21.2935
19.7707
18.259
16.7577
15.2662
13.7839
12.3099
10.8434
9.38373
7.92994
6.48119
5.03659
3.59524
2.15621
0.71858
-100.21
-86.0887
-72.6654
-59.9225
-47.8429
-36.4088
-25.6022
-15.4051
-5.79919
3.23384
11.7123
19.6546
27.079
34.0036
40.4466
46.4258
51.9589
57.0633
61.7564
66.055
69.9758
73.5351
76.749
79.6331
82.2028
84.4731
86.4585
88.1733
89.6313
90.846
91.8302
92.5968
93.1578
93.5252
93.7104
93.7244
93.5779
93.281
92.8437
92.2754
91.5852
90.7819
89.8737
88.8686
87.7744
86.5982
85.347
84.0273
82.6455
81.2075
79.7189
78.1851
76.6111
75.0017
73.3613
71.6941
70.0041
68.2949
66.5701
64.8327
63.0859
61.3323
59.5745
57.8148
56.0554
54.2982
52.545
50.7974
49.0568
47.3246
45.6017
43.8892
42.188
40.4986
38.8218
37.1579
35.5073
33.8702
32.2468
30.637
29.0409
27.4582
25.8888
24.3323
22.7884
21.2566
19.7364
18.2273
16.7287
15.2398
13.76
12.2885
10.8246
9.36747
7.9162
6.46996
5.02786
3.58901
2.15247
0.717335
-100.011
-85.918
-72.5213
-59.8038
-47.7481
-36.3366
-25.5515
-15.3745
-5.78771
3.22742
11.6891
19.6156
27.0253
33.9362
40.3664
46.3338
51.8559
56.9502
61.634
65.924
69.8371
73.3893
76.5968
79.4752
82.0398
84.3056
86.2871
87.9985
89.4537
90.6659
91.6482
92.4132
92.9732
93.3398
93.5247
93.5386
93.3923
93.0961
92.6596
92.0925
91.4036
90.6019
89.6955
88.6925
87.6004
86.4265
85.1778
83.8607
82.4817
81.0465
79.5609
78.0301
76.4592
74.853
73.2158
71.5519
69.8653
68.1595
66.4381
64.7042
62.9608
61.2107
59.4564
57.7002
55.9443
54.1905
52.4408
50.6967
48.9596
47.2307
45.5113
43.8022
42.1043
40.4183
38.7448
37.0842
35.4369
33.8031
32.1829
30.5763
28.9833
27.4038
25.8375
24.2841
22.7432
21.2145
19.6973
18.1912
16.6955
15.2096
13.7327
12.2642
10.8032
9.3489
7.90051
6.45713
5.0179
3.58189
2.1482
0.715913
-99.7876
-85.7262
-72.3594
-59.6702
-47.6414
-36.2554
-25.4944
-15.3402
-5.77479
3.2202
11.663
19.5718
26.9649
33.8604
40.2763
46.2303
51.7401
56.823
61.4963
65.7768
69.6811
73.2254
76.4258
79.2977
81.8566
84.1174
86.0944
87.802
89.2539
90.4634
91.4435
92.2069
92.7655
93.1314
93.3158
93.3297
93.1838
92.8882
92.4527
91.8868
91.1995
90.3996
89.4952
88.4944
87.4048
86.2335
84.9875
83.6735
82.2975
80.8655
79.3832
77.8559
76.2885
74.6858
73.0523
71.3922
69.7093
68.0073
66.2897
64.5597
62.8202
61.074
59.3236
57.5713
55.8193
54.0695
52.3237
50.5835
48.8502
47.1253
45.4097
43.7044
42.0103
40.3281
38.6583
37.0014
35.3578
33.7276
32.111
30.508
28.9186
27.3426
25.7798
24.2298
22.6924
21.1671
19.6533
18.1506
16.6582
15.1756
13.7021
12.2368
10.7791
9.32802
7.88286
6.44271
5.00669
3.57389
2.14341
0.714314
-99.5397
-85.5132
-72.1795
-59.5219
-47.523
-36.1654
-25.431
-15.3021
-5.76045
3.21219
11.634
19.5232
26.8979
33.7763
40.1762
46.1154
51.6115
56.6818
61.3435
65.6134
69.5079
73.0435
76.2359
79.1007
81.6532
83.9083
85.8805
87.5839
89.0321
90.2386
91.2163
91.9777
92.535
92.9
93.0839
93.0978
92.9522
92.6574
92.223
91.6585
90.9729
90.1749
89.2728
88.2745
87.1876
86.0192
84.7764
83.4655
82.093
80.6646
79.186
77.6624
76.0989
74.5002
72.8708
71.2148
69.536
67.8383
66.125
64.3993
62.6641
60.9222
59.1762
57.4283
55.6806
53.9352
52.1937
50.4578
48.7289
47.0082
45.2968
43.5958
41.9059
40.2279
38.5622
36.9095
35.2699
33.6438
32.0312
30.4322
28.8467
27.2746
25.7157
24.1696
22.636
21.1145
19.6045
18.1055
16.6168
15.1379
13.668
12.2064
10.7523
9.30484
7.86328
6.42671
4.99425
3.56501
2.13808
0.712539
-99.2671
-85.279
-71.9819
-59.359
-47.3929
-36.0663
-25.3614
-15.2602
-5.74468
3.2034
11.6022
19.4697
26.8243
33.6838
40.0662
45.9892
51.4702
56.5266
61.1755
65.4337
69.3176
72.8435
76.0271
78.8841
81.4297
83.6786
85.6454
87.3441
88.7884
89.9916
90.9666
91.7259
92.2817
92.6457
92.8291
92.8429
92.6978
92.4037
91.9705
91.4075
90.7238
89.928
89.0284
88.0328
86.9489
85.7837
84.5443
83.237
81.8682
80.4437
78.9692
77.4498
75.8906
74.2963
72.6713
71.0198
69.3457
67.6526
65.944
64.223
62.4926
60.7555
59.0142
57.271
55.5282
53.7875
52.0508
50.3196
48.5954
46.8795
45.1728
43.4764
41.7912
40.1177
38.4567
36.8084
35.1734
33.5517
31.9435
30.3489
28.7678
27.2
25.6453
24.1035
22.5741
21.0567
19.5508
18.0559
16.5713
15.0965
13.6306
12.173
10.7228
9.27937
7.84175
6.40911
4.98058
3.55525
2.13223
0.710588
-98.9701
-85.0239
-71.7665
-59.1814
-47.2511
-35.9584
-25.2856
-15.2146
-5.72749
3.19382
11.5674
19.4115
26.744
33.5831
39.9464
45.8516
51.3162
56.3575
60.9925
65.2379
69.1102
72.6255
75.7997
78.6481
81.1861
83.4283
85.3891
87.0827
88.5227
89.7223
90.6944
91.4515
92.0056
92.3685
92.5513
92.5652
92.4204
92.1272
91.6953
91.134
90.4524
89.659
88.762
87.7694
86.6887
85.5271
84.2913
82.988
81.6233
80.203
78.7329
77.2181
75.6635
74.074
72.4538
70.8073
69.1382
67.4502
65.7467
64.0308
62.3056
60.5737
58.8376
57.0997
55.362
53.6266
51.8951
50.1691
48.45
46.7392
45.0376
43.3464
41.6661
39.9977
38.3416
36.6983
35.0681
33.4513
31.8479
30.2581
28.6817
27.1186
25.5686
24.0313
22.5065
20.9937
19.4923
18.0019
16.5218
15.0513
13.5898
12.1365
10.6907
9.25161
7.81829
6.38993
4.96567
3.54461
2.12585
0.708462
-98.6487
-84.7477
-71.5335
-58.9892
-47.0977
-35.8417
-25.2034
-15.1651
-5.70889
3.18345
11.5299
19.3484
26.6572
33.474
39.8166
45.7027
51.1495
56.1745
60.7944
65.026
68.8858
72.3897
75.5535
78.3927
80.9224
83.1573
85.1118
86.7999
88.2352
89.4309
90.3999
91.1545
91.7068
92.0685
92.2508
92.2645
92.1202
91.828
91.3975
90.8381
90.1586
89.3678
88.4738
87.4844
86.4072
85.2493
84.0175
82.7185
81.3582
79.9426
78.4772
76.9673
75.4178
73.8334
72.2185
70.5773
68.9136
67.2311
65.5331
63.8229
62.1032
60.3769
58.6465
56.9142
55.1822
53.4524
51.7265
50.0061
48.2927
46.5874
44.8914
43.2056
41.5308
39.8678
38.2171
36.5791
34.9542
33.3426
31.7445
30.1598
28.5885
27.0305
25.4855
23.9533
22.4334
20.9255
19.429
17.9434
16.4681
15.0024
13.5457
12.0971
10.656
9.22156
7.79289
6.36918
4.94955
3.5331
2.11894
0.706161
-98.3029
-84.4507
-71.2827
-58.7824
-46.9326
-35.716
-25.1151
-15.112
-5.68887
3.1723
11.4895
19.2806
26.5637
33.3567
39.6771
45.5425
50.9702
55.9776
60.5813
64.7981
68.6443
72.1359
75.2887
78.1179
80.6388
82.8658
84.8135
86.4957
87.926
89.1175
90.083
90.835
91.3854
91.7458
91.9274
91.9411
91.7974
91.5061
91.0771
90.5197
89.8426
89.0546
88.1636
87.1777
86.1043
84.9505
83.7231
82.4285
81.073
79.6624
78.2021
76.6975
75.1534
73.5746
71.9654
70.3299
68.6721
66.9955
65.3034
63.5992
61.8855
60.1653
58.4409
56.7147
54.9888
53.2651
51.5452
49.8309
48.1234
46.4241
44.734
43.0541
41.3852
39.7281
38.0831
36.4509
34.8317
33.2258
31.6332
30.0541
28.4883
26.9358
25.3962
23.8693
22.3548
20.8522
19.3609
17.8805
16.4104
14.9498
13.4982
12.0547
10.6187
9.18924
7.76558
6.34686
4.9322
3.52072
2.11152
0.703686
-97.9329
-84.1328
-71.0144
-58.5611
-46.756
-35.5816
-25.0206
-15.0551
-5.66746
3.16036
11.4462
19.2081
26.4638
33.2311
39.5277
45.371
50.7784
55.7668
60.3533
64.5542
68.3859
71.8644
75.0053
77.8239
80.3352
82.5539
84.4943
86.1701
87.595
88.782
89.7439
90.4931
91.0414
91.4004
91.5814
91.5951
91.4518
91.1617
90.7343
90.1789
89.5044
88.7193
87.8318
86.8496
85.7802
84.6307
83.4079
82.1182
80.7678
79.3625
77.9077
76.4088
74.8705
73.2977
71.6945
70.0652
68.4136
66.7433
65.0576
63.3598
61.6526
59.9388
58.221
56.5013
54.7818
53.0646
51.3512
49.6433
47.9423
46.2494
44.5656
42.8921
41.2295
39.5785
37.9398
36.3137
34.7006
33.1007
31.5141
29.941
28.3811
26.8344
25.3006
23.7795
22.2707
20.7737
19.288
17.8132
16.3486
14.8936
13.4474
12.0094
10.5787
9.15465
7.73635
6.32297
4.91363
3.50746
2.10357
0.701037
-97.5387
-83.7942
-70.7286
-58.3254
-46.5678
-35.4384
-24.9198
-14.9945
-5.64464
3.14764
11.4002
19.1307
26.3572
33.0973
39.3686
45.1884
50.574
55.5424
60.1103
64.2944
68.1107
71.5751
74.7034
77.5106
80.0119
82.2216
84.1542
85.8233
87.2424
88.4247
89.3827
90.1288
90.6749
91.0325
91.2128
91.2264
91.0837
90.7948
90.3691
89.816
89.1442
88.3622
87.4783
86.5
85.4349
84.2901
83.0722
81.7877
80.4427
79.0431
77.5942
76.1012
74.5692
73.0026
71.4059
69.7832
68.1382
66.4746
64.7958
63.1047
61.4044
59.6976
57.9866
56.2738
54.5613
52.851
51.1445
49.4435
47.7493
46.0632
44.3863
42.7194
41.0635
39.4192
37.7871
36.1675
34.5609
32.9675
31.3873
29.8204
28.2669
26.7264
25.1988
23.6838
22.181
20.69
19.2104
17.7415
16.2828
14.8336
13.3933
11.961
10.5361
9.1178
7.70521
6.29751
4.89385
3.49335
2.0951
0.698216
-97.1205
-83.4349
-70.4253
-58.0753
-46.3681
-35.2864
-24.813
-14.9302
-5.62044
3.13414
11.3513
19.0487
26.2442
32.9554
39.1998
44.9946
50.3571
55.3042
59.8526
64.0187
67.8186
71.2682
74.383
77.1783
79.6688
81.8691
83.7933
85.4553
86.8683
88.0455
88.9994
89.7423
90.2861
90.6422
90.8216
90.8352
90.6931
90.4054
89.9816
89.4308
88.7619
87.9833
87.1031
86.1291
85.0686
83.9286
82.716
81.437
80.0978
78.7041
77.2614
75.7749
74.2494
72.6896
71.0997
69.484
67.846
66.1896
64.5179
62.8341
61.1411
59.4416
57.738
56.0325
54.3274
52.6243
50.9252
49.2315
47.5445
45.8657
44.1959
42.5362
40.8874
39.2502
37.625
36.0124
34.4127
32.8261
31.2527
29.6926
28.1456
26.6118
25.0907
23.5822
22.0859
20.6013
19.128
17.6654
16.213
14.77
13.3358
11.9097
10.4909
9.0787
7.67217
6.27051
4.87287
3.47837
2.08612
0.695222
-96.6782
-83.055
-70.1046
-57.8109
-46.1569
-35.1257
-24.7
-14.8622
-5.59484
3.11987
11.2996
18.962
26.1247
32.8053
39.0213
44.7897
50.1278
55.0524
59.5801
63.7272
67.5098
70.9437
74.0444
76.8269
79.306
81.4963
83.4118
85.0662
86.4728
87.6446
88.5942
89.3337
89.875
90.2295
90.4081
90.4216
90.2802
89.9938
89.5719
89.0236
88.3578
87.5827
86.7065
85.7369
84.6812
83.5465
82.3393
81.0662
79.7331
78.3458
76.9096
75.4299
73.9113
72.3586
70.776
69.1676
67.5371
65.8882
64.2241
62.548
60.8627
59.1709
57.4751
55.7774
54.08
52.3847
50.6933
49.0073
47.3281
45.6568
43.9947
42.3426
40.7013
39.0715
37.4537
35.8485
34.256
32.6766
31.1104
29.5574
28.0175
26.4906
24.9765
23.4748
21.9853
20.5075
19.0409
17.585
16.1391
14.7027
13.2751
11.8555
10.4432
9.03736
7.63723
6.24196
4.85068
3.46253
2.07662
0.692056
-96.2122
-82.6545
-69.7667
-57.5322
-45.9344
-34.9564
-24.5809
-14.7906
-5.56787
3.10483
11.2451
18.8705
25.9988
32.6472
38.8332
44.5738
49.8862
54.787
59.2928
63.42
67.1844
70.6017
73.6874
76.4565
78.9237
81.1034
83.0097
84.6561
86.0559
87.2221
88.1671
88.9031
89.4417
89.7945
89.9723
89.9857
89.845
89.5599
89.1401
88.5944
87.9318
87.1605
86.2885
85.3236
84.273
83.1437
81.9424
80.6754
79.3487
77.9681
76.5389
75.0662
73.555
72.0098
70.4348
68.8341
67.2115
65.5706
63.9145
62.2465
60.5693
58.8857
57.198
55.5085
53.8193
52.1322
50.4489
48.771
47.0999
45.4367
43.7826
42.1384
40.505
38.8831
37.2731
35.6756
34.0909
32.5191
30.9604
29.4149
27.8824
26.3629
24.8561
23.3617
21.8793
20.4087
18.9491
17.5002
16.0613
14.6319
13.2111
11.7983
10.3928
8.99379
7.60041
6.21187
4.8273
3.44584
2.06661
0.68872
-95.7223
-82.2338
-69.4115
-57.2393
-45.7006
-34.7784
-24.4558
-14.7153
-5.53953
3.08901
11.1878
18.7745
25.8664
32.481
38.6355
44.3469
49.6322
54.5081
58.991
63.0971
66.8423
70.2423
73.3123
76.0673
78.5219
80.6905
82.5871
84.2251
85.6178
86.778
87.7182
88.4505
88.9864
89.3373
89.5142
89.5276
89.3876
89.104
88.6863
88.1434
87.4841
86.7168
85.8492
84.8892
83.844
82.7204
81.5252
80.2647
78.9447
77.5711
76.1492
74.6841
73.1806
71.6432
70.0762
68.4837
66.8694
65.2367
63.5891
61.9296
60.261
58.5859
56.9068
55.2259
53.5453
51.8668
50.1921
48.5227
46.8601
45.2054
43.5597
41.9239
40.2988
38.6851
37.0834
35.494
33.9173
32.3535
30.8028
29.2651
27.7405
26.2287
24.7295
23.2427
21.768
20.3048
18.8527
17.4111
15.9796
14.5574
13.1438
11.7383
10.3399
8.94801
7.56172
6.18024
4.80272
3.42829
2.05609
0.685213
-95.2089
-81.7927
-69.0392
-56.9323
-45.4554
-34.5919
-24.3246
-14.6363
-5.50982
3.07244
11.1278
18.6738
25.7277
32.3068
38.4282
44.109
49.366
54.2157
58.6746
62.7587
66.4838
69.8655
72.919
75.6593
78.1008
80.2577
82.1441
83.7733
85.1586
86.3126
87.2477
87.976
88.5091
88.8582
89.0341
89.0474
88.9081
88.6261
88.2106
87.6706
87.0149
86.2516
85.3888
84.4339
83.3942
82.2767
81.0879
79.8341
78.5213
77.1551
75.7408
74.2835
72.788
71.2589
69.7003
68.1164
66.5107
64.8868
63.2481
61.5974
59.9377
58.2717
56.6016
54.9297
53.2581
51.5886
49.9229
48.2625
46.6088
44.9629
43.326
41.699
40.0827
38.4776
36.8845
35.3036
33.7354
32.18
30.6376
29.1082
27.5917
26.088
24.5969
23.1181
21.6512
20.1958
18.7515
17.3177
15.8939
14.4793
13.0733
11.6753
10.2845
8.90001
7.52116
6.14709
4.77696
3.40991
2.04506
0.681538
-94.672
-81.3314
-68.6498
-56.6112
-45.1991
-34.3968
-24.1874
-14.5538
-5.47876
3.05511
11.0651
18.5685
25.5826
32.1246
38.2115
43.8603
49.0876
53.91
58.3437
62.4048
66.1089
69.4715
72.5078
75.2326
77.6603
79.8051
81.6809
83.3009
84.6784
85.8259
86.7557
87.4799
88.01
88.3571
88.532
88.5452
88.4067
88.1263
87.7131
87.1762
86.5242
85.7652
84.9072
83.9577
82.9239
81.8127
80.6307
79.3839
78.0785
76.7199
75.3136
73.8646
72.3776
70.857
69.3073
67.7322
66.1356
64.5209
62.8914
61.25
59.5997
57.943
56.2824
54.6199
52.9577
51.2976
49.6413
47.9903
46.3459
44.7094
43.0817
41.4639
39.8566
38.2607
36.6765
35.1045
33.5451
31.9985
30.4648
28.944
27.4361
25.9409
24.4582
22.9877
21.5291
20.082
18.6458
17.2201
15.8042
14.3976
12.9996
11.6095
10.2265
8.84982
7.47875
6.11243
4.75002
3.39068
2.03352
0.677695
-94.1117
-80.8501
-68.2436
-56.2762
-44.9316
-34.1933
-24.0443
-14.4677
-5.44634
3.03702
10.9996
18.4586
25.4312
31.9345
37.9854
43.6007
48.7971
53.5909
57.9984
62.0354
65.7177
69.0604
72.0787
74.7874
77.2007
79.3328
81.1975
82.8079
84.1772
85.3179
86.2423
86.9622
87.4891
87.8342
88.0081
88.0212
87.8835
87.6047
87.194
86.6603
86.0121
85.2577
84.4047
83.4609
82.4332
81.3286
80.1535
78.9141
77.6164
76.2659
74.8679
73.4274
71.9492
70.4377
68.8971
67.3314
65.7442
64.1391
62.5192
60.8876
59.247
57.6001
55.9493
54.2967
52.6443
50.9941
49.3475
47.7063
46.0716
44.4448
42.8268
41.2185
39.6208
38.0342
36.4594
34.8968
33.3466
31.8092
30.2845
28.7727
27.2737
25.7873
24.3134
22.8517
21.4017
19.9631
18.5354
17.1182
15.7107
14.3124
12.9227
11.5408
10.1659
8.79744
7.43449
6.07625
4.72191
3.37061
2.02149
0.673684
-93.5282
-80.3488
-67.8205
-55.9273
-44.653
-33.9813
-23.8952
-14.378
-5.41257
3.01819
10.9314
18.3441
25.2735
31.7365
37.7499
43.3304
48.4945
53.2587
57.6388
61.6508
65.3102
68.6322
71.6318
74.3237
76.7221
78.841
80.694
82.2945
83.6553
84.789
85.7076
86.423
86.9467
87.2896
87.4624
87.4755
87.3387
87.0616
86.6534
86.123
85.4788
84.7291
83.8814
82.9434
81.9221
80.8243
79.6565
78.4249
77.1352
75.7931
74.4037
72.9722
71.5031
70.001
68.4699
66.9139
65.3366
63.7414
62.1315
60.5101
58.8797
57.243
55.6024
53.96
52.3179
50.6779
49.0416
47.4105
45.786
44.1692
42.5612
40.9629
39.3751
37.7984
36.2334
34.6804
33.1399
31.6119
30.0967
28.5943
27.1046
25.6275
24.1627
22.71
21.269
19.8393
18.4205
17.012
15.6133
14.2237
12.8426
11.4692
10.1029
8.7429
7.38839
6.03858
4.69263
3.34971
2.00896
0.669507
-92.9217
-79.8277
-67.3806
-55.5646
-44.3635
-33.7609
-23.7403
-14.2847
-5.37747
2.99862
10.8605
18.2251
25.1096
31.5306
37.505
43.0494
48.18
52.9133
57.265
61.251
64.8866
68.1871
71.1673
73.8417
76.2245
78.3297
80.1707
81.7608
83.1128
84.2391
85.1517
85.8625
86.3828
86.7235
86.8952
86.9081
86.7722
86.4969
86.0914
85.5645
84.9245
84.1795
83.3374
82.4055
81.3908
80.3001
79.1399
77.9162
76.6349
75.3015
73.9212
72.4989
71.0394
69.547
68.0259
66.4799
64.9128
63.328
61.7286
60.1176
58.4978
56.8717
55.2418
53.6101
51.9786
50.3492
48.7235
47.103
45.489
43.8828
42.2852
40.6973
39.1197
37.5533
35.9984
34.4555
32.9249
31.4069
29.9016
28.4089
26.9288
25.4612
24.006
22.5627
21.1311
19.7107
18.3011
16.9017
15.512
14.1314
12.7593
11.3948
10.0374
8.6862
7.34047
5.99942
4.6622
3.32799
1.99593
0.665165
-92.2922
-79.2869
-66.9241
-55.1881
-44.0629
-33.5322
-23.5794
-14.188
-5.34104
2.9783
10.7869
18.1017
24.9395
31.317
37.251
42.7577
47.8536
52.5548
56.8771
60.836
64.4471
67.7252
70.6852
73.3414
75.7081
77.799
79.6276
81.2069
82.5497
83.6684
84.5749
85.2809
85.7976
86.1359
86.3065
86.3194
86.1844
85.911
85.5082
84.9848
84.3491
83.6093
82.7728
81.8472
80.8394
79.7561
78.6038
77.3884
76.1158
74.7914
73.4204
72.0078
70.5581
69.0758
67.565
66.0296
64.4731
62.899
61.3104
59.7103
58.1015
56.4865
54.8675
53.2469
51.6265
50.0081
48.3934
46.7839
45.1809
43.5855
41.9987
40.4216
38.8547
37.2989
35.7545
34.2221
32.7019
31.1941
29.699
28.2164
26.7464
25.2888
23.8433
22.4098
20.9879
19.5771
18.1771
16.7872
15.4069
14.0357
12.6728
11.3176
9.96939
8.62735
7.29075
5.95877
4.63061
3.30544
1.98241
0.660659
-91.6399
-78.7266
-66.4512
-54.7981
-43.7515
-33.2952
-23.4128
-14.0877
-5.3033
2.95725
10.7107
17.9738
24.7632
31.0957
36.9877
42.4555
47.5154
52.1834
56.4751
60.4061
63.9916
67.2465
70.1856
72.8231
75.173
77.2492
79.0648
80.633
81.9663
83.077
83.9771
84.6781
85.1912
85.5272
85.6965
85.7093
85.5753
85.3038
84.9039
84.3842
83.753
83.0184
82.1878
81.2688
80.2681
79.1925
78.0482
76.8414
75.5778
74.2628
72.9015
71.4989
70.0595
68.5876
67.0875
65.5629
64.0174
62.4544
60.8771
59.2883
57.6909
56.0872
54.4798
52.8706
51.2616
49.6547
48.0514
46.4533
44.8616
43.2774
41.7019
40.1359
38.5801
37.0352
35.5018
33.9802
32.4708
30.9737
29.4891
28.017
26.5573
25.11
23.6748
22.2514
20.8396
19.4388
18.0486
16.6686
15.2981
13.9365
12.5833
11.2376
9.89893
8.56638
7.23922
5.91666
4.59789
3.28208
1.9684
0.655989
-90.965
-78.1468
-65.9618
-54.3945
-43.4293
-33.05
-23.2404
-13.984
-5.26424
2.93548
10.6318
17.8414
24.5808
30.8667
36.7153
42.1429
47.1655
51.7991
56.0592
59.9612
63.5203
66.7513
69.6687
72.2868
74.6194
76.6803
78.4825
80.0392
81.3627
82.4652
83.3587
84.0545
84.5638
84.8973
85.0654
85.0781
84.945
84.6756
84.2786
83.7627
83.1362
82.407
81.5826
80.6702
79.6769
78.6092
77.4734
76.2755
75.0212
73.7159
72.3646
70.9723
69.5435
68.0825
66.5934
65.0801
63.546
61.9945
60.4288
58.8517
57.266
55.6742
54.0785
52.4812
50.8841
49.289
47.6975
46.1112
44.5312
42.9587
41.3948
39.8403
38.296
36.7625
35.2404
33.73
32.2316
30.7456
29.2719
27.8107
26.3618
24.9251
23.5005
22.0876
20.6861
19.2956
17.9157
16.5458
15.1854
13.8339
12.4906
11.1549
9.82603
8.50329
7.1859
5.87308
4.56403
3.25791
1.9539
0.651158
-90.2677
-77.5477
-65.4561
-53.9776
-43.0964
-32.7966
-23.0622
-13.8767
-5.22388
2.91298
10.5503
17.7046
24.3924
30.6301
36.4338
41.8198
46.8039
51.402
55.6294
59.5016
63.0334
66.2396
69.1346
71.7326
74.0474
76.0924
77.8809
79.4256
80.7389
81.8331
82.7197
83.4102
83.9155
84.2465
84.4133
84.4259
84.2939
84.0264
83.6325
83.1206
82.4989
81.7752
80.9572
80.0518
79.0661
78.0066
76.8795
75.6908
74.4461
73.1508
71.8099
70.4282
69.0104
67.5606
66.0829
64.5812
63.0588
61.5192
59.9655
58.4005
56.827
55.2474
53.664
52.0789
50.494
48.9112
47.3319
45.7577
44.1898
42.6294
41.0774
39.5349
38.0024
36.4807
34.9702
33.4714
31.9845
30.5099
29.0475
27.5975
26.1597
24.734
23.3203
21.9183
20.5275
19.1477
17.7783
16.419
15.069
13.7278
12.3948
11.0694
9.7507
8.4381
7.13082
5.82806
4.52904
3.23293
1.93892
0.646167
-89.5481
-76.9295
-64.9343
-53.5472
-42.7528
-32.5352
-22.8784
-13.7661
-5.18224
2.88975
10.4662
17.5635
24.198
30.3859
36.1434
41.4864
46.4308
50.9922
55.186
59.0272
62.5309
65.7115
68.5835
71.1608
73.4571
75.4858
77.26
78.7924
80.0953
81.1807
82.0602
82.7452
83.2466
83.5749
83.7404
83.7529
83.6219
83.3566
82.9658
82.458
81.8412
81.1233
80.3118
79.4137
78.4358
77.3848
76.2667
75.0874
73.8526
72.5676
71.2374
69.8668
68.4602
67.022
65.5561
64.0663
62.5561
61.0288
59.4875
57.935
56.374
54.807
53.2362
51.6637
50.0915
48.5212
46.9546
45.3929
43.8375
42.2895
40.75
39.2197
37.6995
36.1899
34.6914
33.2046
31.7296
30.2667
28.8159
27.3775
25.9511
24.5369
23.1344
21.7435
20.3639
18.995
17.6366
16.2881
14.9489
13.6184
12.296
10.9811
9.67297
8.37084
7.07397
5.7816
4.49293
3.20716
1.92346
0.641015
-88.8064
-76.2923
-64.3965
-53.1037
-42.3987
-32.2657
-22.6889
-13.6521
-5.13931
2.86582
10.3795
17.418
23.9975
30.1342
35.844
41.1428
46.0463
50.5699
54.7289
58.5383
62.013
65.1673
68.0154
70.5714
72.8487
74.8606
76.6201
78.1398
79.4319
80.5083
81.3806
82.0599
82.5571
82.8827
83.0468
83.0592
82.9293
82.6662
82.2786
81.775
81.1633
80.4514
79.6466
78.7559
77.7862
76.7438
75.635
74.4655
73.2409
71.9665
70.6474
69.2881
67.8932
66.4669
65.0131
63.5357
62.038
60.5233
58.9948
57.4551
55.9071
54.353
52.7952
51.2358
49.6766
48.1193
46.5657
45.0169
43.4744
41.9393
40.4125
38.8949
37.3872
35.8901
34.4041
32.9295
31.4668
30.016
28.5773
27.1507
25.7362
24.3336
22.9428
21.5634
20.1952
18.8377
17.4905
16.1532
14.825
13.5056
12.1942
10.8902
9.59285
8.3015
7.01538
5.73371
4.45572
3.1806
1.90753
0.635706
-88.0428
-75.6363
-63.8428
-52.6471
-42.0341
-31.9883
-22.4938
-13.5347
-5.09512
2.84118
10.2903
17.2682
23.7912
29.8751
35.5358
40.789
45.6503
50.135
54.2583
58.035
61.4797
64.6069
67.4306
69.9646
72.2223
74.2169
75.9613
77.4679
78.7489
79.816
80.6808
81.3543
81.8472
82.17
82.3327
82.345
82.2162
81.9554
81.5711
81.0718
80.4655
79.7596
78.9617
78.0787
77.1173
76.0839
74.9846
73.8252
72.6111
71.3477
70.0399
68.6923
67.3094
65.8954
64.4541
62.9894
61.5045
60.0029
58.4875
56.9611
55.4263
53.8856
52.3413
50.7952
49.2494
47.7056
46.1653
44.6298
43.1006
41.5787
40.065
38.5604
37.0657
35.5815
34.1083
32.6464
31.1962
29.7579
28.3315
26.9172
25.5149
24.1244
22.7455
21.378
20.0215
18.6757
17.3401
16.0143
14.6976
13.3895
12.0893
10.7965
9.51037
8.23012
6.95506
5.68441
4.41741
3.15325
1.89113
0.63024
-87.2574
-74.9617
-63.2733
-52.1775
-41.6592
-31.7029
-22.2931
-13.414
-5.04967
2.81584
10.1985
17.1142
23.579
29.6086
35.2189
40.4252
45.2431
49.6878
53.7743
57.5173
60.9313
64.0306
66.8291
69.3405
71.5781
73.5549
75.2837
76.7769
78.0465
79.1041
79.9611
80.6286
81.1171
81.437
81.5983
81.6104
81.4828
81.2243
80.8435
80.3487
79.7477
79.0482
78.2574
77.3823
76.4294
75.4052
74.3157
73.1667
71.9635
70.7113
69.4151
68.0796
66.709
65.3076
63.8792
62.4275
60.9559
59.4677
57.9658
56.453
54.9319
53.405
51.8744
50.3421
48.8101
47.2801
45.7535
44.2318
42.7161
41.2078
39.7076
38.2165
36.7351
35.2641
33.804
32.3552
30.9179
29.4924
28.0788
26.6771
25.2873
23.9092
22.5426
21.1873
19.843
18.5092
17.1855
15.8714
14.5665
13.27
11.9815
10.7002
9.42553
8.15671
6.89302
5.63371
4.378
3.12512
1.87426
0.624618
-86.4506
-74.2685
-62.6882
-51.695
-41.274
-31.4098
-22.087
-13.2899
-5.00298
2.7898
10.1042
16.956
23.3609
29.3348
34.8932
40.0514
44.8248
49.2284
53.2771
56.9855
60.3679
63.4385
66.2112
68.6993
70.9162
72.8748
74.5876
76.067
77.3248
78.3726
79.2217
79.883
80.367
80.684
80.8437
80.8558
80.7294
80.4732
80.096
79.6057
79.0103
78.3172
77.5337
76.6667
75.7227
74.708
73.6286
72.4901
71.298
70.0575
68.7733
67.45
66.0922
64.7037
63.2885
61.8502
60.3923
58.9178
57.4298
55.931
54.424
52.9112
51.3947
49.8766
48.3588
46.8429
45.3304
43.8227
42.3212
40.8267
39.3404
37.8631
36.3954
34.938
33.4914
32.056
30.632
29.2197
27.8192
26.4305
25.0535
23.6881
22.3342
20.9914
19.6595
18.338
17.0266
15.7247
14.4318
13.1473
11.8707
10.6013
9.33838
8.08128
6.82928
5.58161
4.33752
3.09622
1.85693
0.618842
-85.6224
-73.557
-62.0877
-51.1998
-40.8786
-31.1089
-21.8754
-13.1626
-4.95505
2.76307
10.0074
16.7935
23.1371
29.0538
34.5589
39.6677
44.3953
48.7568
52.7667
56.4395
59.7896
62.8308
65.5769
68.0412
70.2368
72.1766
73.873
75.3382
76.584
77.6218
78.4628
79.1177
79.5971
79.911
80.0693
80.0812
79.956
79.7023
79.3287
78.8431
78.2534
77.567
76.791
75.9322
74.9973
73.9923
72.9232
71.7956
70.615
69.3863
68.1144
66.8039
65.459
64.0838
62.6822
61.2577
59.8137
58.3534
56.8796
55.3952
53.9026
52.4043
50.9023
49.3988
47.8955
46.3941
44.8961
43.4029
41.9157
40.4356
38.9635
37.5003
36.0467
34.6033
33.1706
31.7489
30.3386
28.9398
27.5527
26.1773
24.8135
23.4612
22.1202
20.7903
19.4711
18.1623
16.8634
15.574
14.2935
13.0214
11.757
10.4997
9.24892
8.00387
6.76385
5.52814
4.29597
3.06656
1.83914
0.612914
-84.7731
-72.8274
-61.4718
-50.6919
-40.4731
-30.8003
-21.6584
-13.0321
-4.9059
2.73566
9.90811
16.6269
22.9076
28.7656
34.2161
39.2742
43.955
48.2731
52.2432
55.8797
59.1965
62.2076
64.9264
67.3662
69.5401
71.4607
73.1403
74.5909
75.8243
76.8518
77.6845
78.333
78.8076
79.1184
79.275
79.2869
79.1629
78.9117
78.5418