/*--------------------------------*- C++ -*----------------------------------*\
| =========                 |                                                 |
| \\      /  F ield         | OpenFOAM: The Open Source CFD Toolbox           |
|  \\    /   O peration     | Version:  2406                                  |
|   \\  /    A nd           | Website:  www.openfoam.com                      |
|    \\/     M anipulation  |                                                 |
\*---------------------------------------------------------------------------*/
FoamFile
{
    version     2.0;
    format      ascii;
    arch        "LSB;label=32;scalar=64";
    class       volVectorField;
    location    "125";
    object      flux;
}
// * * * * * * * * * * * * * * * * * * * * * * * * * * * * * * * * * * * * * //

dimensions      [0 1 -1 1 0 0 0];

internalField   nonuniform List<vector> 
20000
(
(0.00169197 0.0139874 0)
(0.00157044 0.0172471 0)
(0.00145362 0.0202688 0)
(0.00134147 0.0230613 0)
(0.00123404 0.0256344 0)
(0.00113123 0.0279972 0)
(0.00103284 0.0301589 0)
(0.000938662 0.0321282 0)
(0.000848942 0.0339134 0)
(0.000763533 0.0355238 0)
(0.000682049 0.0369673 0)
(0.000604536 0.0382518 0)
(0.000531 0.0393853 0)
(0.000461279 0.0403757 0)
(0.000395207 0.0412303 0)
(0.000332684 0.0419564 0)
(0.000273629 0.042561 0)
(0.000217942 0.0430508 0)
(0.000165505 0.0434327 0)
(0.0001162 0.0437128 0)
(6.99161e-05 0.0438974 0)
(2.65493e-05 0.0439925 0)
(-1.40027e-05 0.0440036 0)
(-5.18439e-05 0.0439365 0)
(-8.70802e-05 0.0437963 0)
(-0.000119818 0.0435882 0)
(-0.000150161 0.043317 0)
(-0.000178212 0.0429876 0)
(-0.00020407 0.0426042 0)
(-0.000227832 0.0421713 0)
(-0.000249593 0.041693 0)
(-0.000269444 0.041173 0)
(-0.000287475 0.0406153 0)
(-0.000303775 0.0400232 0)
(-0.00031843 0.0394002 0)
(-0.000331523 0.0387496 0)
(-0.000343137 0.0380742 0)
(-0.000353349 0.0373771 0)
(-0.000362239 0.0366609 0)
(-0.00036988 0.0359282 0)
(-0.000376344 0.0351815 0)
(-0.000381702 0.0344229 0)
(-0.000386021 0.0336548 0)
(-0.000389367 0.032879 0)
(-0.000391803 0.0320974 0)
(-0.000393389 0.0313118 0)
(-0.000394185 0.0305239 0)
(-0.000394245 0.0297352 0)
(-0.000393624 0.028947 0)
(-0.000392375 0.0281608 0)
(-0.000390547 0.0273776 0)
(-0.000388187 0.0265987 0)
(-0.000385341 0.025825 0)
(-0.000382054 0.0250574 0)
(-0.000378366 0.0242969 0)
(-0.000374318 0.0235441 0)
(-0.000369948 0.0227997 0)
(-0.000365292 0.0220644 0)
(-0.000360384 0.0213386 0)
(-0.000355257 0.0206229 0)
(-0.000349943 0.0199177 0)
(-0.000344471 0.0192232 0)
(-0.00033887 0.0185399 0)
(-0.000333165 0.0178678 0)
(-0.000327383 0.0172073 0)
(-0.000321547 0.0165584 0)
(-0.000315679 0.0159212 0)
(-0.000309802 0.0152957 0)
(-0.000303934 0.0146821 0)
(-0.000298096 0.0140801 0)
(-0.000292304 0.0134897 0)
(-0.000286575 0.0129109 0)
(-0.000280926 0.0123435 0)
(-0.000275371 0.0117873 0)
(-0.000269924 0.0112421 0)
(-0.000264597 0.0107077 0)
(-0.000259403 0.0101838 0)
(-0.000254353 0.00967012 0)
(-0.000249458 0.00916642 0)
(-0.000244727 0.00867235 0)
(-0.00024017 0.00818758 0)
(-0.000235794 0.00771173 0)
(-0.000231608 0.00724446 0)
(-0.000227619 0.00678536 0)
(-0.000223833 0.00633404 0)
(-0.000220257 0.00589008 0)
(-0.000216895 0.00545307 0)
(-0.000213754 0.00502256 0)
(-0.000210838 0.0045981 0)
(-0.000208151 0.00417925 0)
(-0.000205697 0.00376555 0)
(-0.000203479 0.00335652 0)
(-0.0002015 0.00295168 0)
(-0.000199763 0.00255056 0)
(-0.00019827 0.00215268 0)
(-0.000197023 0.00175753 0)
(-0.000196024 0.00136463 0)
(-0.000195273 0.000973486 0)
(-0.000194772 0.00058359 0)
(-0.000194521 0.000194447 0)
(0.00507546 0.013984 0)
(0.00471091 0.0172428 0)
(0.00436053 0.0202637 0)
(0.00402417 0.0230556 0)
(0.00370186 0.0256281 0)
(0.00339322 0.0279904 0)
(0.00309813 0.0301513 0)
(0.00281592 0.0321201 0)
(0.0025467 0.0339052 0)
(0.00229029 0.0355151 0)
(0.00204593 0.0369581 0)
(0.00181351 0.0382423 0)
(0.00159291 0.0393756 0)
(0.00138371 0.0403658 0)
(0.0011855 0.0412201 0)
(0.000997961 0.041946 0)
(0.000820826 0.0425504 0)
(0.000653781 0.0430402 0)
(0.000496478 0.043422 0)
(0.000348569 0.043702 0)
(0.000209727 0.0438866 0)
(7.96389e-05 0.0439816 0)
(-4.20044e-05 0.0439928 0)
(-0.000155517 0.0439256 0)
(-0.000261217 0.0437855 0)
(-0.000359421 0.0435774 0)
(-0.000450444 0.0433064 0)
(-0.000534591 0.042977 0)
(-0.00061216 0.0425937 0)
(-0.000683441 0.0421609 0)
(-0.000748717 0.0416827 0)
(-0.000808265 0.0411629 0)
(-0.000862355 0.0406052 0)
(-0.000911251 0.0400133 0)
(-0.000955212 0.0393905 0)
(-0.000994488 0.03874 0)
(-0.00102933 0.0380648 0)
(-0.00105996 0.0373679 0)
(-0.00108663 0.0366519 0)
(-0.00110955 0.0359194 0)
(-0.00112894 0.0351728 0)
(-0.00114501 0.0344144 0)
(-0.00115797 0.0336465 0)
(-0.00116801 0.0328708 0)
(-0.00117531 0.0320895 0)
(-0.00118007 0.0313041 0)
(-0.00118246 0.0305164 0)
(-0.00118264 0.0297279 0)
(-0.00118078 0.0289399 0)
(-0.00117703 0.0281538 0)
(-0.00117154 0.0273709 0)
(-0.00116447 0.0265921 0)
(-0.00115593 0.0258186 0)
(-0.00114607 0.0250513 0)
(-0.00113501 0.0242909 0)
(-0.00112286 0.0235383 0)
(-0.00110975 0.0227941 0)
(-0.00109578 0.0220589 0)
(-0.00108106 0.0213333 0)
(-0.00106568 0.0206178 0)
(-0.00104974 0.0199128 0)
(-0.00103333 0.0192185 0)
(-0.00101653 0.0185353 0)
(-0.000999414 0.0178634 0)
(-0.000982069 0.017203 0)
(-0.000964561 0.0165543 0)
(-0.00094696 0.0159173 0)
(-0.000929329 0.015292 0)
(-0.000911728 0.0146784 0)
(-0.000894213 0.0140766 0)
(-0.000876839 0.0134864 0)
(-0.000859656 0.0129078 0)
(-0.00084271 0.0123405 0)
(-0.000826045 0.0117844 0)
(-0.000809705 0.0112393 0)
(-0.000793726 0.010705 0)
(-0.000778146 0.0101813 0)
(-0.000762997 0.00966774 0)
(-0.000748313 0.00916416 0)
(-0.000734121 0.00867021 0)
(-0.00072045 0.00818556 0)
(-0.000707324 0.00770983 0)
(-0.000694767 0.00724267 0)
(-0.0006828 0.00678369 0)
(-0.000671443 0.00633248 0)
(-0.000660715 0.00588863 0)
(-0.000650633 0.00545172 0)
(-0.000641211 0.00502132 0)
(-0.000632463 0.00459697 0)
(-0.000624403 0.00417822 0)
(-0.000617041 0.00376462 0)
(-0.000610387 0.00335569 0)
(-0.000604451 0.00295095 0)
(-0.00059924 0.00254993 0)
(-0.000594762 0.00215215 0)
(-0.000591021 0.0017571 0)
(-0.000588023 0.0013643 0)
(-0.000585771 0.000973246 0)
(-0.000584268 0.000583446 0)
(-0.000583516 0.000194399 0)
(0.00845758 0.0139772 0)
(0.00785009 0.0172343 0)
(0.00726644 0.0202535 0)
(0.00670597 0.0230442 0)
(0.00616884 0.0256154 0)
(0.00565442 0.0279766 0)
(0.00516259 0.0301365 0)
(0.0046925 0.0321043 0)
(0.00424387 0.0338885 0)
(0.00381644 0.0354975 0)
(0.00340928 0.0369398 0)
(0.00302206 0.0382234 0)
(0.00265445 0.0393562 0)
(0.0023058 0.0403458 0)
(0.00197548 0.0411998 0)
(0.00166299 0.0419253 0)
(0.00136783 0.0425294 0)
(0.00108947 0.043019 0)
(0.000827328 0.0434005 0)
(0.000580846 0.0436805 0)
(0.00034948 0.043865 0)
(0.000132706 0.0439599 0)
(-6.99954e-05 0.0439711 0)
(-0.000259149 0.0439039 0)
(-0.000435285 0.0437639 0)
(-0.000598933 0.0435559 0)
(-0.000750614 0.043285 0)
(-0.000890837 0.0429558 0)
(-0.0010201 0.0425727 0)
(-0.00113888 0.0421401 0)
(-0.00124766 0.0416621 0)
(-0.00134689 0.0411426 0)
(-0.00143702 0.0405852 0)
(-0.0015185 0.0399936 0)
(-0.00159176 0.0393711 0)
(-0.00165721 0.0387209 0)
(-0.00171526 0.038046 0)
(-0.00176631 0.0373494 0)
(-0.00181075 0.0366338 0)
(-0.00184894 0.0359016 0)
(-0.00188126 0.0351554 0)
(-0.00190804 0.0343975 0)
(-0.00192963 0.0336299 0)
(-0.00194636 0.0328546 0)
(-0.00195853 0.0320736 0)
(-0.00196646 0.0312887 0)
(-0.00197044 0.0305013 0)
(-0.00197074 0.0297132 0)
(-0.00196764 0.0289256 0)
(-0.00196139 0.02814 0)
(-0.00195225 0.0273574 0)
(-0.00194046 0.026579 0)
(-0.00192623 0.0258059 0)
(-0.0019098 0.0250389 0)
(-0.00189136 0.0242789 0)
(-0.00187113 0.0235266 0)
(-0.00184928 0.0227828 0)
(-0.00182601 0.022048 0)
(-0.00180147 0.0213228 0)
(-0.00177585 0.0206077 0)
(-0.00174928 0.0199029 0)
(-0.00172193 0.019209 0)
(-0.00169393 0.0185261 0)
(-0.00166542 0.0178546 0)
(-0.00163651 0.0171946 0)
(-0.00160734 0.0165461 0)
(-0.00157801 0.0159094 0)
(-0.00154863 0.0152844 0)
(-0.0015193 0.0146712 0)
(-0.00149011 0.0140697 0)
(-0.00146116 0.0134798 0)
(-0.00143252 0.0129014 0)
(-0.00140428 0.0123344 0)
(-0.00137652 0.0117786 0)
(-0.00134929 0.0112338 0)
(-0.00132266 0.0106997 0)
(-0.0012967 0.0101762 0)
(-0.00127145 0.00966297 0)
(-0.00124698 0.00915964 0)
(-0.00122333 0.00866593 0)
(-0.00120055 0.00818152 0)
(-0.00117868 0.00770603 0)
(-0.00115775 0.0072391 0)
(-0.00113781 0.00678034 0)
(-0.00111889 0.00632935 0)
(-0.00110101 0.00588572 0)
(-0.00108421 0.00544903 0)
(-0.00106851 0.00501884 0)
(-0.00105393 0.0045947 0)
(-0.0010405 0.00417616 0)
(-0.00102823 0.00376276 0)
(-0.00101714 0.00335403 0)
(-0.00100725 0.0029495 0)
(-0.00099857 0.00254868 0)
(-0.000991107 0.00215108 0)
(-0.000984873 0.00175623 0)
(-0.000979876 0.00136362 0)
(-0.000976124 0.000972766 0)
(-0.000973619 0.000583158 0)
(-0.000972366 0.000194303 0)
(0.0118377 0.0139669 0)
(0.0109872 0.0172218 0)
(0.0101704 0.0202386 0)
(0.00938604 0.0230271 0)
(0.00863427 0.0255964 0)
(0.00791431 0.0279558 0)
(0.00722583 0.0301142 0)
(0.00656788 0.0320805 0)
(0.00593996 0.0338634 0)
(0.00534166 0.0354713 0)
(0.0047718 0.0369125 0)
(0.00422987 0.0381951 0)
(0.00371532 0.0393271 0)
(0.00322731 0.040316 0)
(0.00276498 0.0411693 0)
(0.00232761 0.0418943 0)
(0.0019145 0.042498 0)
(0.00152488 0.0429871 0)
(0.00115797 0.0433684 0)
(0.000812976 0.0436481 0)
(0.000489143 0.0438325 0)
(0.000185739 0.0439273 0)
(-9.7967e-05 0.0439385 0)
(-0.000362714 0.0438714 0)
(-0.000609243 0.0437314 0)
(-0.000838295 0.0435237 0)
(-0.0010506 0.0432529 0)
(-0.00124686 0.042924 0)
(-0.00142779 0.0425412 0)
(-0.00159404 0.0421089 0)
(-0.00174629 0.0416313 0)
(-0.00188518 0.0411121 0)
(-0.00201134 0.0405551 0)
(-0.00212538 0.039964 0)
(-0.00222791 0.0393419 0)
(-0.00231952 0.0386922 0)
(-0.00240077 0.0380179 0)
(-0.00247223 0.0373218 0)
(-0.00253442 0.0366066 0)
(-0.00258788 0.035875 0)
(-0.00263311 0.0351294 0)
(-0.0026706 0.034372 0)
(-0.00270082 0.033605 0)
(-0.00272423 0.0328303 0)
(-0.00274127 0.0320499 0)
(-0.00275237 0.0312655 0)
(-0.00275793 0.0304788 0)
(-0.00275835 0.0296912 0)
(-0.00275401 0.0289042 0)
(-0.00274527 0.0281191 0)
(-0.00273248 0.0273371 0)
(-0.00271597 0.0265593 0)
(-0.00269606 0.0257868 0)
(-0.00267306 0.0250203 0)
(-0.00264726 0.0242609 0)
(-0.00261894 0.0235092 0)
(-0.00258836 0.0227659 0)
(-0.00255578 0.0220317 0)
(-0.00252144 0.021307 0)
(-0.00248557 0.0205924 0)
(-0.00244839 0.0198882 0)
(-0.00241011 0.0191948 0)
(-0.00237092 0.0185124 0)
(-0.00233101 0.0178414 0)
(-0.00229055 0.0171818 0)
(-0.00224972 0.0165339 0)
(-0.00220867 0.0158976 0)
(-0.00216754 0.0152731 0)
(-0.00212649 0.0146603 0)
(-0.00208564 0.0140592 0)
(-0.00204512 0.0134698 0)
(-0.00200504 0.0128918 0)
(-0.00196551 0.0123252 0)
(-0.00192665 0.0117699 0)
(-0.00188853 0.0112255 0)
(-0.00185127 0.0106918 0)
(-0.00181493 0.0101687 0)
(-0.0017796 0.00965581 0)
(-0.00174535 0.00915286 0)
(-0.00171224 0.00865952 0)
(-0.00168036 0.00817546 0)
(-0.00164974 0.00770032 0)
(-0.00162046 0.00723374 0)
(-0.00159254 0.00677532 0)
(-0.00156606 0.00632466 0)
(-0.00154104 0.00588137 0)
(-0.00151752 0.005445 0)
(-0.00149554 0.00501512 0)
(-0.00147514 0.0045913 0)
(-0.00145634 0.00417307 0)
(-0.00143917 0.00375997 0)
(-0.00142365 0.00335155 0)
(-0.00140981 0.00294731 0)
(-0.00139765 0.00254679 0)
(-0.00138721 0.00214949 0)
(-0.00137848 0.00175493 0)
(-0.00137149 0.00136261 0)
(-0.00136624 0.000972045 0)
(-0.00136273 0.000582727 0)
(-0.00136098 0.000194159 0)
(0.0152151 0.0139528 0)
(0.0141218 0.0172048 0)
(0.0130717 0.0202187 0)
(0.0120638 0.0230044 0)
(0.0110975 0.0255712 0)
(0.0101722 0.0279282 0)
(0.00928728 0.0300845 0)
(0.00844163 0.0320488 0)
(0.0076346 0.0338299 0)
(0.00686557 0.0354362 0)
(0.00613315 0.036876 0)
(0.00543663 0.0381574 0)
(0.00477528 0.0392882 0)
(0.00414802 0.0402761 0)
(0.0035538 0.0411286 0)
(0.00299166 0.0418529 0)
(0.00246069 0.042456 0)
(0.00195992 0.0429447 0)
(0.00148832 0.0433256 0)
(0.0010449 0.043605 0)
(0.000628685 0.0437892 0)
(0.000238728 0.0438839 0)
(-0.000125912 0.0438951 0)
(-0.000466186 0.0438281 0)
(-0.000783048 0.0436883 0)
(-0.00107745 0.0434807 0)
(-0.00135032 0.0432102 0)
(-0.00160258 0.0428816 0)
(-0.00183512 0.0424992 0)
(-0.00204881 0.0420673 0)
(-0.00224449 0.0415901 0)
(-0.00242301 0.0410715 0)
(-0.00258515 0.0405151 0)
(-0.00273173 0.0399245 0)
(-0.00286352 0.039303 0)
(-0.00298126 0.038654 0)
(-0.00308569 0.0379803 0)
(-0.00317753 0.0372849 0)
(-0.00325747 0.0365705 0)
(-0.00332618 0.0358396 0)
(-0.00338431 0.0350947 0)
(-0.00343249 0.034338 0)
(-0.00347134 0.0335718 0)
(-0.00350143 0.0327979 0)
(-0.00352333 0.0320182 0)
(-0.00353759 0.0312346 0)
(-0.00354474 0.0304486 0)
(-0.00354529 0.0296619 0)
(-0.00353971 0.0288757 0)
(-0.00352847 0.0280913 0)
(-0.00351203 0.0273101 0)
(-0.00349081 0.0265331 0)
(-0.00346522 0.0257613 0)
(-0.00343566 0.0249956 0)
(-0.0034025 0.0242369 0)
(-0.00336609 0.023486 0)
(-0.00332679 0.0227435 0)
(-0.00328492 0.0220099 0)
(-0.00324079 0.021286 0)
(-0.00319469 0.020572 0)
(-0.0031469 0.0198685 0)
(-0.00309769 0.0191758 0)
(-0.00304732 0.0184941 0)
(-0.00299602 0.0178238 0)
(-0.00294403 0.0171649 0)
(-0.00289154 0.0165175 0)
(-0.00283878 0.0158819 0)
(-0.00278592 0.015258 0)
(-0.00273316 0.0146458 0)
(-0.00268065 0.0140454 0)
(-0.00262857 0.0134565 0)
(-0.00257706 0.0128791 0)
(-0.00252626 0.0123131 0)
(-0.0024763 0.0117582 0)
(-0.00242732 0.0112144 0)
(-0.00237942 0.0106813 0)
(-0.00233271 0.0101587 0)
(-0.0022873 0.00964627 0)
(-0.00224328 0.00914381 0)
(-0.00220073 0.00865096 0)
(-0.00215975 0.00816738 0)
(-0.0021204 0.00769271 0)
(-0.00208276 0.00722659 0)
(-0.00204688 0.00676862 0)
(-0.00201284 0.00631842 0)
(-0.00198068 0.00587556 0)
(-0.00195045 0.00543962 0)
(-0.00192221 0.00501017 0)
(-0.00189599 0.00458676 0)
(-0.00187182 0.00416895 0)
(-0.00184975 0.00375626 0)
(-0.00182981 0.00334824 0)
(-0.00181201 0.0029444 0)
(-0.00179639 0.00254427 0)
(-0.00178296 0.00214737 0)
(-0.00177175 0.0017532 0)
(-0.00176276 0.00136127 0)
(-0.00175601 0.000971085 0)
(-0.00175151 0.000582151 0)
(-0.00174925 0.000193967 0)
(0.0185887 0.0139355 0)
(0.0172531 0.0171834 0)
(0.01597 0.0201937 0)
(0.0147385 0.022976 0)
(0.0135581 0.0255396 0)
(0.0124276 0.0278937 0)
(0.0113464 0.0300473 0)
(0.0103133 0.0320092 0)
(0.00932735 0.0337881 0)
(0.00838779 0.0353924 0)
(0.00749299 0.0368305 0)
(0.00664205 0.0381103 0)
(0.00583406 0.0392397 0)
(0.00506771 0.0402264 0)
(0.00434174 0.0410778 0)
(0.00365497 0.0418012 0)
(0.00300628 0.0424035 0)
(0.00239447 0.0428916 0)
(0.00181831 0.043272 0)
(0.00127657 0.0435511 0)
(0.000768071 0.0437351 0)
(0.00029166 0.0438297 0)
(-0.000153823 0.0438408 0)
(-0.00056954 0.0437739 0)
(-0.000956658 0.0436343 0)
(-0.00131634 0.043427 0)
(-0.00164971 0.0431568 0)
(-0.00195791 0.0428286 0)
(-0.00224201 0.0424467 0)
(-0.00250307 0.0420154 0)
(-0.00274214 0.0415388 0)
(-0.00296023 0.0410207 0)
(-0.00315833 0.040465 0)
(-0.00333741 0.0398752 0)
(-0.00349841 0.0392545 0)
(-0.00364226 0.0386062 0)
(-0.00376985 0.0379334 0)
(-0.00388205 0.0372388 0)
(-0.00397971 0.0365253 0)
(-0.00406366 0.0357953 0)
(-0.00413468 0.0350513 0)
(-0.00419354 0.0342956 0)
(-0.004241 0.0335303 0)
(-0.00427776 0.0327573 0)
(-0.00430452 0.0319787 0)
(-0.00432195 0.031196 0)
(-0.00433068 0.030411 0)
(-0.00433135 0.0296252 0)
(-0.00432453 0.02884 0)
(-0.0043108 0.0280566 0)
(-0.00429072 0.0272764 0)
(-0.00426479 0.0265003 0)
(-0.00423353 0.0257295 0)
(-0.00419741 0.0249647 0)
(-0.0041569 0.024207 0)
(-0.00411242 0.023457 0)
(-0.00406441 0.0227154 0)
(-0.00401325 0.0219827 0)
(-0.00395933 0.0212597 0)
(-0.00390301 0.0205466 0)
(-0.00384463 0.019844 0)
(-0.00378451 0.0191521 0)
(-0.00372297 0.0184713 0)
(-0.0036603 0.0178017 0)
(-0.00359677 0.0171436 0)
(-0.00353265 0.0164971 0)
(-0.00346819 0.0158623 0)
(-0.00340362 0.0152392 0)
(-0.00333915 0.0146277 0)
(-0.00327501 0.014028 0)
(-0.00321138 0.0134398 0)
(-0.00314844 0.0128632 0)
(-0.00308638 0.0122979 0)
(-0.00302535 0.0117437 0)
(-0.0029655 0.0112005 0)
(-0.00290698 0.0106681 0)
(-0.00284992 0.0101461 0)
(-0.00279444 0.00963435 0)
(-0.00274065 0.00913252 0)
(-0.00268868 0.00864027 0)
(-0.00263861 0.00815729 0)
(-0.00259053 0.00768321 0)
(-0.00254454 0.00721766 0)
(-0.00250072 0.00676026 0)
(-0.00245912 0.00631061 0)
(-0.00241983 0.0058683 0)
(-0.00238291 0.0054329 0)
(-0.0023484 0.00500398 0)
(-0.00231636 0.00458109 0)
(-0.00228684 0.00416379 0)
(-0.00225988 0.00375162 0)
(-0.00223551 0.0033441 0)
(-0.00221377 0.00294076 0)
(-0.00219469 0.00254113 0)
(-0.00217828 0.00214472 0)
(-0.00216458 0.00175103 0)
(-0.0021536 0.00135959 0)
(-0.00214535 0.000969885 0)
(-0.00213985 0.000581432 0)
(-0.00213709 0.000193727 0)
(0.0219577 0.0139149 0)
(0.02038 0.0171579 0)
(0.0188643 0.0201637 0)
(0.0174097 0.0229419 0)
(0.0160153 0.0255017 0)
(0.0146799 0.0278523 0)
(0.0134028 0.0300027 0)
(0.0121824 0.0319617 0)
(0.0110178 0.033738 0)
(0.00990794 0.0353399 0)
(0.00885097 0.0367758 0)
(0.00784583 0.0380537 0)
(0.00689139 0.0391814 0)
(0.00598616 0.0401667 0)
(0.00512861 0.0410169 0)
(0.00431739 0.0417392 0)
(0.00355113 0.0423406 0)
(0.00282843 0.042828 0)
(0.00214784 0.0432078 0)
(0.00150792 0.0434865 0)
(0.000907269 0.0436702 0)
(0.000344521 0.0437647 0)
(-0.000181694 0.0437758 0)
(-0.000672752 0.043709 0)
(-0.00113003 0.0435695 0)
(-0.0015549 0.0433625 0)
(-0.0019487 0.0430928 0)
(-0.00231275 0.042765 0)
(-0.00264834 0.0423837 0)
(-0.00295672 0.041953 0)
(-0.00323912 0.0414771 0)
(-0.00349673 0.0409599 0)
(-0.00373074 0.040405 0)
(-0.00394227 0.039816 0)
(-0.00413245 0.0391962 0)
(-0.00430236 0.0385489 0)
(-0.00445308 0.0378771 0)
(-0.00458561 0.0371836 0)
(-0.00470098 0.0364711 0)
(-0.00480013 0.0357422 0)
(-0.00488403 0.0349993 0)
(-0.00495356 0.0342447 0)
(-0.00500961 0.0334805 0)
(-0.00505304 0.0327087 0)
(-0.00508465 0.0319312 0)
(-0.00510523 0.0311497 0)
(-0.00511555 0.0303659 0)
(-0.00511634 0.0295812 0)
(-0.00510828 0.0287972 0)
(-0.00509207 0.028015 0)
(-0.00506834 0.0272359 0)
(-0.00503772 0.026461 0)
(-0.00500079 0.0256913 0)
(-0.00495813 0.0249277 0)
(-0.00491027 0.0241711 0)
(-0.00485774 0.0234222 0)
(-0.00480102 0.0226816 0)
(-0.00474059 0.0219501 0)
(-0.0046769 0.0212281 0)
(-0.00461037 0.0205161 0)
(-0.00454141 0.0198146 0)
(-0.0044704 0.0191237 0)
(-0.0043977 0.0184439 0)
(-0.00432367 0.0177753 0)
(-0.00424863 0.0171182 0)
(-0.00417289 0.0164727 0)
(-0.00409675 0.0158388 0)
(-0.00402047 0.0152166 0)
(-0.00394432 0.014606 0)
(-0.00386855 0.0140072 0)
(-0.00379339 0.0134199 0)
(-0.00371905 0.0128441 0)
(-0.00364574 0.0122796 0)
(-0.00357364 0.0117263 0)
(-0.00350295 0.0111839 0)
(-0.00343382 0.0106522 0)
(-0.00336642 0.0101311 0)
(-0.00330089 0.00962006 0)
(-0.00323736 0.00911897 0)
(-0.00317596 0.00862745 0)
(-0.00311682 0.00814519 0)
(-0.00306003 0.00767181 0)
(-0.0030057 0.00720695 0)
(-0.00295393 0.00675023 0)
(-0.0029048 0.00630125 0)
(-0.00285839 0.00585959 0)
(-0.00281477 0.00542484 0)
(-0.00277401 0.00499655 0)
(-0.00273617 0.0045743 0)
(-0.0027013 0.00415762 0)
(-0.00266945 0.00374605 0)
(-0.00264066 0.00333914 0)
(-0.00261498 0.0029364 0)
(-0.00259244 0.00253736 0)
(-0.00257306 0.00214153 0)
(-0.00255688 0.00174843 0)
(-0.00254391 0.00135757 0)
(-0.00253417 0.000968446 0)
(-0.00252766 0.000580569 0)
(-0.00252441 0.00019344 0)
(0.0253212 0.0138909 0)
(0.0235019 0.0171282 0)
(0.021754 0.0201288 0)
(0.0200765 0.0229021 0)
(0.0184685 0.0254575 0)
(0.0169286 0.0278041 0)
(0.0154559 0.0299507 0)
(0.0140486 0.0319064 0)
(0.0127055 0.0336795 0)
(0.0114256 0.0352787 0)
(0.0102068 0.0367121 0)
(0.00904768 0.0379878 0)
(0.00794703 0.0391136 0)
(0.00690312 0.0400971 0)
(0.00591422 0.0409458 0)
(0.00497873 0.0416668 0)
(0.0040951 0.0422672 0)
(0.00326169 0.0427538 0)
(0.00247684 0.043133 0)
(0.0017389 0.0434112 0)
(0.00104624 0.0435945 0)
(0.000397299 0.0436889 0)
(-0.000209519 0.0436999 0)
(-0.000775797 0.0436333 0)
(-0.00130312 0.043494 0)
(-0.00179307 0.0432874 0)
(-0.0022472 0.0430181 0)
(-0.00266702 0.0426909 0)
(-0.00305402 0.0423103 0)
(-0.00340964 0.0418803 0)
(-0.0037353 0.0414053 0)
(-0.00403237 0.0408889 0)
(-0.00430222 0.040335 0)
(-0.00454615 0.039747 0)
(-0.00476546 0.0391283 0)
(-0.00496141 0.0384821 0)
(-0.00513521 0.0378115 0)
(-0.00528804 0.0371192 0)
(-0.00542108 0.0364079 0)
(-0.00553543 0.0356803 0)
(-0.00563217 0.0349387 0)
(-0.00571235 0.0341854 0)
(-0.00577699 0.0334225 0)
(-0.00582707 0.0326521 0)
(-0.00586352 0.0318759 0)
(-0.00588726 0.0310958 0)
(-0.00589916 0.0303133 0)
(-0.00590006 0.02953 0)
(-0.00589078 0.0287473 0)
(-0.00587208 0.0279665 0)
(-0.00584472 0.0271887 0)
(-0.0058094 0.0264151 0)
(-0.00576682 0.0256468 0)
(-0.00571762 0.0248845 0)
(-0.00566243 0.0241292 0)
(-0.00560185 0.0233816 0)
(-0.00553645 0.0226423 0)
(-0.00546676 0.0219121 0)
(-0.00539331 0.0211914 0)
(-0.00531659 0.0204806 0)
(-0.00523707 0.0197802 0)
(-0.00515518 0.0190906 0)
(-0.00507135 0.0184119 0)
(-0.00498598 0.0177445 0)
(-0.00489945 0.0170885 0)
(-0.0048121 0.0164441 0)
(-0.00472429 0.0158113 0)
(-0.00463633 0.0151902 0)
(-0.00454852 0.0145807 0)
(-0.00446114 0.0139829 0)
(-0.00437447 0.0133967 0)
(-0.00428874 0.0128218 0)
(-0.0042042 0.0122583 0)
(-0.00412106 0.011706 0)
(-0.00403954 0.0111645 0)
(-0.00395982 0.0106338 0)
(-0.00388209 0.0101135 0)
(-0.00380652 0.00960339 0)
(-0.00373326 0.00910317 0)
(-0.00366246 0.00861251 0)
(-0.00359425 0.00813107 0)
(-0.00352877 0.00765852 0)
(-0.00346612 0.00719446 0)
(-0.00340642 0.00673853 0)
(-0.00334977 0.00629033 0)
(-0.00329625 0.00584944 0)
(-0.00324594 0.00541544 0)
(-0.00319894 0.00498789 0)
(-0.0031553 0.00456637 0)
(-0.00311509 0.00415041 0)
(-0.00307836 0.00373956 0)
(-0.00304516 0.00333335 0)
(-0.00301555 0.00293131 0)
(-0.00298955 0.00253296 0)
(-0.00296721 0.00213782 0)
(-0.00294855 0.0017454 0)
(-0.00293359 0.00135522 0)
(-0.00292235 0.000966768 0)
(-0.00291485 0.000579563 0)
(-0.0029111 0.000193105 0)
(0.0286785 0.0138634 0)
(0.0266179 0.0170942 0)
(0.0246382 0.0200889 0)
(0.0227384 0.0228567 0)
(0.0209172 0.025407 0)
(0.0191731 0.0277489 0)
(0.0175051 0.0298914 0)
(0.0159112 0.0318431 0)
(0.0143901 0.0336127 0)
(0.0129405 0.0352087 0)
(0.0115601 0.0366393 0)
(0.0102473 0.0379125 0)
(0.00900071 0.039036 0)
(0.00781839 0.0400176 0)
(0.00669837 0.0408646 0)
(0.00563884 0.0415842 0)
(0.00463805 0.0421834 0)
(0.00369414 0.042669 0)
(0.00280523 0.0430474 0)
(0.00196945 0.0433251 0)
(0.00118496 0.0435081 0)
(0.000449982 0.0436022 0)
(-0.00023729 0.0436133 0)
(-0.000878648 0.0435468 0)
(-0.00147589 0.0434078 0)
(-0.00203081 0.0432016 0)
(-0.00254515 0.0429329 0)
(-0.00302063 0.0426063 0)
(-0.00345894 0.0422264 0)
(-0.00386171 0.0417973 0)
(-0.00423055 0.0413232 0)
(-0.00456701 0.0408078 0)
(-0.00487264 0.040255 0)
(-0.00514892 0.0396682 0)
(-0.0053973 0.0390508 0)
(-0.00561923 0.0384059 0)
(-0.00581607 0.0377365 0)
(-0.00598917 0.0370456 0)
(-0.00613984 0.0363357 0)
(-0.00626935 0.0356096 0)
(-0.00637892 0.0348694 0)
(-0.00646974 0.0341176 0)
(-0.00654295 0.0333563 0)
(-0.00659966 0.0325873 0)
(-0.00664095 0.0318127 0)
(-0.00666784 0.0310341 0)
(-0.00668131 0.0302532 0)
(-0.00668234 0.0294715 0)
(-0.00667182 0.0286903 0)
(-0.00665064 0.027911 0)
(-0.00661965 0.0271348 0)
(-0.00657966 0.0263628 0)
(-0.00653143 0.0255959 0)
(-0.0064757 0.0248352 0)
(-0.0064132 0.0240814 0)
(-0.00634459 0.0233352 0)
(-0.00627051 0.0225975 0)
(-0.00619159 0.0218687 0)
(-0.0061084 0.0211493 0)
(-0.00602151 0.02044 0)
(-0.00593143 0.019741 0)
(-0.00583869 0.0190527 0)
(-0.00574375 0.0183754 0)
(-0.00564706 0.0177093 0)
(-0.00554905 0.0170547 0)
(-0.00545013 0.0164115 0)
(-0.00535067 0.01578 0)
(-0.00525105 0.0151601 0)
(-0.0051516 0.0145518 0)
(-0.00505263 0.0139552 0)
(-0.00495446 0.0133701 0)
(-0.00485737 0.0127964 0)
(-0.00476162 0.012234 0)
(-0.00466746 0.0116828 0)
(-0.00457513 0.0111424 0)
(-0.00448484 0.0106127 0)
(-0.00439681 0.0100934 0)
(-0.00431122 0.00958435 0)
(-0.00422824 0.00908512 0)
(-0.00414805 0.00859543 0)
(-0.00407081 0.00811495 0)
(-0.00399664 0.00764333 0)
(-0.00392569 0.0071802 0)
(-0.00385807 0.00672517 0)
(-0.0037939 0.00627786 0)
(-0.00373328 0.00583784 0)
(-0.00367631 0.0054047 0)
(-0.00362308 0.00497801 0)
(-0.00357365 0.00455732 0)
(-0.00352811 0.00414218 0)
(-0.00348651 0.00373215 0)
(-0.00344891 0.00332674 0)
(-0.00341537 0.0029255 0)
(-0.00338593 0.00252794 0)
(-0.00336062 0.00213358 0)
(-0.00333949 0.00174194 0)
(-0.00332254 0.00135253 0)
(-0.00330982 0.000964851 0)
(-0.00330133 0.000578414 0)
(-0.00329708 0.000192722 0)
(0.0320287 0.0138324 0)
(0.0297274 0.0170561 0)
(0.0275165 0.020044 0)
(0.0253947 0.0228057 0)
(0.0233607 0.0253503 0)
(0.0214129 0.027687 0)
(0.01955 0.0298246 0)
(0.01777 0.031772 0)
(0.0160712 0.0335377 0)
(0.0144522 0.0351301 0)
(0.0129105 0.0365575 0)
(0.0114444 0.0378278 0)
(0.0100522 0.0389488 0)
(0.00873172 0.0399282 0)
(0.00748086 0.0407734 0)
(0.00629757 0.0414914 0)
(0.00517986 0.0420892 0)
(0.00412568 0.0425737 0)
(0.00313293 0.0429513 0)
(0.00219951 0.0432283 0)
(0.00132339 0.0434109 0)
(0.000502554 0.0435049 0)
(-0.000265 0.0435159 0)
(-0.000981282 0.0434495 0)
(-0.0016483 0.0433109 0)
(-0.00226804 0.0431051 0)
(-0.00284247 0.042837 0)
(-0.0033735 0.0425112 0)
(-0.00386302 0.0421321 0)
(-0.00431284 0.041704 0)
(-0.00472476 0.0412309 0)
(-0.00510053 0.0407167 0)
(-0.00544186 0.0401651 0)
(-0.00575041 0.0395796 0)
(-0.00602781 0.0389636 0)
(-0.00627566 0.0383201 0)
(-0.0064955 0.0376522 0)
(-0.00668882 0.0369628 0)
(-0.00685709 0.0362546 0)
(-0.00700173 0.03553 0)
(-0.0071241 0.0347916 0)
(-0.00722553 0.0340414 0)
(-0.00730729 0.0332818 0)
(-0.00737063 0.0325146 0)
(-0.00741674 0.0317417 0)
(-0.00744677 0.0309648 0)
(-0.00746182 0.0301856 0)
(-0.00746296 0.0294056 0)
(-0.00745122 0.0286262 0)
(-0.00742757 0.0278487 0)
(-0.00739295 0.0270742 0)
(-0.00734828 0.0263039 0)
(-0.00729442 0.0255388 0)
(-0.00723219 0.0247797 0)
(-0.00716238 0.0240276 0)
(-0.00708575 0.0232831 0)
(-0.00700302 0.022547 0)
(-0.00691488 0.0218198 0)
(-0.00682198 0.0211021 0)
(-0.00672493 0.0203943 0)
(-0.00662434 0.0196969 0)
(-0.00652076 0.0190102 0)
(-0.00641472 0.0183344 0)
(-0.00630674 0.0176698 0)
(-0.00619728 0.0170166 0)
(-0.0060868 0.0163749 0)
(-0.00597573 0.0157447 0)
(-0.00586447 0.0151262 0)
(-0.0057534 0.0145193 0)
(-0.00564288 0.013924 0)
(-0.00553324 0.0133402 0)
(-0.0054248 0.0127678 0)
(-0.00531787 0.0122067 0)
(-0.00521271 0.0116567 0)
(-0.00510959 0.0111175 0)
(-0.00500876 0.010589 0)
(-0.00491044 0.0100709 0)
(-0.00481485 0.00956295 0)
(-0.00472218 0.00906483 0)
(-0.00463263 0.00857624 0)
(-0.00454635 0.00809683 0)
(-0.00446352 0.00762626 0)
(-0.00438428 0.00716417 0)
(-0.00430877 0.00671016 0)
(-0.0042371 0.00626384 0)
(-0.0041694 0.0058248 0)
(-0.00410578 0.00539263 0)
(-0.00404632 0.00496689 0)
(-0.00399112 0.00454714 0)
(-0.00394026 0.00413293 0)
(-0.0038938 0.00372381 0)
(-0.00385181 0.00331931 0)
(-0.00381435 0.00291897 0)
(-0.00378147 0.0025223 0)
(-0.00375321 0.00212882 0)
(-0.0037296 0.00173805 0)
(-0.00371068 0.00134951 0)
(-0.00369647 0.000962697 0)
(-0.00368698 0.000577122 0)
(-0.00368224 0.000192291 0)
(0.035371 0.013798 0)
(0.0328295 0.0170137 0)
(0.0303879 0.0199942 0)
(0.0280447 0.022749 0)
(0.0257985 0.0252873 0)
(0.0236474 0.0276182 0)
(0.0215901 0.0297505 0)
(0.0196243 0.031693 0)
(0.0177483 0.0334543 0)
(0.0159603 0.0350428 0)
(0.0142577 0.0364667 0)
(0.0126386 0.0377338 0)
(0.0111011 0.0388521 0)
(0.0096429 0.039829 0)
(0.00826151 0.040672 0)
(0.00695473 0.0413883 0)
(0.00572039 0.0419847 0)
(0.00455621 0.0424679 0)
(0.00345986 0.0428446 0)
(0.00242904 0.0431209 0)
(0.00146149 0.043303 0)
(0.000555004 0.0433968 0)
(-0.000292645 0.0434078 0)
(-0.00108367 0.0433416 0)
(-0.0018203 0.0432033 0)
(-0.00250471 0.042998 0)
(-0.00313909 0.0427306 0)
(-0.00372554 0.0424055 0)
(-0.00426614 0.0420274 0)
(-0.0047629 0.0416004 0)
(-0.00521781 0.0411284 0)
(-0.00563279 0.0406155 0)
(-0.00600973 0.0400653 0)
(-0.00635048 0.0394813 0)
(-0.00665684 0.0388667 0)
(-0.00693055 0.0382249 0)
(-0.00717332 0.0375587 0)
(-0.00738682 0.036871 0)
(-0.00757265 0.0361645 0)
(-0.00773238 0.0354417 0)
(-0.00786752 0.0347051 0)
(-0.00797953 0.0339568 0)
(-0.00806983 0.0331991 0)
(-0.00813978 0.0324338 0)
(-0.0081907 0.0316628 0)
(-0.00822386 0.0308879 0)
(-0.00824048 0.0301106 0)
(-0.00824174 0.0293326 0)
(-0.00822877 0.0285551 0)
(-0.00820265 0.0277795 0)
(-0.00816443 0.0270069 0)
(-0.0081151 0.0262385 0)
(-0.00805561 0.0254753 0)
(-0.00798689 0.0247181 0)
(-0.0079098 0.0239679 0)
(-0.00782517 0.0232253 0)
(-0.00773381 0.022491 0)
(-0.00763647 0.0217656 0)
(-0.00753387 0.0210497 0)
(-0.0074267 0.0203437 0)
(-0.00731561 0.019648 0)
(-0.00720122 0.0189629 0)
(-0.00708412 0.0182888 0)
(-0.00696487 0.0176259 0)
(-0.00684399 0.0169743 0)
(-0.00672198 0.0163342 0)
(-0.00659932 0.0157056 0)
(-0.00647645 0.0150886 0)
(-0.00635378 0.0144833 0)
(-0.00623173 0.0138894 0)
(-0.00611065 0.0133071 0)
(-0.0059909 0.0127361 0)
(-0.0058728 0.0121764 0)
(-0.00575667 0.0116277 0)
(-0.00564279 0.0110899 0)
(-0.00553144 0.0105627 0)
(-0.00542286 0.0100459 0)
(-0.00531729 0.00953919 0)
(-0.00521495 0.00904231 0)
(-0.00511605 0.00855493 0)
(-0.00502078 0.00807671 0)
(-0.0049293 0.00760731 0)
(-0.00484179 0.00714636 0)
(-0.0047584 0.00669348 0)
(-0.00467925 0.00624827 0)
(-0.00460449 0.00581033 0)
(-0.00453423 0.00537923 0)
(-0.00446857 0.00495455 0)
(-0.00440761 0.00453584 0)
(-0.00435143 0.00412266 0)
(-0.00430013 0.00371456 0)
(-0.00425376 0.00331107 0)
(-0.00421239 0.00291171 0)
(-0.00417608 0.00251603 0)
(-0.00414487 0.00212353 0)
(-0.0041188 0.00173373 0)
(-0.0040979 0.00134616 0)
(-0.00408221 0.000960305 0)
(-0.00407173 0.000575688 0)
(-0.00406649 0.000191814 0)
(0.0387046 0.0137603 0)
(0.0359236 0.0169671 0)
(0.0332518 0.0199395 0)
(0.0306878 0.0226867 0)
(0.0282298 0.0252181 0)
(0.0258761 0.0275426 0)
(0.0236249 0.029669 0)
(0.0214738 0.0316063 0)
(0.019421 0.0333628 0)
(0.0174645 0.0349469 0)
(0.0156015 0.0363668 0)
(0.0138298 0.0376305 0)
(0.0121474 0.0387457 0)
(0.0105517 0.03972 0)
(0.00904011 0.0405607 0)
(0.00761018 0.041275 0)
(0.00625951 0.0418697 0)
(0.00498561 0.0423517 0)
(0.00378593 0.0427273 0)
(0.00265796 0.0430029 0)
(0.00159924 0.0431845 0)
(0.000607318 0.043278 0)
(-0.000320216 0.043289 0)