/*--------------------------------*- C++ -*----------------------------------*\
| =========                 |                                                 |
| \\      /  F ield         | OpenFOAM: The Open Source CFD Toolbox           |
|  \\    /   O peration     | Version:  2406                                  |
|   \\  /    A nd           | Website:  www.openfoam.com                      |
|    \\/     M anipulation  |                                                 |
\*---------------------------------------------------------------------------*/
FoamFile
{
    version     2.0;
    format      ascii;
    arch        "LSB;label=32;scalar=64";
    class       volScalarField;
    location    "125";
    object      gradTy;
}
// * * * * * * * * * * * * * * * * * * * * * * * * * * * * * * * * * * * * * //

dimensions      [0 -1 0 1 0 0 0];

internalField   nonuniform List<scalar> 
20000
(
44.2881
54.6093
64.1767
73.0185
81.1658
88.647
95.4915
101.727
107.38
112.478
117.049
121.116
124.705
127.841
130.547
132.846
134.76
136.311
137.52
138.407
138.992
139.293
139.328
139.115
138.671
138.012
137.154
136.111
134.897
133.526
132.012
130.365
128.599
126.725
124.752
122.692
120.554
118.346
116.079
113.759
111.394
108.993
106.56
104.104
101.629
99.1421
96.6474
94.15
91.6545
89.165
86.6854
84.219
81.7692
79.3389
76.9308
74.5471
72.1903
69.862
67.5641
65.298
63.065
60.8662
58.7025
56.5746
54.4831
52.4285
50.411
48.4306
46.4875
44.5815
42.7123
40.8797
39.0831
37.3219
35.5957
33.9035
32.2447
30.6183
29.0235
27.4591
25.9242
24.4175
22.938
21.4844
20.0554
18.6497
17.266
15.9028
14.5589
13.2327
11.9228
10.6277
9.34586
8.07581
6.81599
5.56484
4.32082
3.08233
1.84781
0.615673
44.2773
54.5955
64.1604
73.0005
81.146
88.6255
95.4677
101.701
107.353
112.451
117.02
121.086
124.674
127.809
130.515
132.813
134.727
136.278
137.486
138.373
138.957
139.258
139.294
139.081
138.637
137.978
137.12
136.077
134.864
133.493
131.979
130.333
128.568
126.693
124.721
122.662
120.524
118.317
116.05
113.731
111.367
108.966
106.534
104.078
101.604
99.1177
96.6235
94.1268
91.6319
89.143
86.664
84.1982
81.749
79.3193
76.9118
74.5288
72.1724
69.8448
67.5474
65.2819
63.0494
60.8512
58.688
56.5606
54.4697
52.4156
50.3985
48.4187
46.4761
44.5705
42.7018
40.8696
39.0734
37.3127
35.5869
33.8952
32.2367
30.6108
29.0163
27.4523
25.9178
24.4115
22.9323
21.4791
20.0504
18.6451
17.2617
15.8989
14.5553
13.2294
11.9198
10.6251
9.34355
8.07381
6.8143
5.56347
4.31975
3.08157
1.84736
0.615521
44.2559
54.5688
64.1284
72.9644
81.1057
88.5818
95.4207
101.651
107.3
112.395
116.962
121.026
124.613
127.746
130.45
132.747
134.66
136.21
137.418
138.305
138.889
139.189
139.225
139.012
138.569
137.91
137.052
136.01
134.797
133.428
131.914
130.269
128.504
126.631
124.66
122.601
120.464
118.259
115.993
113.675
111.312
108.912
106.482
104.027
101.554
99.0687
96.5758
94.0803
91.5867
89.099
86.6212
84.1567
81.7087
79.2802
76.8738
74.492
72.1368
69.8103
67.5141
65.2496
63.0183
60.8211
58.659
56.5327
54.4428
52.3897
50.3737
48.3948
46.4531
44.5485
42.6807
40.8494
39.0541
37.2943
35.5693
33.8784
32.2208
30.5957
29.002
27.4388
25.905
24.3995
22.921
21.4685
20.0405
18.6359
17.2532
15.8911
14.5481
13.2229
11.914
10.6198
9.33894
8.06983
6.81094
5.56072
4.31762
3.08005
1.84644
0.615217
44.2231
54.5292
64.0812
72.9104
81.0455
88.5161
95.3501
101.576
107.221
112.312
116.875
120.937
124.521
127.652
130.354
132.649
134.561
136.109
137.317
138.202
138.786
139.086
139.122
138.909
138.466
137.808
136.951
135.909
134.697
133.329
131.816
130.172
128.409
126.537
124.568
122.51
120.375
118.171
115.907
113.591
111.23
108.831
106.403
103.95
101.479
98.9954
96.5043
94.0107
91.5189
89.0331
86.557
84.0944
81.6482
79.2215
76.8169
74.4368
72.0834
69.7586
67.4641
65.2013
62.9716
60.7761
58.6156
56.4909
54.4025
52.3509
50.3364
48.359
46.4187
44.5155
42.6491
40.8192
39.0252
37.2667
35.543
33.8533
32.197
30.573
28.9805
27.4185
25.8858
24.3814
22.904
21.4526
20.0257
18.6221
17.2404
15.8793
14.5373
13.2131
11.9051
10.6119
9.33202
8.06385
6.8059
5.55661
4.31442
3.07777
1.84508
0.614761
44.1786
54.4753
64.018
72.8384
80.9656
88.4286
95.2559
101.476
107.115
112.201
116.76
120.817
124.398
127.526
130.225
132.518
134.428
135.975
137.181
138.066
138.649
138.949
138.984
138.772
138.329
137.672
136.816
135.775
134.564
133.197
131.686
130.044
128.282
126.412
124.445
122.389
120.256
118.055
115.792
113.478
111.12
108.724
106.298
103.847
101.379
98.8976
96.409
93.9178
91.4285
88.9451
86.4715
84.0113
81.5675
79.1432
76.741
74.3633
72.0122
69.6897
67.3974
65.1369
62.9094
60.716
58.5577
56.4351
54.3488
52.2992
50.2866
48.3112
46.3729
44.4716
42.607
40.7788
38.9867
37.2299
35.5079
33.8199
32.1652
30.5428
28.9519
27.3914
25.8602
24.3573
22.8814
21.4314
20.0059
18.6037
17.2234
15.8636
14.523
13.2001
11.8934
10.6015
9.32281
8.05589
6.79917
5.55112
4.31016
3.07473
1.84325
0.614154
44.1238
54.4076
63.939
72.7485
80.8656
88.3193
95.1382
101.35
106.983
112.062
116.616
120.668
124.244
127.368
130.064
132.354
134.262
135.807
137.011
137.895
138.478
138.777
138.812
138.601
138.158
137.502
136.647
135.607
134.398
133.033
131.523
129.883
128.124
126.256
124.291
122.238
120.108
117.909
115.649
113.338
110.982
108.59
106.166
103.719
101.253
98.7754
96.2899
93.8018
91.3155
88.8352
86.3647
83.9075
81.4668
79.0454
76.6462
74.2714
71.9232
69.6036
67.3142
65.0564
62.8317
60.641
58.4853
56.3653
54.2816
52.2346
50.2245
48.2515
46.3156
44.4166
42.5544
40.7285
38.9385
37.1839
35.464
33.7781
32.1254
30.5051
28.9161
27.3575
25.8283
24.3272
22.8532
21.4049
19.9812
18.5807
17.2021
15.844
14.505
13.1838
11.8787
10.5884
9.31129
8.04593
6.79077
5.54426
4.30483
3.07093
1.84098
0.613395
44.0586
54.3268
63.8441
72.6405
80.7456
88.1883
94.9971
101.2
106.824
111.896
116.443
120.489
124.06
127.179
129.871
132.158
134.062
135.605
136.808
137.691
138.272
138.571
138.607
138.395
137.953
137.298
136.444
135.406
134.199
132.835
131.328
129.691
127.934
126.069
124.106
122.057
119.93
117.734
115.478
113.17
110.818
108.428
106.009
103.565
101.103
98.6288
96.147
93.6626
91.18
88.7034
86.2366
83.783
81.3459
78.9282
76.5325
74.1612
71.8165
69.5003
67.2143
64.9599
62.7385
60.5511
58.3986
56.2817
54.2011
52.1571
50.15
48.1799
46.2468
44.3507
42.4912
40.668
38.8807
37.1287
35.4114
33.728
32.0778
30.4598
28.8732
27.317
25.79
24.2911
22.8192
21.3731
19.9515
18.5531
17.1766
15.8205
14.4835
13.1642
11.8611
10.5727
9.29747
8.034
6.7807
5.53603
4.29845
3.06637
1.83825
0.612485
43.9825
54.2326
63.7334
72.5146
80.6057
88.0355
94.8325
101.025
106.639
111.702
116.241
120.28
123.845
126.959
129.646
131.929
133.83
135.37
136.571
137.452
138.032
138.331
138.366
138.155
137.714
137.06
136.208
135.172
133.966
132.605
131.101
129.466
127.712
125.85
123.891
121.845
119.722
117.53
115.278
112.974
110.626
108.241
105.825
103.386
100.928
98.4579
95.9804
93.5003
91.022
88.5497
86.0871
83.6378
81.2049
78.7914
76.3999
74.0327
71.6921
69.3799
67.0978
64.8474
62.6298
60.4461
58.2974
56.1842
54.1072
52.0667
50.0631
48.0964
46.1667
44.2739
42.4176
40.5976
38.8133
37.0644
35.35
33.6695
32.0222
30.407
28.8232
27.2696
25.7453
24.249
22.7797
21.3361
19.917
18.521
17.1468
15.7931
14.4584
13.1414
11.8405
10.5543
9.28136
8.02008
6.76895
5.52644
4.291
3.06106
1.83506
0.611424
43.8953
54.1252
63.6071
72.3709
80.4459
87.861
94.6445
100.824
106.427
111.481
116.01
120.042
123.599
126.707
129.389
131.667
133.565
135.102
136.3
137.179
137.759
138.057
138.092
137.881
137.441
136.788
135.938
134.904
133.701
132.342
130.841
129.209
127.459
125.601
123.646
121.604
119.484
117.297
115.049
112.75
110.406
108.026
105.615
103.181
100.728
98.2627
95.7901
93.3149
90.8416
88.3742
85.9165
83.472
81.0439
78.6352
76.2484
73.8859
71.5499
69.2423
66.9648
64.7188
62.5056
60.3263
58.1818
56.0728
53.9999
51.9635
49.9638
48.0011
46.0752
44.1861
42.3335
40.5171
38.7364
36.9909
35.2799
33.6028
31.9587
30.3468
28.7661
27.2156
25.6942
24.2009
22.7345
21.2938
19.8775
18.4842
17.1128
15.7618
14.4298
13.1153
11.817
10.5334
9.26296
8.00418
6.75553
5.51548
4.28249
3.05499
1.83142
0.610212
43.7973
54.0043
63.465
72.2093
80.2662
87.6648
94.4331
100.599
106.19
111.232
115.751
119.773
123.323
126.424
129.1
131.373
133.266
134.8
135.996
136.873
137.451
137.749
137.784
137.573
137.135
136.483
135.634
134.602
133.402
132.047
130.549
128.921
127.174
125.32
123.37
121.332
119.218
117.035
114.792
112.498
110.16
107.785
105.379
102.95
100.503
98.0433
95.5762
93.1065
90.6387
88.1768
85.7246
83.2856
80.863
78.4596
76.0781
73.7209
71.3902
69.0877
66.8153
64.5743
62.366
60.1916
58.0519
55.9476
53.8793
51.8474
49.8523
47.8939
45.9723
44.0874
42.239
40.4266
38.6499
36.9083
35.2011
33.5278
31.8873
30.279
28.7018
27.1548
25.6369
24.1469
22.6838
21.2463
19.8331
18.443
17.0746
15.7266
14.3975
13.086
11.7906
10.5099
9.24228
7.9863
6.74044
5.50317
4.27293
3.04817
1.82733
0.608849
43.6885
53.8701
63.3073
72.0298
80.0668
87.4469
94.1985
100.349
105.926
110.955
115.464
119.476
123.017
126.11
128.779
131.047
132.935
134.465
135.658
136.533
137.11
137.406
137.441
137.232
136.794
136.144
135.297
134.268
133.071
131.718
130.224
128.6
126.858
125.009
123.063
121.031
118.921
116.744
114.507
112.219
109.886
107.517
105.118
102.694
100.253
97.7997
95.3387
92.8752
90.4135
87.9577
85.5116
83.0786
80.662
78.2646
75.8891
73.5377
71.2128
68.916
66.6492
64.4138
62.211
60.042
57.9076
55.8086
53.7454
51.7186
49.7284
47.7749
45.8581
43.9779
42.134
40.3261
38.5538
36.8166
35.1137
33.4444
31.8081
30.2038
28.6305
27.0873
25.5731
24.0869
22.6274
21.1935
19.7838
18.3971
17.0322
15.6875
14.3618
13.0535
11.7613
10.4838
9.21931
7.96646
6.72369
5.48949
4.26231
3.0406
1.82279
0.607336
43.5689
53.7226
63.134
71.8326
79.8476
87.2075
93.9406
100.074
105.636
110.652
115.148
119.149
122.68
125.765
128.427
130.688
132.571
134.097
135.287
136.159
136.734
137.03
137.065
136.856
136.419
135.771
134.927
133.9
132.706
131.358
129.868
128.248
126.511
124.667
122.726
120.699
118.596
116.424
114.194
111.911
109.585
107.223
104.83
102.413
99.9788
97.5319
95.0777
92.6209
90.1659
87.7169
85.2775
82.8512
80.4412
78.0503
75.6813
73.3364
71.0178
68.7273
66.4667
64.2375
62.0407
59.8776
57.7491
55.6558
53.5983
51.577
49.5922
47.6441
45.7325
43.8574
42.0186
40.2157
38.4483
36.7158
35.0175
33.3529
31.721
30.1211
28.5521
27.0131
25.5031
24.021
22.5655
21.1354
19.7296
18.3468
16.9855
15.6445
14.3224
13.0178
11.7291
10.4551
9.19407
7.94465
6.70529
5.47446
4.25064
3.03227
1.8178
0.605673
43.4385
53.5619
62.9451
71.6177
79.6087
86.9466
93.6595
99.775
105.32
110.321
114.803
118.792
122.313
125.388
128.042
130.297
132.175
133.696
134.882
135.752
136.325
136.62
136.655
136.446
136.011
135.365
134.523
133.5
132.309
130.965
129.479
127.864
126.132
124.294
122.359
120.338
118.241
116.076
113.852
111.576
109.257
106.902
104.516
102.107
99.6797
97.2401
94.7932
92.3438
89.8962
87.4544
85.0223
82.6033
80.2005
77.8168
75.4549
73.117
70.8053
68.5217
66.2679
64.0452
61.8551
59.6985
57.5763
55.4892
53.4379
51.4227
49.4438
47.5015
45.5957
43.7262
41.8929
40.0954
38.3333
36.6059
34.9128
33.2531
31.6261
30.0309
28.4667
26.9323
25.4268
23.9491
22.4979
21.0722
19.6706
18.2919
16.9347
15.5977
14.2796
12.9788
11.6941
10.4238
9.16656
7.92087
6.68522
5.45808
4.23792
3.0232
1.81236
0.603861
43.2974
53.3879
62.7407
71.3851
79.3501
86.6642
93.3553
99.4509
104.978
109.962
114.43
118.406
121.916
124.981
127.626
129.874
131.745
133.262
134.444
135.311
135.882
136.177
136.211
136.003
135.569
134.925
134.086
133.066
131.88
130.539
129.059
127.449
125.723
123.89
121.962
119.947
117.857
115.699
113.482
111.214
108.903
106.555
104.177
101.775
99.3559
96.9243
94.4854
92.0439
89.6042
87.1704
84.7462
82.335
79.94
77.5641
75.2098
72.8795
70.5753
68.2992
66.0527
63.8372
61.6542
59.5046
57.3893
55.309
53.2643
51.2557
49.2833
47.3472
45.4476
43.5842
41.7569
39.9652
38.2088
36.487
34.7994
33.1451
31.5234
29.9334
28.3742
26.8449
25.3442
23.8713
22.4249
21.0038
19.6067
18.2325
16.8797
15.5471
14.2332
12.9367
11.6561
10.3899
9.13679
7.89515
6.66351
5.44036
4.22416
3.01338
1.80648
0.6019
43.1457
53.2008
62.5208
71.1349
79.072
86.3605
93.0281
99.1023
104.61
109.577
114.029
117.991
121.488
124.543
127.179
129.419
131.284
132.795
133.973
134.837
135.406
135.699
135.734
135.527
135.094
134.452
133.616
132.6
131.417
130.082
128.606
127.003
125.282
123.456
121.534
119.527
117.444
115.293
113.084
110.824
108.521
106.181
103.812
101.418
99.0077
96.5846
94.1542
91.7213
89.2901
86.8648
84.4491
82.0464
79.6598
77.2922
74.9462
72.6241
70.328
68.0598
65.8211
63.6135
61.4381
59.296
57.1881
55.1152
53.0776
51.076
49.1105
47.1813
45.2883
43.4314
41.6105
39.8251
38.0748
36.3591
34.6774
33.0289
31.4129
29.8285
28.2748
26.7508
25.2554
23.7876
22.3463
20.9301
19.538
18.1686
16.8205
15.4926
14.1833
12.8913
11.6152
10.3535
9.10476
7.86748
6.64016
5.42129
4.20935
3.00282
1.80014
0.59979
42.9833
53.0005
62.2854
70.8671
78.7744
86.0354
92.6779
98.7293
104.216
109.164
113.6
117.547
121.031
124.074
126.7
128.932
130.789
132.295
133.468
134.329
134.896
135.188
135.223
135.016
134.586
133.946
133.113
132.101
130.923
129.592
128.122
126.524
124.81
122.991
121.077
119.077
117.002
114.86
112.659
110.407
108.112
105.781
103.421
101.037
98.635
96.221
93.7998
91.376
88.954
86.5379
84.1313
81.7376
79.36
77.0013
74.6641
72.3507
70.0632
67.8036
65.5734
63.374
61.2068
59.0728
56.9729
54.9077
52.8779
50.8838
48.9257
47.0037
45.1178
43.268
41.4539
39.6752
37.9315
36.2223
34.5469
32.9046
31.2946
29.7162
28.1683
26.6501
25.1603
23.6981
22.2622
20.8514
19.4644
18.1002
16.7572
15.4343
14.1299
12.8428
11.5715
10.3145
9.07049
7.83786
6.61516
5.40088
4.19351
2.99151
1.79337
0.597533
42.8103
52.7872
62.0347
70.5819
78.4573
85.6891
92.3049
98.3319
103.797
108.725
113.143
117.074
120.544
123.575
126.19
128.413
130.263
131.762
132.931
133.788
134.353
134.644
134.679
134.473
134.044
133.407
132.577
131.569
130.396
129.071
127.607
126.015
124.308
122.496
120.589
118.598
116.531
114.397
112.205
109.963
107.677
105.356
103.005
100.63
98.238
95.8337
93.4222
91.0082
88.596
86.1895
83.7926
81.4086
79.0405
76.6913
74.3635
72.0595
69.7812
67.5307
65.3094
63.1189
60.9605
58.835
56.7435
54.6867
52.665
50.6789
48.7287
46.8145
44.9362
43.0938
41.287
39.5155
37.7788
36.0765
34.4078
32.7721
31.1687
29.5966
28.055
26.5428
25.0591
23.6027
22.1725
20.7674
19.3861
18.0273
16.6898
15.3721
14.0731
12.7911
11.5249
10.273
9.03398
7.80631
6.58853
5.37914
4.17663
2.97947
1.78615
0.595127
42.6267
52.5608
61.7687
70.2792
78.1209
85.3216
91.9091
97.9103
103.352
108.259
112.658
116.572
120.027
123.045
125.649
127.862
129.704
131.197
132.361
133.215
133.777
134.067
134.101
133.896
133.469
132.835
132.009
131.005
129.837
128.517
127.059
125.475
123.775
121.971
120.072
118.089
116.031
113.907
111.724
109.491
107.215
104.904
102.563
100.199
97.8167
95.4228
93.0216
90.6179
88.2161
85.82
83.4333
81.0595
78.7016
76.3625
74.0447
71.7505
69.482
67.2411
65.0294
62.8483
60.6991
58.5827
56.5002
54.4522
52.4392
50.4616
48.5198
46.6137
44.7435
42.909
41.11
39.346
37.6168
35.9218
34.2603
32.6316
31.035
29.4697
27.9347
26.429
24.9516
23.5015
22.0775
20.6784
19.303
17.95
16.6182
15.3062
14.0127
12.7363
11.4755
10.229
8.99524
7.77284
6.56028
5.35608
4.15872
2.9667
1.77849
0.592576
42.4326
52.3215
61.4875
69.9592
77.7652
84.9331
91.4906
97.4644
102.881
107.766
112.145
116.041
119.48
122.485
125.077
127.28
129.114
130.6
131.758
132.608
133.168
133.457
133.49
133.287
132.862
132.23
131.408
130.408
129.245
127.932
126.481
124.904
123.211
121.415
119.525
117.552
115.503
113.388
111.215
108.993
106.727
104.426
102.096
99.7423
97.3713
94.9883
92.5981
90.2053
87.8144
85.4292
83.0534
80.6904
78.3432
76.0148
73.7075
71.4238
69.1656
66.9349
64.7333
62.5621
60.4227
58.316
56.2429
54.2042
52.2004
50.2319
48.2988
46.4015
44.5398
42.7136
40.9228
39.1669
37.4455
35.7582
34.1043
32.483
30.8937
29.3355
27.8075
26.3086
24.838
23.3945
21.9769
20.5842
19.2151
17.8683
16.5425
15.2365
13.9489
12.6783
11.4232
10.1824
8.95428
7.73745
6.53041
5.33169
4.13978
2.95319
1.77039
0.589877
42.228
52.0693
61.1911
69.622
77.3903
84.5237
91.0495
96.9946
102.385
107.246
111.604
115.482
118.904
121.894
124.474
126.666
128.491
129.97
131.123
131.969
132.526
132.813
132.847
132.644
132.221
131.593
130.774
129.78
128.622
127.315
125.871
124.301
122.617
120.83
118.949
116.985
114.946
112.841
110.679
108.467
106.213
103.923
101.604
99.2615
96.9019
94.5303
92.1516
89.7705
87.391
85.0173
82.653
80.3014
77.9656
75.6483
73.3522
71.0794
68.8322
66.6122
64.4212
62.2605
60.1314
58.0349
55.9718
53.9429
51.9488
49.9897
48.066
46.1778
44.3251
42.5077
40.7255
38.9781
37.265
35.5858
33.9399
32.3264
30.7448
29.1941
27.6734
26.1818
24.7183
23.2817
21.871
20.485
19.1224
17.7821
16.4628
15.1631
13.8817
12.6172
11.3682
10.1333
8.91112
7.70015
6.49893
5.30598
4.11983
2.93895
1.76186
0.587034
42.013
51.8042
60.8795
69.2675
76.9963
84.0934
90.586
96.5008
101.864
106.7
111.036
114.894
118.299
121.274
123.841
126.021
127.837
129.309
130.456
131.297
131.852
132.137
132.171
131.969
131.548
130.923
130.108
129.119
127.967
126.667
125.23
123.669
121.993
120.215
118.344
116.389
114.361
112.267
110.116
107.915
105.672
103.394
101.086
98.7561
96.4086
94.0491
91.6825
89.3134
86.9461
84.5845
82.2322
79.8926
77.5686
75.2632
72.9787
70.7176
68.4818
66.2731
64.0932
61.9435
59.8253
57.7394
55.6869
53.6683
51.6843
49.7352
47.8213
45.9427
44.0994
42.2913
40.5182
38.7796
37.0753
35.4047
33.7671
32.1619
30.5883
29.0454
27.5325
26.0485
24.5924
23.1632
21.7596
20.3807
19.0251
17.6916
16.379
15.0859
13.811
12.5529
11.3103
10.0817
8.86575
7.66094
6.46584
5.27897
4.09885
2.92399
1.75289
0.584045
41.7877
51.5263
60.553
68.896
76.5833
83.6423
90.1001
95.9832
101.317
106.128
110.44
114.278
117.664
120.623
123.176
125.345
127.152
128.615
129.756
130.593
131.144
131.428
131.462
131.261
130.842
130.221
129.411
128.426
127.281
125.988
124.559
123.005
121.339
119.57
117.709
115.765
113.747
111.665
109.525
107.336
105.105
102.839
100.544
98.2264
95.8915
93.5446
91.1907
88.8344
86.4798
84.1308
81.7912
79.4641
77.1526
74.8595
72.5873
70.3383
68.1144
65.9176
63.7494
61.6113
59.5044
57.4297
55.3882
53.3804
51.4071
49.4684
47.5648
45.6963
43.8629
42.0645
40.3008
38.5716
36.8764
35.2148
33.5859
31.9893
30.4242
28.8897
27.3848
25.9088
24.4605
23.0389
21.6429
20.2714
18.923
17.5967
16.2911
15.005
13.7369
12.4856
11.2496
10.0276
8.8182
7.61985
6.43116
5.25066
4.07687
2.90831
1.74349
0.580912
41.552
51.2358
60.2115
68.5074
76.1514
83.1706
89.592
95.4419
100.746
105.53
109.817
113.633
117.001
119.943
122.482
124.639
126.435
127.89
129.024
129.856
130.405
130.687
130.72
130.521
130.104
129.486
128.681
127.702
126.563
125.277
123.856
122.312
120.655
118.896
117.045
115.112
113.106
111.035
108.907
106.731
104.513
102.259
99.9772
97.6725
95.3507
93.0171
90.6765
88.3334
85.9921
83.6564
81.3299
79.0159
76.7175
74.4373
72.1779
69.9416
67.7303
65.5459
63.3899
61.2638
59.1688
57.1058
55.0758
53.0794
51.1172
49.1895
47.2966
45.4386
43.6155
41.8272
40.0736
38.3541
36.6685
35.0162
33.3965
31.8089
30.2526
28.7267
27.2304
25.7627
24.3226
22.909
21.5209
20.1571
18.8163
17.4975
16.1993
14.9203
13.6594
12.4152
11.1862
9.9711
8.76847
7.57688
6.39489
5.22105
4.05388
2.8919
1.73365
0.577636
41.3061
50.9325
59.8552
68.102
75.7007
82.6784
89.0618
94.877
100.15
104.905
109.167
112.961
116.308
119.233
121.757
123.901
125.686
127.133
128.261
129.088
129.633
129.914
129.947
129.748
129.334
128.72
127.919
126.946
125.814
124.536
123.123
121.588
119.941
118.192
116.352
114.431
112.437
110.378
108.263
106.099
103.894
101.654
99.3855
97.0944
94.7864
92.4666
90.1398
87.8106
85.4832
83.1613
80.8486
78.5483
76.2635
73.9968
71.7508
69.5277
67.3295
65.158
63.0148
60.9013
58.8186
56.7679
54.7499
52.7653
50.8146
48.8983
47.0166
45.1697
43.3574
41.5797
39.8364
38.1271
36.4515
34.8089
33.1989
31.6207
30.0736
28.5567
27.0693
25.6102
24.1786
22.7734
21.3935
20.0378
18.705
17.3939
16.1034
14.832
13.5786
12.3417
11.12
9.91209
8.71657
7.53204
6.35705
5.19015
4.02988
2.87479
1.72339
0.574218
41.05
50.6167
59.484
67.6798
75.2314
82.1658
88.5096
94.2888
99.5288
104.255
108.491
112.26
115.587
118.494
121.002
123.133
124.907
126.345
127.465
128.288
128.829
129.108
129.141
128.944
128.533
127.922
127.126
126.159
125.034
123.764
122.36
120.834
119.197
117.459
115.631
113.721
111.739
109.694
107.592
105.441
103.25
101.024
98.7693
96.4924
94.1987
91.8933
89.581
87.2662
84.9532
82.6457
80.3473
78.0613
75.7906
73.538
71.3059
69.0966
66.912
64.754
62.6241
60.5237
58.4539
56.4159
54.4104
52.4381
50.4996
48.5952
46.7251
44.8896
43.0886
41.3219
39.5894
37.8907
36.2255
34.5931
32.9931
31.4246
29.8871
28.3797
26.9014
25.4514
24.0287
22.6322
21.2609
19.9135
18.589
17.2861
16.0035
14.7401
13.4944
12.2652
11.051
9.85063
8.66253
7.48534
6.31763
5.15797
4.0049
2.85697
1.71271
0.570658
40.7838
50.2885
59.0983
67.2408
74.7434
81.6329
87.9356
93.6773
98.8833
103.578
107.787
111.532
114.838
117.725
120.217
122.334
124.097
125.525
126.639
127.456
127.994
128.271
128.304
128.108
127.699
127.092
126.302
125.341
124.223
122.961
121.566
120.05
118.424
116.698
114.881
112.984
111.015
108.982
106.894
104.758
102.58
100.369
98.1287
95.8666
93.5878
91.2973
89
86.7002
84.4022
82.1097
79.8262
77.555
75.2991
73.0611
70.8435
68.6485
66.4781
64.334
62.2179
60.1311
58.0748
56.05
54.0575
52.098
50.1721
48.28
46.4221
44.5985
42.8091
41.0539
39.3326
37.645
35.9905
34.3688
32.7791
31.2208
29.6933
28.1956
26.7269
25.2864
23.8729
22.4854
21.123
19.7844
18.4684
17.174
15.8998
14.6445
13.4069
12.1856
10.9794
9.78674
8.60635
7.43679
6.27666
5.12452
3.97892
2.83844
1.7016
0.566957
40.5075
49.9478
58.6979
66.7853
74.2371
81.0799
87.3398
93.0427
98.2134
102.877
107.057
110.777
114.06
116.928
119.403
121.505
123.256
124.675
125.781
126.592
127.127
127.402
127.434
127.24
126.834
126.231
125.446
124.492
123.382
122.128
120.743
119.237
117.622
115.907
114.103
112.218
110.263
108.244
106.17
104.048
101.885
99.6886
97.4639
95.2172
92.9538
90.6788
88.397
86.1129
83.8304
81.5534
79.2854
77.0296
74.789
72.5661
70.3635
68.1834
66.0277
63.8982
61.7964
59.7238
57.6814
55.6703
53.6913
51.7451
49.8322
47.9529
46.1076
44.2963
42.5191
40.7758
39.0662
37.39
35.7467
34.1359
32.557
31.0093
29.4921
28.0046
26.5459
25.1151
23.7111
22.3331
20.9799
19.6503
18.3433
17.0576
15.792
14.5453
13.3161
12.1031
10.905
9.72044
8.54805
7.38641
6.23414
5.0898
3.95197
2.81921
1.69007
0.563116
40.2212
49.5948
58.283
66.3133
73.7124
80.5069
86.7226
92.3851
97.5193
102.15
106.3
109.994
113.254
116.101
118.559
120.647
122.385
123.794
124.892
125.697
126.228
126.502
126.534
126.341
125.938
125.339
124.559
123.612
122.51
121.265
119.889
118.394
116.79
115.088
113.296
111.425
109.483
107.479
105.419
103.313
101.165
98.984
96.7751
94.5442
92.2968
90.0379
87.7723
85.5043
83.2379
80.977
78.7251
76.4852
74.2604
72.0532
69.8662
67.7015
65.561
63.4466
61.3597
59.3017
57.2737
55.2768
53.3118
51.3794
49.48
47.614
45.7817
43.9833
42.2186
40.4876
38.7901
37.1257
35.4941
33.8947
32.3269
30.7902
29.2837
27.8067
26.3583
24.9376
23.5436
22.1753
20.8316
19.5115
18.2137
16.9371
15.6804
14.4425
13.222
12.0175
10.8279
9.65174
8.48763
7.33421
6.19008
5.05383
3.92404
2.79928
1.67813
0.559136
39.925
49.2295
57.8538
65.8249
73.1696
79.914
86.0839
91.7047
96.8011
101.397
105.517
109.184
112.42
115.246
117.686
119.758
121.484
122.882
123.972
124.772
125.299
125.57
125.602
125.41
125.01
124.416
123.642
122.702
121.608
120.372
119.006
117.522
115.93
114.24
112.462
110.605
108.677
106.687
104.643
102.552
100.42
98.255
96.0624
93.8479
91.6171
89.3748
87.1259
84.8746
82.6249
80.3807
78.1453
75.9219
73.7135
71.5226
69.3517
67.2029
65.0782
62.9793
60.9078
58.8649
56.8519
54.8698
52.9192
51.001
49.1156
47.2634
45.4446
43.6593
41.9077
40.1894
38.5044
36.8523
35.2327
33.645
32.0888
30.5634
29.068
27.6019
26.1642
24.7539
23.3702
22.012
20.6782
19.3678
18.0795
16.8123
15.5649
14.3361
13.1246
11.929
10.7482
9.58066
8.42512
7.2802
6.14449
5.01661
3.89514
2.77867
1.66577
0.555018
39.6189
48.8521
57.4103
65.3203
72.6087
79.3013
85.424
91.0017
96.059
100.62
104.708
108.347
111.558
114.363
116.784
118.84
120.553
121.94
123.022
123.815
124.338
124.607
124.639
124.449
124.052
123.462
122.694
121.761
120.675
119.449
118.094
116.621
115.041
113.364
111.6
109.757
107.844
105.869
103.841
101.765
99.6504
97.5018
95.326
93.1285
90.9148
88.6897
86.458
84.2239
81.9915
79.7645
77.5462
75.3399
73.1484
70.9743
68.82
66.6877
64.5793
62.4965
60.4409
58.4137
56.4161
54.4491
52.5135
50.61
48.7391
46.901
45.0962
43.3247
41.5864
39.8813
38.2092
36.5698
34.9626
33.3871
31.8429
30.3291
28.8452
27.3903
25.9636
24.5641
23.191
21.8432
20.5197
19.2193
17.941
16.6835
15.4456
14.2262
13.024
11.8376
10.6658
9.50722
8.36054
7.22439
6.09739
4.97815
3.86528
2.75737
1.653
0.550763
39.3031
48.4627
56.9527
64.7996
72.0298
78.6692
84.743
90.2763
95.2933
99.818
103.874
107.483
110.668
113.451
115.853
117.893
119.592
120.968
122.041
122.828
123.347
123.614
123.645
123.457
123.063
122.478
121.716
120.79
119.713
118.497
117.153
115.692
114.124
112.461
110.71
108.882
106.984
105.025
103.013
100.954
98.8559
96.7245
94.566
92.3861
90.19
87.9827
85.7687
83.5525
81.3379
79.1286
76.928
74.7393
72.5653
70.4085
68.2714
66.1561
64.0645
61.9983
59.959
57.948
55.9664
54.0151
52.0949
50.2066
48.3505
46.5271
44.7367
42.9793
41.2549
39.5634
37.9046
36.2783
34.6839
33.121
31.589
30.0873
28.6152
27.1719
25.7566
24.3683
23.0062
21.6691
20.3561
19.0661
17.7979
16.5505
15.3225
14.1128
12.9201
11.7432
10.5808
9.43143
8.29389
7.1668
6.04878
4.93847
3.83447
2.73539
1.63982
0.546373
38.9776
48.0613
56.4809
64.2629
71.4332
78.0176
84.0411
89.5285
94.504
98.9912
103.013
106.593
109.752
112.512
114.893
116.916
118.601
119.966
121.03
121.811
122.325
122.59
122.621
122.434
122.043
121.464
120.708
119.79
118.722
117.515
116.182
114.733
113.179
111.529
109.793
107.98
106.098
104.155
102.16
100.118
98.0372
95.9234
93.7828
91.6209
89.443
87.2539
85.0583
82.8604
80.6642
78.4732
76.2909
74.1203
71.9642
69.8253
67.7059
65.6082
63.5339
61.4848
59.4624
57.4681
55.5028
53.5677
51.6634
49.7907
47.95
46.1418
44.3662
42.6233
40.9132
39.2357
37.5907
35.9778
34.3966
32.8466
31.3274
29.8381
28.3782
26.9469
25.5433
24.1665
22.8156
21.4896
20.1875
18.9082
17.6505
16.4134
15.1956
13.9959
12.8131
11.646
10.4931
9.35331
8.22519
7.10744
5.99868
4.89756
3.80271
2.71273
1.62624
0.541847
38.6424
47.648
55.9953
63.7103
70.819
77.3467
83.3185
88.7587
93.6914
98.1401
102.128
105.676
108.808
111.544
113.905
115.911
117.581
118.935
119.989
120.763
121.273
121.536
121.567
121.381
120.994
120.419
119.67
118.76
117.701
116.505
115.183
113.747
112.206
110.57
108.849
107.052
105.186
103.26
101.281
99.2572
97.1942
95.0986
92.9764
90.8331
88.6739
86.5037
84.327
82.148
79.9706
77.7984
75.6349
73.4829
71.3454
69.2249
67.1238
65.044
62.9876
60.9561
58.9511
56.9739
55.0256
53.1071
51.2192
49.3626
47.5377
45.745
43.9847
42.2568
40.5614
38.8983
37.2675
35.6684
34.1008
32.5642
31.058
29.5816
28.1342
26.7152
25.3236
23.9587
22.6194
21.3048
20.0139
18.7456
17.4987
16.2722
15.0649
13.8756
12.703
11.5458
10.4029
9.27288
8.15447
7.04632
5.9471
4.85545
3.77001
2.6894
1.61226
0.537188
38.2977
47.223
55.4958
63.142
70.1873
76.6568
82.5753
87.967
92.8557
97.2647
101.217
104.734
107.838
110.549
112.889
114.877
116.532
117.874
118.919
119.686
120.192
120.452
120.482
120.299
119.915
119.345
118.603
117.701
116.651
115.466
114.156
112.732
111.205
109.584
107.878
106.097
104.248
102.339
100.378
98.3718
96.3272
94.2503
92.147
90.0229
87.8829
85.7321
83.5748
81.4152
79.2572
77.1045
74.9602
72.8275
70.709
68.6074
66.525
64.4638
62.4257
60.4124
58.4253
56.4657
54.5347
52.6334
50.7623
48.9223
47.1137
45.337
43.5923
41.8799
40.1996
38.5514
36.935
35.3503
33.7966
32.2737
30.781
29.3177
27.8833
26.4769
25.0977
23.745
22.4177
21.1148
19.8354
18.5784
17.3427
16.1271
14.9305
13.7518
12.5896
11.4428
10.3101
9.19017
8.08173
6.98347
5.89405
4.81214
3.73638
2.66541
1.59788
0.532397
37.9436
46.7864
54.9826
62.5582
69.5383
75.948
81.8117
87.1536
91.997
96.3653
100.281
103.765
106.84
109.527
111.845
113.815
115.455
116.784
117.82
118.579
119.08
119.338
119.368
119.186
118.806
118.241
117.506
116.612
115.572
114.398
113.1
111.69
110.177
108.571
106.881
105.116
103.284
101.393
99.4497
97.4622
95.4365
93.3788
91.295
89.1904
87.0703
84.9393
82.802
80.6624
78.5244
76.3915
74.2671
72.154
70.0552
67.973
65.9099
63.8677
61.8485
59.8538
57.885
55.9436
54.0305
52.1467
50.2929
48.4699
46.678
44.9178
43.1892
41.4926
39.8279
38.1949
36.5935
35.0234
33.4841
31.9753
30.4963
29.0466
27.6254
26.2321
24.8657
23.5254
22.2104
20.9196
19.652
18.4066
17.1823
15.978
14.7925
13.6246
12.4732
11.337
10.2148
9.10519
8.007
6.91889
5.83955
4.76764
3.70183
2.64077
1.5831
0.527474
37.5801
46.3381
54.4559
61.9589
68.8721
75.2204
81.0279
86.3186
91.1157
95.4421
99.32
102.771
105.817
108.478
110.774
112.724
114.349
115.665
116.691
117.444
117.94
118.195
118.225
118.044
117.668
117.109
116.38
115.495
114.465
113.302
112.017
110.62
109.121
107.531
105.857
104.109
102.294
100.421
98.497
96.5285
94.5222
92.4842
90.4203
88.336
86.2361
84.1256
82.0087
79.8896
77.7721
75.6597
73.5556
71.4628
69.3841
67.3219
65.2785
63.2559
61.256
59.2804
57.3305
55.4076
53.5129
51.6471
49.8111
48.0055
46.2309
44.4874
42.7755
41.0951
39.4463
37.829
36.2429
34.6879
33.1634
31.669
30.2042
28.7683
27.3608
25.9808
24.6275
23.3
21.9976
20.7191
19.4637
18.2302
17.0177
15.8249
14.6508
13.4941
12.3537
11.2284
10.1169
9.01796
7.93029
6.85261
5.78361
4.72197
3.66637
2.61547
1.56793
0.52242
37.2073
45.8785
53.9157
61.3443
68.1889
74.4743
80.2242
85.4624
90.2119
94.4954
98.3348
101.752
104.767
107.402
109.675
111.606
113.214
114.518
115.533
116.279
116.77
117.022
117.052
116.874
116.501
115.947
115.226
114.349
113.33
112.178
110.906
109.523
108.039
106.464
104.807
103.076
101.279
99.4251
97.52
95.571
93.5846
91.5668
89.5234
87.4597
85.3807
83.2911
81.1952
79.0972
77.0006
74.9092
72.8259
70.7539
68.6958
66.6541
64.6309
62.6284
60.6484
58.6923
56.7618
54.858
52.982
51.1348
49.317
47.5294
45.7723
44.0462
42.3512
40.6875
39.055
37.4537
35.8834
34.3438
32.8344
31.3548
29.9046
28.483
27.0894
25.723
24.3832
23.0689
21.7794
20.5136
19.2706
18.0494
16.8489
15.6679
14.5055